<event>
 7    1  0.2741735E-015  0.9000775E+02  0.7816164E-02  0.1186339E+00
        -11   -1    0    0    0    0  0.00000000000E+00  0.00000000000E+00  0.45593999997E+02  0.45594000000E+02  0.51100000000E-03 0.  1.
         11   -1    0    0    0    0 -0.00000000000E+00 -0.00000000000E+00 -0.45593999997E+02  0.45594000000E+02  0.51100000000E-03 0. -1.
    9900012    2    1    2    0    0 -0.54118134448E+00 -0.26863583673E+00  0.10138811401E+01  0.90007746880E+02  0.90000008339E+02 0.  0.
         12    1    1    2    0    0  0.54118134448E+00  0.26863583673E+00 -0.10138811401E+01  0.11802531197E+01  0.00000000000E+00 0. -1.
         11    1    3    3    0    0  0.51236679118E+01  0.84377213505E+01 -0.39800942394E+02  0.41006854673E+02  0.51100000000E-03 0. -1.
        -11    1    3    3    0    0  0.69249163821E+01 -0.50493639856E+01  0.31687962529E+01  0.91373854855E+01  0.51100000000E-03 0.  1.
        -12    1    3    3    0    0 -0.12589765638E+02 -0.36569932017E+01  0.37646027281E+02  0.39863506722E+02  0.00000000000E+00 0.  1.
</event>
<event>
 7    1  0.2284751E-015  0.9000780E+02  0.7816164E-02  0.1186339E+00
        -11   -1    0    0    0    0  0.00000000000E+00  0.00000000000E+00  0.45593999997E+02  0.45594000000E+02  0.51100000000E-03 0. -1.
         11   -1    0    0    0    0 -0.00000000000E+00 -0.00000000000E+00 -0.45593999997E+02  0.45594000000E+02  0.51100000000E-03 0.  1.
    9900012    2    1    2    0    0  0.69192774665E+00 -0.64966471022E+00 -0.70146259454E+00  0.90007797469E+02  0.90000059596E+02 0.  0.
         12    1    1    2    0    0 -0.69192774665E+00  0.64966471022E+00  0.70146259454E+00  0.11802025309E+01  0.00000000000E+00 0. -1.
         11    1    3    3    0    0  0.12746307542E+02  0.47210304696E+01 -0.18088529387E+02  0.22626342619E+02  0.51100000000E-03 0. -1.
        -11    1    3    3    0    0 -0.24397216600E+01 -0.16519409709E+01 -0.24279985650E+02  0.24458104059E+02  0.51100000000E-03 0.  1.
        -12    1    3    3    0    0 -0.96146581354E+01 -0.37187542089E+01  0.41667052442E+02  0.42923350791E+02  0.00000000000E+00 0.  1.
</event>
<event>
 7    1  0.2284751E-015  0.9000777E+02  0.7816164E-02  0.1186339E+00
        -11   -1    0    0    0    0  0.00000000000E+00  0.00000000000E+00  0.45593999997E+02  0.45594000000E+02  0.51100000000E-03 0. -1.
         11   -1    0    0    0    0 -0.00000000000E+00 -0.00000000000E+00 -0.45593999997E+02  0.45594000000E+02  0.51100000000E-03 0.  1.
    9900012    2    1    2    0    0  0.38324911331E+00 -0.63314913912E+00 -0.91934225361E+00  0.90007767864E+02  0.90000029600E+02 0.  0.
         12    1    1    2    0    0 -0.38324911331E+00  0.63314913912E+00  0.91934225361E+00  0.11802321359E+01  0.00000000000E+00 0. -1.
         11    1    3    3    0    0  0.18671196361E+02 -0.22160523747E+02  0.19801276405E+02  0.35096907753E+02  0.51100000000E-03 0. -1.
        -11    1    3    3    0    0 -0.28840502953E+00 -0.12390626376E+02 -0.39298232247E+01  0.13002088689E+02  0.51100000000E-03 0.  1.
        -12    1    3    3    0    0 -0.17999542218E+02  0.33918000984E+02 -0.16790795434E+02  0.41908771422E+02  0.00000000000E+00 0.  1.
</event>
<event>
 7    1  0.2284751E-015  0.9000776E+02  0.7816164E-02  0.1186339E+00
        -11   -1    0    0    0    0  0.00000000000E+00  0.00000000000E+00  0.45593999997E+02  0.45594000000E+02  0.51100000000E-03 0.  1.
         11   -1    0    0    0    0 -0.00000000000E+00 -0.00000000000E+00 -0.45593999997E+02  0.45594000000E+02  0.51100000000E-03 0. -1.
    9900012    2    1    2    0    0 -0.10367219765E+01 -0.44299416835E+00  0.34918314485E+00  0.90007760550E+02  0.90000022190E+02 0.  0.
         12    1    1    2    0    0  0.10367219765E+01  0.44299416835E+00 -0.34918314485E+00  0.11802394496E+01  0.00000000000E+00 0. -1.
         11    1    3    3    0    0  0.78467823389E+01  0.27953722763E+01 -0.28633090165E+01  0.88082142357E+01  0.51100000000E-03 0. -1.
        -11    1    3    3    0    0  0.22020490038E+02 -0.17829679017E+01  0.32036026653E+02  0.38915137929E+02  0.51100000000E-03 0.  1.
         12    1    3    3    0    0 -0.30903994353E+02 -0.14553985429E+01 -0.28823534492E+02  0.42284408386E+02  0.00000000000E+00 0. -1.
</event>
<event>
 7    1  0.2284751E-015  0.9000775E+02  0.7816164E-02  0.1186339E+00
        -11   -1    0    0    0    0  0.00000000000E+00  0.00000000000E+00  0.45593999997E+02  0.45594000000E+02  0.51100000000E-03 0.  1.
         11   -1    0    0    0    0 -0.00000000000E+00 -0.00000000000E+00 -0.45593999997E+02  0.45594000000E+02  0.51100000000E-03 0. -1.
    9900012    2    1    2    0    0  0.89920165529E+00 -0.73703870526E+00  0.20296196057E+00  0.90007752896E+02  0.90000014434E+02 0.  0.
         12    1    1    2    0    0 -0.89920165529E+00  0.73703870526E+00 -0.20296196057E+00  0.11802471044E+01  0.00000000000E+00 0. -1.
         11    1    3    3    0    0  0.34468978052E+02 -0.60539849057E+01 -0.14889904948E+02  0.38032492041E+02  0.51100000000E-03 0. -1.
        -11    1    3    3    0    0 -0.16156721128E+01  0.10306028502E+00 -0.10550223911E+02  0.10673717377E+02  0.51100000000E-03 0.  1.
        -12    1    3    3    0    0 -0.31954104284E+02  0.52138859154E+01  0.25643090819E+02  0.41301543479E+02  0.00000000000E+00 0.  1.
</event>
<event>
 7    1  0.2284751E-015  0.9000773E+02  0.7816164E-02  0.1186339E+00
        -11   -1    0    0    0    0  0.00000000000E+00  0.00000000000E+00  0.45593999997E+02  0.45594000000E+02  0.51100000000E-03 0.  1.
         11   -1    0    0    0    0 -0.00000000000E+00 -0.00000000000E+00 -0.45593999997E+02  0.45594000000E+02  0.51100000000E-03 0. -1.
    9900012    2    1    2    0    0  0.56868048295E+00 -0.10180261994E+01  0.18239074875E+00  0.90007728328E+02  0.89999989542E+02 0.  0.
         12    1    1    2    0    0 -0.56868048295E+00  0.10180261994E+01 -0.18239074875E+00  0.11802716719E+01  0.00000000000E+00 0. -1.
         11    1    3    3    0    0 -0.14730868432E+02  0.30713826597E+02  0.11005165771E+01  0.34081501816E+02  0.51100000000E-03 0. -1.
        -11    1    3    3    0    0  0.16798747797E+01  0.10874034235E+02  0.16338077753E+01  0.11123665220E+02  0.51100000000E-03 0.  1.
        -12    1    3    3    0    0  0.13619674136E+02 -0.42605887031E+02 -0.25519336037E+01  0.44802561293E+02  0.00000000000E+00 0.  1.
</event>
<event>
 7    1  0.2284751E-015  0.9000778E+02  0.7816164E-02  0.1186339E+00
        -11   -1    0    0    0    0  0.00000000000E+00  0.00000000000E+00  0.45593999997E+02  0.45594000000E+02  0.51100000000E-03 0.  1.
         11   -1    0    0    0    0 -0.00000000000E+00 -0.00000000000E+00 -0.45593999997E+02  0.45594000000E+02  0.51100000000E-03 0. -1.
    9900012    2    1    2    0    0  0.75725137385E+00 -0.89571598066E-01  0.90082020574E+00  0.90007775548E+02  0.90000037385E+02 0.  0.
         12    1    1    2    0    0 -0.75725137385E+00  0.89571598066E-01 -0.90082020574E+00  0.11802244521E+01  0.00000000000E+00 0. -1.
         11    1    3    3    0    0 -0.83247053333E+01  0.49975752700E+01  0.51043230143E+01  0.10969530125E+02  0.51100000000E-03 0. -1.
        -11    1    3    3    0    0 -0.12862268512E+02 -0.23314450743E+02 -0.30326806803E+02  0.40357363341E+02  0.51100000000E-03 0.  1.
         12    1    3    3    0    0  0.21944225220E+02  0.18227303874E+02  0.26123303995E+02  0.38680882082E+02  0.00000000000E+00 0. -1.
</event>
<event>
 7    1  0.2284751E-015  0.9000699E+02  0.7816164E-02  0.1186341E+00
        -11   -1    0    0    0    0  0.00000000000E+00  0.00000000000E+00  0.45593999997E+02  0.45594000000E+02  0.51100000000E-03 0. -1.
         11   -1    0    0    0    0 -0.00000000000E+00 -0.00000000000E+00 -0.45593999997E+02  0.45594000000E+02  0.51100000000E-03 0.  1.
    9900012    2    1    2    0    0 -0.98963603018E+00  0.56794882277E+00 -0.30469007533E+00  0.90006991372E+02  0.89999242855E+02 0.  0.
         12    1    1    2    0    0  0.98963603018E+00 -0.56794882277E+00  0.30469007533E+00  0.11810086280E+01  0.00000000000E+00 0. -1.
         11    1    3    3    0    0 -0.81547104369E+01 -0.73409009239E+01 -0.28571682138E+01  0.11338057115E+02  0.51100000000E-03 0. -1.
        -11    1    3    3    0    0  0.94950735241E+01 -0.20391526257E+02 -0.28685693947E+02  0.36453255024E+02  0.51100000000E-03 0.  1.
         12    1    3    3    0    0 -0.23299991174E+01  0.28300376004E+02  0.31238172086E+02  0.42215679233E+02  0.00000000000E+00 0. -1.
</event>
<event>
 7    1  0.2284751E-015  0.9000773E+02  0.7816164E-02  0.1186339E+00
        -11   -1    0    0    0    0  0.00000000000E+00  0.00000000000E+00  0.45593999997E+02  0.45594000000E+02  0.51100000000E-03 0. -1.
         11   -1    0    0    0    0 -0.00000000000E+00 -0.00000000000E+00 -0.45593999997E+02  0.45594000000E+02  0.51100000000E-03 0.  1.
    9900012    2    1    2    0    0  0.56299912459E+00 -0.10342958958E+01  0.79385926005E-01  0.90007729633E+02  0.89999990864E+02 0.  0.
         12    1    1    2    0    0 -0.56299912459E+00  0.10342958958E+01 -0.79385926005E-01  0.11802703672E+01  0.00000000000E+00 0. -1.
         11    1    3    3    0    0  0.34292241659E+02  0.28438886943E+01 -0.12638979793E+02  0.36657732491E+02  0.51100000000E-03 0. -1.
        -11    1    3    3    0    0  0.87831541817E+01 -0.30128306838E+01  0.19932498492E+01  0.94970517179E+01  0.51100000000E-03 0.  1.
        -12    1    3    3    0    0 -0.42512396716E+02 -0.86535390626E+00  0.10725115870E+02  0.43852945424E+02  0.00000000000E+00 0.  1.
</event>
<event>
 7    1  0.2284751E-015  0.9000734E+02  0.7816164E-02  0.1186340E+00
        -11   -1    0    0    0    0  0.00000000000E+00  0.00000000000E+00  0.45593999997E+02  0.45594000000E+02  0.51100000000E-03 0. -1.
         11   -1    0    0    0    0 -0.00000000000E+00 -0.00000000000E+00 -0.45593999997E+02  0.45594000000E+02  0.51100000000E-03 0.  1.
    9900012    2    1    2    0    0  0.85521480156E+00 -0.41072597973E+00 -0.70275680543E+00  0.90007341152E+02  0.89999597255E+02 0.  0.
         12    1    1    2    0    0 -0.85521480156E+00  0.41072597973E+00  0.70275680543E+00  0.11806588478E+01  0.00000000000E+00 0. -1.
         11    1    3    3    0    0 -0.90834984154E+01  0.47674627037E+01 -0.33491683534E+01  0.10791458336E+02  0.51100000000E-03 0. -1.
        -11    1    3    3    0    0  0.12233579262E+02  0.11488642358E+02 -0.34539662405E+02  0.38401010978E+02  0.51100000000E-03 0.  1.
         12    1    3    3    0    0 -0.22948660453E+01 -0.16666831042E+02  0.37186073953E+02  0.40814871838E+02  0.00000000000E+00 0. -1.
</event>
<event>
 7    1  0.2284751E-015  0.9000777E+02  0.7816164E-02  0.1186339E+00
        -11   -1    0    0    0    0  0.00000000000E+00  0.00000000000E+00  0.45593999997E+02  0.45594000000E+02  0.51100000000E-03 0. -1.
         11   -1    0    0    0    0 -0.00000000000E+00 -0.00000000000E+00 -0.45593999997E+02  0.45594000000E+02  0.51100000000E-03 0.  1.
    9900012    2    1    2    0    0  0.94473904090E+00 -0.68987657851E+00 -0.15646806816E+00  0.90007769597E+02  0.90000031355E+02 0.  0.
         12    1    1    2    0    0 -0.94473904090E+00  0.68987657851E+00  0.15646806816E+00  0.11802304035E+01  0.00000000000E+00 0. -1.
         11    1    3    3    0    0 -0.28408808161E+01 -0.81089327836E+00  0.92910540864E+01  0.97494532164E+01  0.51100000000E-03 0. -1.
        -11    1    3    3    0    0  0.13703012312E+02  0.24970376660E+02  0.24126100142E+02  0.37327750606E+02  0.51100000000E-03 0.  1.
         12    1    3    3    0    0 -0.99173924553E+01 -0.24849359960E+02 -0.33573622297E+02  0.42930565774E+02  0.00000000000E+00 0. -1.
</event>
<event>
 7    1  0.2284751E-015  0.9000772E+02  0.7816164E-02  0.1186339E+00
        -11   -1    0    0    0    0  0.00000000000E+00  0.00000000000E+00  0.45593999997E+02  0.45594000000E+02  0.51100000000E-03 0.  1.
         11   -1    0    0    0    0 -0.00000000000E+00 -0.00000000000E+00 -0.45593999997E+02  0.45594000000E+02  0.51100000000E-03 0. -1.
    9900012    2    1    2    0    0 -0.11750895308E+01  0.95617483928E-01 -0.55622547742E-01  0.90007715299E+02  0.89999976341E+02 0.  0.
         12    1    1    2    0    0  0.11750895308E+01 -0.95617483928E-01  0.55622547742E-01  0.11802847014E+01  0.00000000000E+00 0. -1.
         11    1    3    3    0    0 -0.21072128353E+02 -0.19023301519E+02 -0.23003689556E+02  0.36538887879E+02  0.51100000000E-03 0. -1.
        -11    1    3    3    0    0 -0.70319861033E+01 -0.71543594290E+01  0.14461012525E+01  0.10135329126E+02  0.51100000000E-03 0.  1.
        -12    1    3    3    0    0  0.26929024925E+02  0.26273278432E+02  0.21501965756E+02  0.43333498293E+02  0.00000000000E+00 0.  1.
</event>
<event>
 7    1  0.2284751E-015  0.9000775E+02  0.7816164E-02  0.1186339E+00
        -11   -1    0    0    0    0  0.00000000000E+00  0.00000000000E+00  0.45593999997E+02  0.45594000000E+02  0.51100000000E-03 0.  1.
         11   -1    0    0    0    0 -0.00000000000E+00 -0.00000000000E+00 -0.45593999997E+02  0.45594000000E+02  0.51100000000E-03 0. -1.
    9900012    2    1    2    0    0  0.87580638245E+00 -0.35757771761E+00  0.70576206824E+00  0.90007746324E+02  0.90000007775E+02 0.  0.
         12    1    1    2    0    0 -0.87580638245E+00  0.35757771761E+00 -0.70576206824E+00  0.11802536764E+01  0.00000000000E+00 0. -1.
         11    1    3    3    0    0  0.31539259358E+02 -0.85923079022E+01 -0.14764158515E+02  0.35868273068E+02  0.51100000000E-03 0. -1.
        -11    1    3    3    0    0  0.15799042854E+01 -0.12039000998E+02  0.98592642126E+01  0.15640931355E+02  0.51100000000E-03 0.  1.
        -12    1    3    3    0    0 -0.32243357261E+02  0.20273731183E+02  0.56106563706E+01  0.38498541900E+02  0.00000000000E+00 0.  1.
</event>
<event>
 7    1  0.2284751E-015  0.9000716E+02  0.7816164E-02  0.1186340E+00
        -11   -1    0    0    0    0  0.00000000000E+00  0.00000000000E+00  0.45593999997E+02  0.45594000000E+02  0.51100000000E-03 0.  1.
         11   -1    0    0    0    0 -0.00000000000E+00 -0.00000000000E+00 -0.45593999997E+02  0.45594000000E+02  0.51100000000E-03 0. -1.
    9900012    2    1    2    0    0  0.39339074265E+00 -0.10151654773E+01 -0.45724040305E+00  0.90007158771E+02  0.89999412465E+02 0.  0.
         12    1    1    2    0    0 -0.39339074265E+00  0.10151654773E+01  0.45724040305E+00  0.11808412293E+01  0.00000000000E+00 0. -1.
         11    1    3    3    0    0  0.81084690562E+01  0.32578533249E+01  0.56458298155E+01  0.10403666339E+02  0.51100000000E-03 0. -1.
        -11    1    3    3    0    0 -0.12062400917E+02 -0.21074029866E+02  0.30564807656E+02  0.39036184727E+02  0.51100000000E-03 0.  1.
         12    1    3    3    0    0  0.43473226034E+01  0.16801011064E+02 -0.36667877875E+02  0.40567307705E+02  0.00000000000E+00 0. -1.
</event>
<event>
 7    1  0.2284751E-015  0.9000774E+02  0.7816164E-02  0.1186339E+00
        -11   -1    0    0    0    0  0.00000000000E+00  0.00000000000E+00  0.45593999997E+02  0.45594000000E+02  0.51100000000E-03 0.  1.
         11   -1    0    0    0    0 -0.00000000000E+00 -0.00000000000E+00 -0.45593999997E+02  0.45594000000E+02  0.51100000000E-03 0. -1.
    9900012    2    1    2    0    0 -0.79130827092E-01 -0.75137617803E+00  0.90675045020E+00  0.90007735526E+02  0.89999996835E+02 0.  0.
         12    1    1    2    0    0  0.79130827092E-01  0.75137617803E+00 -0.90675045020E+00  0.11802644736E+01  0.00000000000E+00 0. -1.
         11    1    3    3    0    0 -0.15659175260E+01  0.61814592033E+01  0.66983147476E+01  0.92482407138E+01  0.51100000000E-03 0. -1.
        -11    1    3    3    0    0 -0.99110382989E+01  0.12478204867E+01  0.35641846354E+02  0.37015225893E+02  0.51100000000E-03 0.  1.
         12    1    3    3    0    0  0.11397824998E+02 -0.81806558680E+01 -0.41433410651E+02  0.43744268920E+02  0.00000000000E+00 0. -1.
</event>
<event>
 7    1  0.2284751E-015  0.9000865E+02  0.7816164E-02  0.1186337E+00
        -11   -1    0    0    0    0  0.00000000000E+00  0.00000000000E+00  0.45593999997E+02  0.45594000000E+02  0.51100000000E-03 0.  1.
         11   -1    0    0    0    0 -0.00000000000E+00 -0.00000000000E+00 -0.45593999997E+02  0.45594000000E+02  0.51100000000E-03 0. -1.
    9900012    2    1    2    0    0  0.40058118271E+00  0.11092026041E+01  0.82392594284E-02  0.90008651202E+02  0.90000924594E+02 0.  0.
         12    1    1    2    0    0 -0.40058118271E+00 -0.11092026041E+01 -0.82392594284E-02  0.11793487976E+01  0.00000000000E+00 0. -1.
         11    1    3    3    0    0 -0.15122357149E+01 -0.14430074846E+02 -0.35024480423E+02  0.37910791947E+02  0.51100000000E-03 0. -1.
        -11    1    3    3    0    0  0.27828787999E+01 -0.92179403592E+01  0.55704225539E+00  0.96449538731E+01  0.51100000000E-03 0.  1.
        -12    1    3    3    0    0 -0.87006190226E+00  0.24757217809E+02  0.34475677427E+02  0.42452905382E+02  0.00000000000E+00 0.  1.
</event>
<event>
 7    1  0.2981512E-015  0.9000837E+02  0.7816164E-02  0.1186338E+00
        -11   -1    0    0    0    0  0.00000000000E+00  0.00000000000E+00  0.45593999997E+02  0.45594000000E+02  0.51100000000E-03 0.  1.
         11   -1    0    0    0    0 -0.00000000000E+00 -0.00000000000E+00 -0.45593999997E+02  0.45594000000E+02  0.51100000000E-03 0. -1.
    9900012    2    1    2    0    0  0.76767655533E-01  0.94727565280E+00  0.69878124197E+00  0.90008373085E+02  0.90000642807E+02 0.  0.
         12    1    1    2    0    0 -0.76767655533E-01 -0.94727565280E+00 -0.69878124197E+00  0.11796269154E+01  0.00000000000E+00 0. -1.
         11    1    3    3    0    0 -0.22428435582E+02 -0.28186937140E+02 -0.16270178562E+02  0.39525395111E+02  0.51100000000E-03 0. -1.
        -11    1    3    3    0    0  0.89164723680E+01 -0.46734678701E+01 -0.49151153854E+00  0.10079006165E+02  0.51100000000E-03 0.  1.
        -12    1    3    3    0    0  0.13588730869E+02  0.33807680663E+02  0.17460471342E+02  0.40403971809E+02  0.00000000000E+00 0.  1.
</event>
<event>
 7    1  0.2284751E-015  0.9000786E+02  0.7816164E-02  0.1186339E+00
        -11   -1    0    0    0    0  0.00000000000E+00  0.00000000000E+00  0.45593999997E+02  0.45594000000E+02  0.51100000000E-03 0.  1.
         11   -1    0    0    0    0 -0.00000000000E+00 -0.00000000000E+00 -0.45593999997E+02  0.45594000000E+02  0.51100000000E-03 0. -1.
    9900012    2    1    2    0    0  0.36199599096E-01 -0.75877037434E+00  0.90314851848E+00  0.90007864356E+02  0.90000127365E+02 0.  0.
         12    1    1    2    0    0 -0.36199599096E-01  0.75877037434E+00 -0.90314851848E+00  0.11801356441E+01  0.00000000000E+00 0. -1.
         11    1    3    3    0    0  0.71865830545E+01 -0.25369928370E+02  0.79902356550E+01  0.27552206946E+02  0.51100000000E-03 0. -1.
        -11    1    3    3    0    0 -0.99985448468E+00 -0.17117673406E+02  0.61989913940E+01  0.18232990604E+02  0.51100000000E-03 0.  1.
        -12    1    3    3    0    0 -0.61505289707E+01  0.41728831401E+02 -0.13286078530E+02  0.44222666806E+02  0.00000000000E+00 0.  1.
</event>
<event>
 7    1  0.2284751E-015  0.9000771E+02  0.7816164E-02  0.1186339E+00
        -11   -1    0    0    0    0  0.00000000000E+00  0.00000000000E+00  0.45593999997E+02  0.45594000000E+02  0.51100000000E-03 0. -1.
         11   -1    0    0    0    0 -0.00000000000E+00 -0.00000000000E+00 -0.45593999997E+02  0.45594000000E+02  0.51100000000E-03 0.  1.
    9900012    2    1    2    0    0 -0.43621365805E+00  0.47597377877E+00 -0.98804833670E+00  0.90007714903E+02  0.89999975940E+02 0.  0.
         12    1    1    2    0    0  0.43621365805E+00 -0.47597377877E+00  0.98804833670E+00  0.11802850966E+01  0.00000000000E+00 0. -1.
         11    1    3    3    0    0 -0.99002419316E+01 -0.70587326881E+01 -0.33739222761E+01  0.12618393291E+02  0.51100000000E-03 0. -1.
        -11    1    3    3    0    0  0.12984000257E+02 -0.17559364248E+02 -0.29472930313E+02  0.36682000450E+02  0.51100000000E-03 0.  1.
         12    1    3    3    0    0 -0.35199719836E+01  0.25094070715E+02  0.31858804253E+02  0.40707321163E+02  0.00000000000E+00 0. -1.
</event>
<event>
 7    1  0.2284751E-015  0.9000751E+02  0.7816164E-02  0.1186340E+00
        -11   -1    0    0    0    0  0.00000000000E+00  0.00000000000E+00  0.45593999997E+02  0.45594000000E+02  0.51100000000E-03 0. -1.
         11   -1    0    0    0    0 -0.00000000000E+00 -0.00000000000E+00 -0.45593999997E+02  0.45594000000E+02  0.51100000000E-03 0.  1.
    9900012    2    1    2    0    0 -0.11749130693E+01 -0.90814454749E-01 -0.69978940079E-01  0.90007506443E+02  0.89999764728E+02 0.  0.
         12    1    1    2    0    0  0.11749130693E+01  0.90814454749E-01  0.69978940079E-01  0.11804935568E+01  0.00000000000E+00 0. -1.
         11    1    3    3    0    0 -0.30831546637E+01 -0.35074857244E+02  0.20743854797E+01  0.35271157179E+02  0.51100000000E-03 0. -1.
        -11    1    3    3    0    0 -0.76252026758E+01 -0.76316996774E+01  0.16033487212E+01  0.10906754017E+02  0.51100000000E-03 0.  1.
        -12    1    3    3    0    0  0.95334442702E+01  0.42615742467E+02 -0.37477131410E+01  0.43829595246E+02  0.00000000000E+00 0.  1.
</event>
<event>
 7    1  0.2284751E-015  0.9000773E+02  0.7816164E-02  0.1186339E+00
        -11   -1    0    0    0    0  0.00000000000E+00  0.00000000000E+00  0.45593999997E+02  0.45594000000E+02  0.51100000000E-03 0. -1.
         11   -1    0    0    0    0 -0.00000000000E+00 -0.00000000000E+00 -0.45593999997E+02  0.45594000000E+02  0.51100000000E-03 0.  1.
    9900012    2    1    2    0    0  0.20238787717E+00 -0.11423441861E+01 -0.21707734824E+00  0.90007731527E+02  0.89999992784E+02 0.  0.
         12    1    1    2    0    0 -0.20238787717E+00  0.11423441861E+01  0.21707734824E+00  0.11802684726E+01  0.00000000000E+00 0. -1.
         11    1    3    3    0    0  0.20549961572E+02  0.11209958663E+01  0.20699715482E+02  0.29189651825E+02  0.51100000000E-03 0. -1.
        -11    1    3    3    0    0 -0.13753635903E+02 -0.23317023244E+02 -0.26687148264E+02  0.38013812703E+02  0.51100000000E-03 0.  1.
         12    1    3    3    0    0 -0.65939377921E+01  0.21053683192E+02  0.57703554344E+01  0.22804266999E+02  0.00000000000E+00 0. -1.
</event>
<event>
 7    1  0.2284751E-015  0.9000765E+02  0.7816164E-02  0.1186339E+00
        -11   -1    0    0    0    0  0.00000000000E+00  0.00000000000E+00  0.45593999997E+02  0.45594000000E+02  0.51100000000E-03 0.  1.
         11   -1    0    0    0    0 -0.00000000000E+00 -0.00000000000E+00 -0.45593999997E+02  0.45594000000E+02  0.51100000000E-03 0. -1.
    9900012    2    1    2    0    0 -0.10749207064E+01  0.44363479186E+00  0.20238587651E+00  0.90007649884E+02  0.89999910062E+02 0.  0.
         12    1    1    2    0    0  0.10749207064E+01 -0.44363479186E+00 -0.20238587651E+00  0.11803501161E+01  0.00000000000E+00 0. -1.
         11    1    3    3    0    0 -0.56529296929E+01 -0.58732072615E+01 -0.34383865952E+01  0.88471848793E+01  0.51100000000E-03 0. -1.
        -11    1    3    3    0    0  0.49507764495E+01 -0.32990528493E+02  0.19649231699E+02  0.38716630333E+02  0.51100000000E-03 0.  1.
         12    1    3    3    0    0 -0.37276746304E+00  0.39307370546E+02 -0.16008459227E+02  0.42443834672E+02  0.00000000000E+00 0. -1.
</event>
<event>
 7    1  0.2284751E-015  0.9000773E+02  0.7816164E-02  0.1186339E+00
        -11   -1    0    0    0    0  0.00000000000E+00  0.00000000000E+00  0.45593999997E+02  0.45594000000E+02  0.51100000000E-03 0. -1.
         11   -1    0    0    0    0 -0.00000000000E+00 -0.00000000000E+00 -0.45593999997E+02  0.45594000000E+02  0.51100000000E-03 0.  1.
    9900012    2    1    2    0    0  0.71829747845E+00  0.59176748305E+00  0.72587077677E+00  0.90007733756E+02  0.89999995042E+02 0.  0.
         12    1    1    2    0    0 -0.71829747845E+00 -0.59176748305E+00 -0.72587077677E+00  0.11802662437E+01  0.00000000000E+00 0. -1.
         11    1    3    3    0    0 -0.34401278446E+02 -0.10228254846E+01  0.20940376600E+02  0.40286393523E+02  0.51100000000E-03 0. -1.
        -11    1    3    3    0    0 -0.20433283976E+01 -0.29665164737E+01  0.38016287139E+01  0.52371549594E+01  0.51100000000E-03 0.  1.
        -12    1    3    3    0    0  0.37162904322E+02  0.45811094414E+01 -0.24016134537E+02  0.44484185274E+02  0.00000000000E+00 0.  1.
</event>
<event>
 7    1  0.2284751E-015  0.9000838E+02  0.7816164E-02  0.1186338E+00
        -11   -1    0    0    0    0  0.00000000000E+00  0.00000000000E+00  0.45593999997E+02  0.45594000000E+02  0.51100000000E-03 0.  1.
         11   -1    0    0    0    0 -0.00000000000E+00 -0.00000000000E+00 -0.45593999997E+02  0.45594000000E+02  0.51100000000E-03 0. -1.
    9900012    2    1    2    0    0 -0.10311086110E+01  0.31275117182E+00  0.48009796711E+00  0.90008384672E+02  0.90000654548E+02 0.  0.
         12    1    1    2    0    0  0.10311086110E+01 -0.31275117182E+00 -0.48009796711E+00  0.11796153276E+01  0.00000000000E+00 0. -1.
         11    1    3    3    0    0  0.30473573378E+02 -0.77544406229E+01  0.18586755255E+02  0.36527215812E+02  0.51100000000E-03 0. -1.
        -11    1    3    3    0    0  0.36831856602E+01 -0.84597859696E+01  0.23923761612E+01  0.95319095262E+01  0.51100000000E-03 0.  1.
        -12    1    3    3    0    0 -0.35187867649E+02  0.16526977764E+02 -0.20499033449E+02  0.43949259334E+02  0.00000000000E+00 0.  1.
</event>
<event>
 7    1  0.2284751E-015  0.9000774E+02  0.7816164E-02  0.1186339E+00
        -11   -1    0    0    0    0  0.00000000000E+00  0.00000000000E+00  0.45593999997E+02  0.45594000000E+02  0.51100000000E-03 0.  1.
         11   -1    0    0    0    0 -0.00000000000E+00 -0.00000000000E+00 -0.45593999997E+02  0.45594000000E+02  0.51100000000E-03 0. -1.
    9900012    2    1    2    0    0  0.83804650473E+00 -0.61067830378E+00 -0.56371420892E+00  0.90007735774E+02  0.89999997086E+02 0.  0.
         12    1    1    2    0    0 -0.83804650473E+00  0.61067830378E+00  0.56371420892E+00  0.11802642264E+01  0.00000000000E+00 0. -1.
         11    1    3    3    0    0 -0.75788988287E+01 -0.41040652917E+02 -0.22350156573E+01  0.41794379939E+02  0.51100000000E-03 0. -1.
        -11    1    3    3    0    0  0.10671096120E+01 -0.19455408332E+01  0.45982750406E+01  0.51056817045E+01  0.51100000000E-03 0.  1.
        -12    1    3    3    0    0  0.73498357214E+01  0.42375515446E+02 -0.29269735923E+01  0.43107674130E+02  0.00000000000E+00 0.  1.
</event>
<event>
 7    1  0.2284751E-015  0.9000771E+02  0.7816164E-02  0.1186339E+00
        -11   -1    0    0    0    0  0.00000000000E+00  0.00000000000E+00  0.45593999997E+02  0.45594000000E+02  0.51100000000E-03 0.  1.
         11   -1    0    0    0    0 -0.00000000000E+00 -0.00000000000E+00 -0.45593999997E+02  0.45594000000E+02  0.51100000000E-03 0. -1.
    9900012    2    1    2    0    0  0.11870287104E+00  0.92915597373E+00  0.71808989867E+00  0.90007714315E+02  0.89999975344E+02 0.  0.
         12    1    1    2    0    0 -0.11870287104E+00 -0.92915597373E+00 -0.71808989867E+00  0.11802856848E+01  0.00000000000E+00 0. -1.
         11    1    3    3    0    0 -0.20249555652E+02  0.31314080637E+02 -0.31927794236E+00  0.37292332844E+02  0.51100000000E-03 0. -1.
        -11    1    3    3    0    0 -0.96893404734E+01 -0.68774112440E+01  0.74463932959E+01  0.14022513241E+02  0.51100000000E-03 0.  1.
        -12    1    3    3    0    0  0.30057598997E+02 -0.23507513419E+02 -0.64090254549E+01  0.38692868230E+02  0.00000000000E+00 0.  1.
</event>
<event>
 7    1  0.2284751E-015  0.9000773E+02  0.7816164E-02  0.1186339E+00
        -11   -1    0    0    0    0  0.00000000000E+00  0.00000000000E+00  0.45593999997E+02  0.45594000000E+02  0.51100000000E-03 0.  1.
         11   -1    0    0    0    0 -0.00000000000E+00 -0.00000000000E+00 -0.45593999997E+02  0.45594000000E+02  0.51100000000E-03 0. -1.
    9900012    2    1    2    0    0 -0.41773671498E+00 -0.10957052603E+01  0.13398786121E+00  0.90007734467E+02  0.89999995762E+02 0.  0.
         12    1    1    2    0    0  0.41773671498E+00  0.10957052603E+01 -0.13398786121E+00  0.11802655326E+01  0.00000000000E+00 0. -1.
         11    1    3    3    0    0  0.19003621021E+02 -0.35123982626E+02 -0.11557038245E+02  0.41573993081E+02  0.51100000000E-03 0. -1.
        -11    1    3    3    0    0  0.59326538007E+01  0.74564140072E+01  0.60207334523E+01  0.11271367376E+02  0.51100000000E-03 0.  1.
        -12    1    3    3    0    0 -0.25354011536E+02  0.26571863358E+02  0.56702926539E+01  0.37162374011E+02  0.00000000000E+00 0.  1.
</event>
<event>
 7    1  0.2284751E-015  0.9000803E+02  0.7816164E-02  0.1186338E+00
        -11   -1    0    0    0    0  0.00000000000E+00  0.00000000000E+00  0.45593999997E+02  0.45594000000E+02  0.51100000000E-03 0. -1.
         11   -1    0    0    0    0 -0.00000000000E+00 -0.00000000000E+00 -0.45593999997E+02  0.45594000000E+02  0.51100000000E-03 0.  1.
    9900012    2    1    2    0    0 -0.80681890930E+00 -0.82229575488E+00 -0.25535765977E+00  0.90008027714E+02  0.90000292880E+02 0.  0.
         12    1    1    2    0    0  0.80681890930E+00  0.82229575488E+00  0.25535765977E+00  0.11799722858E+01  0.00000000000E+00 0. -1.
         11    1    3    3    0    0  0.28487355285E+02 -0.89033999929E+01  0.26596172414E+01  0.29964537486E+02  0.51100000000E-03 0. -1.
        -11    1    3    3    0    0 -0.20248754211E+01 -0.19492603746E+02 -0.75196030831E+01  0.20990620574E+02  0.51100000000E-03 0.  1.
        -12    1    3    3    0    0 -0.27269298774E+02  0.27573707984E+02  0.46046281819E+01  0.39052869655E+02  0.00000000000E+00 0.  1.
</event>
<event>
 7    1  0.2284751E-015  0.9000769E+02  0.7816164E-02  0.1186339E+00
        -11   -1    0    0    0    0  0.00000000000E+00  0.00000000000E+00  0.45593999997E+02  0.45594000000E+02  0.51100000000E-03 0.  1.
         11   -1    0    0    0    0 -0.00000000000E+00 -0.00000000000E+00 -0.45593999997E+02  0.45594000000E+02  0.51100000000E-03 0. -1.
    9900012    2    1    2    0    0  0.19470222763E+00  0.76459434855E-01  0.11616220671E+01  0.90007694603E+02  0.89999955372E+02 0.  0.
         12    1    1    2    0    0 -0.19470222763E+00 -0.76459434855E-01 -0.11616220671E+01  0.11803053966E+01  0.00000000000E+00 0. -1.
         11    1    3    3    0    0 -0.29508079707E+02 -0.21925187469E+02 -0.15169905386E+02  0.39768915540E+02  0.51100000000E-03 0. -1.
        -11    1    3    3    0    0 -0.53660228784E+01  0.80602365221E+01  0.45912959414E+01  0.10716417919E+02  0.51100000000E-03 0.  1.
        -12    1    3    3    0    0  0.35068804813E+02  0.13941410382E+02  0.11740231512E+02  0.39522361144E+02  0.00000000000E+00 0.  1.
</event>
<event>
 7    1  0.2284751E-015  0.9000773E+02  0.7816164E-02  0.1186339E+00
        -11   -1    0    0    0    0  0.00000000000E+00  0.00000000000E+00  0.45593999997E+02  0.45594000000E+02  0.51100000000E-03 0.  1.
         11   -1    0    0    0    0 -0.00000000000E+00 -0.00000000000E+00 -0.45593999997E+02  0.45594000000E+02  0.51100000000E-03 0. -1.
    9900012    2    1    2    0    0  0.28358369055E+00 -0.75982559755E+00  0.85748165025E+00  0.90007733323E+02  0.89999994603E+02 0.  0.
         12    1    1    2    0    0 -0.28358369055E+00  0.75982559755E+00 -0.85748165025E+00  0.11802666770E+01  0.00000000000E+00 0. -1.
         11    1    3    3    0    0  0.19710148817E+02  0.21534575189E+02 -0.31810294406E+02  0.43175487552E+02  0.51100000000E-03 0. -1.
        -11    1    3    3    0    0  0.19343472225E+01 -0.65185198529E+01  0.88527575454E+01  0.11162621407E+02  0.51100000000E-03 0.  1.
        -12    1    3    3    0    0 -0.21360912349E+02 -0.15775880933E+02  0.23815018510E+02  0.35669624364E+02  0.00000000000E+00 0.  1.
</event>
<event>
 7    1  0.2284751E-015  0.9000774E+02  0.7816164E-02  0.1186339E+00
        -11   -1    0    0    0    0  0.00000000000E+00  0.00000000000E+00  0.45593999997E+02  0.45594000000E+02  0.51100000000E-03 0. -1.
         11   -1    0    0    0    0 -0.00000000000E+00 -0.00000000000E+00 -0.45593999997E+02  0.45594000000E+02  0.51100000000E-03 0.  1.
    9900012    2    1    2    0    0  0.52983466003E+00  0.10317707385E+01 -0.21849406778E+00  0.90007739316E+02  0.90000000675E+02 0.  0.
         12    1    1    2    0    0 -0.52983466003E+00 -0.10317707385E+01  0.21849406778E+00  0.11802606837E+01  0.00000000000E+00 0. -1.
         11    1    3    3    0    0 -0.20291732454E+01  0.25478576100E+02  0.27067249371E+02  0.37227830624E+02  0.51100000000E-03 0. -1.
        -11    1    3    3    0    0 -0.49692166182E+01  0.71393831181E+01  0.21416903354E+01  0.89582778958E+01  0.51100000000E-03 0.  1.
        -12    1    3    3    0    0  0.75282245236E+01 -0.31586188479E+02 -0.29427433775E+02  0.43821630797E+02  0.00000000000E+00 0.  1.
</event>
<event>
 7    1  0.2284751E-015  0.9000772E+02  0.7816164E-02  0.1186339E+00
        -11   -1    0    0    0    0  0.00000000000E+00  0.00000000000E+00  0.45593999997E+02  0.45594000000E+02  0.51100000000E-03 0. -1.
         11   -1    0    0    0    0 -0.00000000000E+00 -0.00000000000E+00 -0.45593999997E+02  0.45594000000E+02  0.51100000000E-03 0.  1.
    9900012    2    1    2    0    0  0.64928827587E+00  0.97347101728E+00  0.15439325991E+00  0.90007721065E+02  0.89999982183E+02 0.  0.
         12    1    1    2    0    0 -0.64928827587E+00 -0.97347101728E+00 -0.15439325991E+00  0.11802789354E+01  0.00000000000E+00 0. -1.
         11    1    3    3    0    0  0.25273628390E+02  0.20028514477E+02  0.22898679231E+02  0.39550565039E+02  0.51100000000E-03 0. -1.
        -11    1    3    3    0    0 -0.64208560397E+01  0.30890138651E+01  0.64002386881E+01  0.95777061172E+01  0.51100000000E-03 0.  1.
        -12    1    3    3    0    0 -0.18203484074E+02 -0.22144057325E+02 -0.29144524659E+02  0.40879449908E+02  0.00000000000E+00 0.  1.
</event>
<event>
 7    1  0.2284751E-015  0.9000767E+02  0.7816164E-02  0.1186339E+00
        -11   -1    0    0    0    0  0.00000000000E+00  0.00000000000E+00  0.45593999997E+02  0.45594000000E+02  0.51100000000E-03 0. -1.
         11   -1    0    0    0    0 -0.00000000000E+00 -0.00000000000E+00 -0.45593999997E+02  0.45594000000E+02  0.51100000000E-03 0.  1.
    9900012    2    1    2    0    0 -0.11241383949E+01  0.21259514561E+00 -0.29033065095E+00  0.90007671353E+02  0.89999931815E+02 0.  0.
         12    1    1    2    0    0  0.11241383949E+01 -0.21259514561E+00  0.29033065095E+00  0.11803286465E+01  0.00000000000E+00 0. -1.
         11    1    3    3    0    0  0.29296220054E+01 -0.30972608149E+02 -0.26012613406E+02  0.40552943137E+02  0.51100000000E-03 0. -1.
        -11    1    3    3    0    0 -0.76061135889E+01  0.38076486087E+01 -0.35506260932E+01  0.92172717097E+01  0.51100000000E-03 0.  1.
        -12    1    3    3    0    0  0.35523531886E+01  0.27377554685E+02  0.29272908848E+02  0.40237456507E+02  0.00000000000E+00 0.  1.
</event>
<event>
 7    1  0.2284751E-015  0.9000729E+02  0.7816164E-02  0.1186340E+00
        -11   -1    0    0    0    0  0.00000000000E+00  0.00000000000E+00  0.45593999997E+02  0.45594000000E+02  0.51100000000E-03 0.  1.
         11   -1    0    0    0    0 -0.00000000000E+00 -0.00000000000E+00 -0.45593999997E+02  0.45594000000E+02  0.51100000000E-03 0. -1.
    9900012    2    1    2    0    0  0.85378860125E+00  0.74215211088E+00  0.33814311889E+00  0.90007286021E+02  0.89999541395E+02 0.  0.
         12    1    1    2    0    0 -0.85378860125E+00 -0.74215211088E+00 -0.33814311889E+00  0.11807139790E+01  0.00000000000E+00 0. -1.
         11    1    3    3    0    0 -0.36666046052E+02  0.89925908142E+01 -0.12709615007E+02  0.39834657480E+02  0.51100000000E-03 0. -1.
        -11    1    3    3    0    0  0.13002286914E+01 -0.76434110897E+01 -0.54706643439E+01  0.94889670861E+01  0.51100000000E-03 0.  1.
        -12    1    3    3    0    0  0.36219605962E+02 -0.60702761364E+00  0.18518422470E+02  0.40683661455E+02  0.00000000000E+00 0.  1.
</event>
<event>
 7    1  0.2284751E-015  0.9000780E+02  0.7816164E-02  0.1186339E+00
        -11   -1    0    0    0    0  0.00000000000E+00  0.00000000000E+00  0.45593999997E+02  0.45594000000E+02  0.51100000000E-03 0. -1.
         11   -1    0    0    0    0 -0.00000000000E+00 -0.00000000000E+00 -0.45593999997E+02  0.45594000000E+02  0.51100000000E-03 0.  1.
    9900012    2    1    2    0    0 -0.72082087647E+00  0.56190847135E-01 -0.93280289849E+00  0.90007804510E+02  0.90000066729E+02 0.  0.
         12    1    1    2    0    0  0.72082087647E+00 -0.56190847135E-01  0.93280289849E+00  0.11801954900E+01  0.00000000000E+00 0. -1.
         11    1    3    3    0    0 -0.10816153955E+02 -0.48376262530E+01 -0.28074373226E+01  0.12176761422E+02  0.51100000000E-03 0. -1.
        -11    1    3    3    0    0 -0.28739970836E+02  0.10930343334E+02 -0.15992567220E+02  0.34658628588E+02  0.51100000000E-03 0.  1.
         12    1    3    3    0    0  0.38835303915E+02 -0.60365262340E+01  0.17867201644E+02  0.43172414500E+02  0.00000000000E+00 0. -1.
</event>
<event>
 7    1  0.2284751E-015  0.9000774E+02  0.7816164E-02  0.1186339E+00
        -11   -1    0    0    0    0  0.00000000000E+00  0.00000000000E+00  0.45593999997E+02  0.45594000000E+02  0.51100000000E-03 0.  1.
         11   -1    0    0    0    0 -0.00000000000E+00 -0.00000000000E+00 -0.45593999997E+02  0.45594000000E+02  0.51100000000E-03 0. -1.
    9900012    2    1    2    0    0 -0.11222428234E+01 -0.30299785905E+00 -0.20438552409E+00  0.90007741512E+02  0.90000002899E+02 0.  0.
         12    1    1    2    0    0  0.11222428234E+01  0.30299785905E+00  0.20438552409E+00  0.11802584885E+01  0.00000000000E+00 0. -1.
         11    1    3    3    0    0 -0.29953667133E+01 -0.13297562157E+02 -0.38353343228E+02  0.40703517270E+02  0.51100000000E-03 0. -1.
        -11    1    3    3    0    0 -0.35998877645E+01 -0.83541102406E+01  0.94174321226E+01  0.13093447899E+02  0.51100000000E-03 0.  1.
        -12    1    3    3    0    0  0.54730116544E+01  0.21348674539E+02  0.28731525581E+02  0.36210776343E+02  0.00000000000E+00 0.  1.
</event>
<event>
 7    1  0.2284751E-015  0.9000797E+02  0.7816164E-02  0.1186339E+00
        -11   -1    0    0    0    0  0.00000000000E+00  0.00000000000E+00  0.45593999997E+02  0.45594000000E+02  0.51100000000E-03 0.  1.
         11   -1    0    0    0    0 -0.00000000000E+00 -0.00000000000E+00 -0.45593999997E+02  0.45594000000E+02  0.51100000000E-03 0. -1.
    9900012    2    1    2    0    0  0.78976587072E+00 -0.13004566848E+00  0.86708097592E+00  0.90007969735E+02  0.90000234136E+02 0.  0.
         12    1    1    2    0    0 -0.78976587072E+00  0.13004566848E+00 -0.86708097592E+00  0.11800302646E+01  0.00000000000E+00 0. -1.
         11    1    3    3    0    0 -0.28476907750E+02  0.22138558246E+02 -0.15834940639E+02  0.39392834139E+02  0.51100000000E-03 0. -1.
        -11    1    3    3    0    0 -0.38389517554E+01 -0.11572477057E+02  0.41195740928E+00  0.12199569049E+02  0.51100000000E-03 0.  1.
        -12    1    3    3    0    0  0.33105625376E+02 -0.10696126857E+02  0.16290064205E+02  0.38415566547E+02  0.00000000000E+00 0.  1.
</event>
<event>
 7    1  0.2284751E-015  0.9000760E+02  0.7816164E-02  0.1186339E+00
        -11   -1    0    0    0    0  0.00000000000E+00  0.00000000000E+00  0.45593999997E+02  0.45594000000E+02  0.51100000000E-03 0.  1.
         11   -1    0    0    0    0 -0.00000000000E+00 -0.00000000000E+00 -0.45593999997E+02  0.45594000000E+02  0.51100000000E-03 0. -1.
    9900012    2    1    2    0    0 -0.96877197609E+00 -0.54808272482E+00  0.39296780155E+00  0.90007602818E+02  0.89999862375E+02 0.  0.
         12    1    1    2    0    0  0.96877197609E+00  0.54808272482E+00 -0.39296780155E+00  0.11803971823E+01  0.00000000000E+00 0. -1.
         11    1    3    3    0    0 -0.40278790945E+01  0.69331920689E+01 -0.72990575309E+01  0.10842933338E+02  0.51100000000E-03 0. -1.
        -11    1    3    3    0    0 -0.69012304322E+00  0.82762059022E+01  0.41156663886E+02  0.41986221984E+02  0.51100000000E-03 0.  1.
         12    1    3    3    0    0  0.37492301616E+01 -0.15757480696E+02 -0.33464638554E+02  0.37178447496E+02  0.00000000000E+00 0. -1.
</event>
<event>
 7    1  0.2284751E-015  0.9000771E+02  0.7816164E-02  0.1186339E+00
        -11   -1    0    0    0    0  0.00000000000E+00  0.00000000000E+00  0.45593999997E+02  0.45594000000E+02  0.51100000000E-03 0.  1.
         11   -1    0    0    0    0 -0.00000000000E+00 -0.00000000000E+00 -0.45593999997E+02  0.45594000000E+02  0.51100000000E-03 0. -1.
    9900012    2    1    2    0    0  0.10182493647E+01  0.23176731645E+00  0.55003737174E+00  0.90007708101E+02  0.89999969047E+02 0.  0.
         12    1    1    2    0    0 -0.10182493647E+01 -0.23176731645E+00 -0.55003737174E+00  0.11802918995E+01  0.00000000000E+00 0. -1.
         11    1    3    3    0    0  0.20130866844E+02  0.16996588813E+02 -0.30098963857E+02  0.40001043194E+02  0.51100000000E-03 0. -1.
        -11    1    3    3    0    0  0.64983751821E+01  0.22350422286E+01  0.95651580748E+01  0.11777798734E+02  0.51100000000E-03 0.  1.
        -12    1    3    3    0    0 -0.25610992661E+02 -0.18999863725E+02  0.21083843154E+02  0.38228866172E+02  0.00000000000E+00 0.  1.
</event>
<event>
 7    1  0.2284751E-015  0.9000773E+02  0.7816164E-02  0.1186339E+00
        -11   -1    0    0    0    0  0.00000000000E+00  0.00000000000E+00  0.45593999997E+02  0.45594000000E+02  0.51100000000E-03 0. -1.
         11   -1    0    0    0    0 -0.00000000000E+00 -0.00000000000E+00 -0.45593999997E+02  0.45594000000E+02  0.51100000000E-03 0.  1.
    9900012    2    1    2    0    0 -0.56882014267E-02  0.73610241819E+00 -0.92258663525E+00  0.90007726631E+02  0.89999987823E+02 0.  0.
         12    1    1    2    0    0  0.56882014267E-02 -0.73610241819E+00  0.92258663525E+00  0.11802733689E+01  0.00000000000E+00 0. -1.
         11    1    3    3    0    0  0.73665162324E+01 -0.19008411294E+02  0.36893783014E+02  0.42151352133E+02  0.51100000000E-03 0. -1.
        -11    1    3    3    0    0 -0.30038346841E+01  0.49851195107E+01  0.11743082516E+01  0.59374606927E+01  0.51100000000E-03 0.  1.
        -12    1    3    3    0    0 -0.43683697497E+01  0.14759394201E+02 -0.38990677901E+02  0.41918913805E+02  0.00000000000E+00 0.  1.
</event>
<event>
 7    1  0.2284751E-015  0.9000764E+02  0.7816164E-02  0.1186339E+00
        -11   -1    0    0    0    0  0.00000000000E+00  0.00000000000E+00  0.45593999997E+02  0.45594000000E+02  0.51100000000E-03 0. -1.
         11   -1    0    0    0    0 -0.00000000000E+00 -0.00000000000E+00 -0.45593999997E+02  0.45594000000E+02  0.51100000000E-03 0.  1.
    9900012    2    1    2    0    0 -0.23319462947E+00  0.77975114940E+00  0.85490670681E+00  0.90007636892E+02  0.89999896899E+02 0.  0.
         12    1    1    2    0    0  0.23319462947E+00 -0.77975114940E+00 -0.85490670681E+00  0.11803631083E+01  0.00000000000E+00 0. -1.
         11    1    3    3    0    0  0.43458392521E+01 -0.62964528251E+01 -0.39993343314E+01  0.86328623492E+01  0.51100000000E-03 0. -1.
        -11    1    3    3    0    0 -0.41360666257E+02  0.13647842200E+02 -0.93853651568E+00  0.43564310634E+02  0.51100000000E-03 0.  1.
         12    1    3    3    0    0  0.36781632376E+02 -0.65716382259E+01  0.57927775539E+01  0.37810463908E+02  0.00000000000E+00 0. -1.
</event>
<event>
 7    1  0.2284751E-015  0.9000775E+02  0.7816164E-02  0.1186339E+00
        -11   -1    0    0    0    0  0.00000000000E+00  0.00000000000E+00  0.45593999997E+02  0.45594000000E+02  0.51100000000E-03 0.  1.
         11   -1    0    0    0    0 -0.00000000000E+00 -0.00000000000E+00 -0.45593999997E+02  0.45594000000E+02  0.51100000000E-03 0. -1.
    9900012    2    1    2    0    0  0.98380961740E+00  0.62590420039E+00  0.18260777784E+00  0.90007752978E+02  0.90000014518E+02 0.  0.
         12    1    1    2    0    0 -0.98380961740E+00 -0.62590420039E+00 -0.18260777784E+00  0.11802470216E+01  0.00000000000E+00 0. -1.
         11    1    3    3    0    0 -0.71259384693E+01  0.31775233052E+02 -0.20408819061E+02  0.38431293633E+02  0.51100000000E-03 0. -1.
        -11    1    3    3    0    0  0.81369735735E+01  0.98207472103E+00 -0.57631126861E+01  0.10019395081E+02  0.51100000000E-03 0.  1.
        -12    1    3    3    0    0 -0.27225486833E-01 -0.32131403572E+02  0.26354539525E+02  0.41557064265E+02  0.00000000000E+00 0.  1.
</event>
<event>
 7    1  0.2284751E-015  0.9000784E+02  0.7816164E-02  0.1186339E+00
        -11   -1    0    0    0    0  0.00000000000E+00  0.00000000000E+00  0.45593999997E+02  0.45594000000E+02  0.51100000000E-03 0.  1.
         11   -1    0    0    0    0 -0.00000000000E+00 -0.00000000000E+00 -0.45593999997E+02  0.45594000000E+02  0.51100000000E-03 0. -1.
    9900012    2    1    2    0    0  0.36185153385E+00  0.41524282895E+00  0.10437482970E+01  0.90007841686E+02  0.90000104396E+02 0.  0.
         12    1    1    2    0    0 -0.36185153385E+00 -0.41524282895E+00 -0.10437482970E+01  0.11801583144E+01  0.00000000000E+00 0. -1.
         11    1    3    3    0    0  0.19274144450E+02  0.36689853060E+01 -0.70768819313E+01  0.20857525155E+02  0.51100000000E-03 0. -1.
        -11    1    3    3    0    0  0.37622059335E+01  0.95553287880E+01  0.32128763124E+02  0.33730044795E+02  0.51100000000E-03 0.  1.
         12    1    3    3    0    0 -0.22674498850E+02 -0.12809071265E+02 -0.24008132895E+02  0.35420271736E+02  0.00000000000E+00 0. -1.
</event>
<event>
 7    1  0.2284751E-015  0.9000829E+02  0.7816164E-02  0.1186338E+00
        -11   -1    0    0    0    0  0.00000000000E+00  0.00000000000E+00  0.45593999997E+02  0.45594000000E+02  0.51100000000E-03 0.  1.
         11   -1    0    0    0    0 -0.00000000000E+00 -0.00000000000E+00 -0.45593999997E+02  0.45594000000E+02  0.51100000000E-03 0. -1.
    9900012    2    1    2    0    0  0.10950120031E+01  0.39362368707E+00  0.19419929333E+00  0.90008294842E+02  0.90000563532E+02 0.  0.
         12    1    1    2    0    0 -0.10950120031E+01 -0.39362368707E+00 -0.19419929333E+00  0.11797051579E+01  0.00000000000E+00 0. -1.
         11    1    3    3    0    0  0.35129410756E+02 -0.48342248858E+01  0.15475230223E+02  0.38690153542E+02  0.51100000000E-03 0. -1.
        -11    1    3    3    0    0  0.55786091832E+00  0.37282420982E+01  0.85100049935E+01  0.93075873994E+01  0.51100000000E-03 0.  1.
        -12    1    3    3    0    0 -0.34592259672E+02  0.14996064747E+01 -0.23791035923E+02  0.42010553901E+02  0.00000000000E+00 0.  1.
</event>
<event>
 7    1  0.2284751E-015  0.9000780E+02  0.7816164E-02  0.1186339E+00
        -11   -1    0    0    0    0  0.00000000000E+00  0.00000000000E+00  0.45593999997E+02  0.45594000000E+02  0.51100000000E-03 0. -1.
         11   -1    0    0    0    0 -0.00000000000E+00 -0.00000000000E+00 -0.45593999997E+02  0.45594000000E+02  0.51100000000E-03 0.  1.
    9900012    2    1    2    0    0  0.21656522673E+00  0.10073477144E+01  0.57552228394E+00  0.90007798401E+02  0.90000060540E+02 0.  0.
         12    1    1    2    0    0 -0.21656522673E+00 -0.10073477144E+01 -0.57552228394E+00  0.11802015990E+01  0.00000000000E+00 0. -1.
         11    1    3    3    0    0 -0.35963098643E+02 -0.87183045759E+01  0.21172233489E+02  0.42633516977E+02  0.51100000000E-03 0. -1.
        -11    1    3    3    0    0  0.50696220224E+01 -0.55529135154E+01 -0.65670791345E+01  0.99831079619E+01  0.51100000000E-03 0.  1.
        -12    1    3    3    0    0  0.31110041847E+02  0.15278565806E+02 -0.14029632071E+02  0.37391173462E+02  0.00000000000E+00 0.  1.
</event>
<event>
 7    1  0.2284751E-015  0.9000769E+02  0.7816164E-02  0.1186339E+00
        -11   -1    0    0    0    0  0.00000000000E+00  0.00000000000E+00  0.45593999997E+02  0.45594000000E+02  0.51100000000E-03 0. -1.
         11   -1    0    0    0    0 -0.00000000000E+00 -0.00000000000E+00 -0.45593999997E+02  0.45594000000E+02  0.51100000000E-03 0.  1.
    9900012    2    1    2    0    0  0.10054685459E+01 -0.58213902343E+00  0.20804657900E+00  0.90007688084E+02  0.89999948767E+02 0.  0.
         12    1    1    2    0    0 -0.10054685459E+01  0.58213902343E+00 -0.20804657900E+00  0.11803119158E+01  0.00000000000E+00 0. -1.
         11    1    3    3    0    0  0.18589646045E+02  0.15416247307E+02  0.10094283485E+02  0.26174991508E+02  0.51100000000E-03 0. -1.
        -11    1    3    3    0    0  0.47750597207E+01  0.15497591284E+02 -0.18143510358E+02  0.24334409780E+02  0.51100000000E-03 0.  1.
        -12    1    3    3    0    0 -0.22359237220E+02 -0.31495977615E+02  0.82572734524E+01  0.39498286796E+02  0.00000000000E+00 0.  1.
</event>
<event>
 7    1  0.2284751E-015  0.9000775E+02  0.7816164E-02  0.1186339E+00
        -11   -1    0    0    0    0  0.00000000000E+00  0.00000000000E+00  0.45593999997E+02  0.45594000000E+02  0.51100000000E-03 0. -1.
         11   -1    0    0    0    0 -0.00000000000E+00 -0.00000000000E+00 -0.45593999997E+02  0.45594000000E+02  0.51100000000E-03 0.  1.
    9900012    2    1    2    0    0  0.92843254555E+00 -0.24282558514E+00  0.68705554739E+00  0.90007747238E+02  0.90000008702E+02 0.  0.
         12    1    1    2    0    0 -0.92843254555E+00  0.24282558514E+00 -0.68705554739E+00  0.11802527618E+01  0.00000000000E+00 0. -1.
         11    1    3    3    0    0  0.16556315153E+02 -0.30113208995E+02  0.15098435757E+02  0.37535046157E+02  0.51100000000E-03 0. -1.
        -11    1    3    3    0    0  0.10944051920E+02  0.99586319337E+00 -0.11371796568E+01  0.11047949753E+02  0.51100000000E-03 0.  1.
        -12    1    3    3    0    0 -0.26571934527E+02  0.28874520217E+02 -0.13274200553E+02  0.41424751328E+02  0.00000000000E+00 0.  1.
</event>
<event>
 7    1  0.2284751E-015  0.9000776E+02  0.7816164E-02  0.1186339E+00
        -11   -1    0    0    0    0  0.00000000000E+00  0.00000000000E+00  0.45593999997E+02  0.45594000000E+02  0.51100000000E-03 0. -1.
         11   -1    0    0    0    0 -0.00000000000E+00 -0.00000000000E+00 -0.45593999997E+02  0.45594000000E+02  0.51100000000E-03 0.  1.
    9900012    2    1    2    0    0  0.42147557579E+00 -0.17876373460E+00 -0.10878317325E+01  0.90007755952E+02  0.90000017531E+02 0.  0.
         12    1    1    2    0    0 -0.42147557579E+00  0.17876373460E+00  0.10878317325E+01  0.11802440477E+01  0.00000000000E+00 0. -1.
         11    1    3    3    0    0  0.22735361496E+01 -0.89845057360E+00 -0.97327366616E+01  0.10035055717E+02  0.51100000000E-03 0. -1.
        -11    1    3    3    0    0 -0.18662917123E+02  0.13620612474E+02 -0.28815249678E+02  0.36934322439E+02  0.51100000000E-03 0.  1.
         12    1    3    3    0    0  0.16810856549E+02 -0.12900925635E+02  0.37460154608E+02  0.43038377797E+02  0.00000000000E+00 0. -1.
</event>
<event>
 7    1  0.2284751E-015  0.9000784E+02  0.7816164E-02  0.1186339E+00
        -11   -1    0    0    0    0  0.00000000000E+00  0.00000000000E+00  0.45593999997E+02  0.45594000000E+02  0.51100000000E-03 0. -1.
         11   -1    0    0    0    0 -0.00000000000E+00 -0.00000000000E+00 -0.45593999997E+02  0.45594000000E+02  0.51100000000E-03 0.  1.
    9900012    2    1    2    0    0  0.54604479628E-01 -0.11704818323E+01 -0.14055875017E+00  0.90007844870E+02  0.90000107622E+02 0.  0.
         12    1    1    2    0    0 -0.54604479628E-01  0.11704818323E+01  0.14055875017E+00  0.11801551302E+01  0.00000000000E+00 0. -1.
         11    1    3    3    0    0 -0.65736231382E+01 -0.87278753377E+00  0.20553655494E+01  0.69425360672E+01  0.51100000000E-03 0. -1.
        -11    1    3    3    0    0 -0.29392370481E+02  0.25131575043E+02  0.23263500110E+01  0.38741701192E+02  0.51100000000E-03 0.  1.
         12    1    3    3    0    0  0.36020598099E+02 -0.25429269341E+02 -0.45222743106E+01  0.44323607610E+02  0.00000000000E+00 0. -1.
</event>
<event>
 7    1  0.2284751E-015  0.9000745E+02  0.7816164E-02  0.1186340E+00
        -11   -1    0    0    0    0  0.00000000000E+00  0.00000000000E+00  0.45593999997E+02  0.45594000000E+02  0.51100000000E-03 0. -1.
         11   -1    0    0    0    0 -0.00000000000E+00 -0.00000000000E+00 -0.45593999997E+02  0.45594000000E+02  0.51100000000E-03 0.  1.
    9900012    2    1    2    0    0 -0.38707104212E+00 -0.96857524186E+00 -0.55292720055E+00  0.90007453313E+02  0.89999710896E+02 0.  0.
         12    1    1    2    0    0  0.38707104212E+00  0.96857524186E+00  0.55292720055E+00  0.11805466869E+01  0.00000000000E+00 0. -1.
         11    1    3    3    0    0  0.16457966444E+01 -0.22609596596E+01  0.97544830954E+01  0.10147439376E+02  0.51100000000E-03 0. -1.
        -11    1    3    3    0    0  0.31789757946E+02  0.20123588094E+02 -0.15712560757E+02  0.40772933103E+02  0.51100000000E-03 0.  1.
         12    1    3    3    0    0 -0.33822625633E+02 -0.18831203676E+02  0.54051504612E+01  0.39087080833E+02  0.00000000000E+00 0. -1.
</event>
<event>
 7    1  0.2745675E-015  0.9000763E+02  0.7816164E-02  0.1186339E+00
        -11   -1    0    0    0    0  0.00000000000E+00  0.00000000000E+00  0.45593999997E+02  0.45594000000E+02  0.51100000000E-03 0.  1.
         11   -1    0    0    0    0 -0.00000000000E+00 -0.00000000000E+00 -0.45593999997E+02  0.45594000000E+02  0.51100000000E-03 0. -1.
    9900012    2    1    2    0    0  0.21133814357E+00 -0.11428281601E+01  0.20630634280E+00  0.90007626194E+02  0.89999886060E+02 0.  0.
         12    1    1    2    0    0 -0.21133814357E+00  0.11428281601E+01 -0.20630634280E+00  0.11803738058E+01  0.00000000000E+00 0. -1.
         11    1    3    3    0    0  0.10382201120E+01  0.67373146022E+01 -0.34505420041E+02  0.35172337448E+02  0.51100000000E-03 0. -1.
        -11    1    3    3    0    0 -0.19026884334E+01 -0.64101880461E-01 -0.96202037896E+01  0.98067657023E+01  0.51100000000E-03 0.  1.
        -12    1    3    3    0    0  0.10758064649E+01 -0.78160408819E+01  0.44331930174E+02  0.45028523044E+02  0.00000000000E+00 0.  1.
</event>
<event>
 7    1  0.2284751E-015  0.9000767E+02  0.7816164E-02  0.1186339E+00
        -11   -1    0    0    0    0  0.00000000000E+00  0.00000000000E+00  0.45593999997E+02  0.45594000000E+02  0.51100000000E-03 0.  1.
         11   -1    0    0    0    0 -0.00000000000E+00 -0.00000000000E+00 -0.45593999997E+02  0.45594000000E+02  0.51100000000E-03 0. -1.
    9900012    2    1    2    0    0  0.10971391151E+01 -0.34113297840E+00 -0.27036683847E+00  0.90007667770E+02  0.89999928184E+02 0.  0.
         12    1    1    2    0    0 -0.10971391151E+01  0.34113297840E+00  0.27036683847E+00  0.11803322304E+01  0.00000000000E+00 0. -1.
         11    1    3    3    0    0 -0.27151651865E+02 -0.20434320226E+02  0.17843486588E+00  0.33982429009E+02  0.51100000000E-03 0. -1.
        -11    1    3    3    0    0 -0.10825635594E+02 -0.10845425328E+01 -0.36240418557E+01  0.11467532348E+02  0.51100000000E-03 0.  1.
        -12    1    3    3    0    0  0.39074426574E+02  0.21177729780E+02  0.31752401514E+01  0.44557706413E+02  0.00000000000E+00 0.  1.
</event>
<event>
 7    1  0.2284751E-015  0.9000835E+02  0.7816164E-02  0.1186338E+00
        -11   -1    0    0    0    0  0.00000000000E+00  0.00000000000E+00  0.45593999997E+02  0.45594000000E+02  0.51100000000E-03 0.  1.
         11   -1    0    0    0    0 -0.00000000000E+00 -0.00000000000E+00 -0.45593999997E+02  0.45594000000E+02  0.51100000000E-03 0. -1.
    9900012    2    1    2    0    0 -0.68074043211E+00  0.31720882226E+00  0.90969392131E+00  0.90008350898E+02  0.90000620328E+02 0.  0.
         12    1    1    2    0    0  0.68074043211E+00 -0.31720882226E+00 -0.90969392131E+00  0.11796491018E+01  0.00000000000E+00 0. -1.
         11    1    3    3    0    0 -0.17895088003E+02 -0.18836440996E+02 -0.26299408304E+02  0.36968967546E+02  0.51100000000E-03 0. -1.
        -11    1    3    3    0    0 -0.17867489877E+01  0.22367704454E+01 -0.86278714863E+01  0.90904224663E+01  0.51100000000E-03 0.  1.
        -12    1    3    3    0    0  0.19001096558E+02  0.16916879373E+02  0.35836973711E+02  0.43948960886E+02  0.00000000000E+00 0.  1.
</event>
<event>
 7    1  0.2284751E-015  0.9000750E+02  0.7816164E-02  0.1186340E+00
        -11   -1    0    0    0    0  0.00000000000E+00  0.00000000000E+00  0.45593999997E+02  0.45594000000E+02  0.51100000000E-03 0.  1.
         11   -1    0    0    0    0 -0.00000000000E+00 -0.00000000000E+00 -0.45593999997E+02  0.45594000000E+02  0.51100000000E-03 0. -1.
    9900012    2    1    2    0    0  0.52353481486E+00  0.10323322986E+01 -0.23192048382E+00  0.90007497654E+02  0.89999755823E+02 0.  0.
         12    1    1    2    0    0 -0.52353481486E+00 -0.10323322986E+01  0.23192048382E+00  0.11805023455E+01  0.00000000000E+00 0. -1.
         11    1    3    3    0    0 -0.12511281348E+02 -0.54835039900E+01 -0.36943308250E+02  0.39387929645E+02  0.51100000000E-03 0. -1.
        -11    1    3    3    0    0 -0.50473173717E+01  0.75778040930E+01 -0.61995835876E+00  0.91259452196E+01  0.51100000000E-03 0.  1.
        -12    1    3    3    0    0  0.18082133535E+02 -0.10619678044E+01  0.37331346125E+02  0.41493622790E+02  0.00000000000E+00 0.  1.
</event>
<event>
 7    1  0.2284751E-015  0.9000803E+02  0.7816164E-02  0.1186338E+00
        -11   -1    0    0    0    0  0.00000000000E+00  0.00000000000E+00  0.45593999997E+02  0.45594000000E+02  0.51100000000E-03 0. -1.
         11   -1    0    0    0    0 -0.00000000000E+00 -0.00000000000E+00 -0.45593999997E+02  0.45594000000E+02  0.51100000000E-03 0.  1.
    9900012    2    1    2    0    0 -0.76378931298E+00 -0.49522695853E+00  0.75080029196E+00  0.90008031808E+02  0.90000297028E+02 0.  0.
         12    1    1    2    0    0  0.76378931298E+00  0.49522695853E+00 -0.75080029196E+00  0.11799681917E+01  0.00000000000E+00 0. -1.
         11    1    3    3    0    0  0.34042399256E+02 -0.27071436164E+02  0.27305291728E+01  0.43579850767E+02  0.51100000000E-03 0. -1.
        -11    1    3    3    0    0  0.19046042231E+00  0.55581915927E+01 -0.11873281689E+00  0.55627211594E+01  0.51100000000E-03 0.  1.
        -12    1    3    3    0    0 -0.34996648991E+02  0.21018017613E+02 -0.18609960640E+01  0.40865459882E+02  0.00000000000E+00 0.  1.
</event>
<event>
 7    1  0.2284751E-015  0.9000832E+02  0.7816164E-02  0.1186338E+00
        -11   -1    0    0    0    0  0.00000000000E+00  0.00000000000E+00  0.45593999997E+02  0.45594000000E+02  0.51100000000E-03 0. -1.
         11   -1    0    0    0    0 -0.00000000000E+00 -0.00000000000E+00 -0.45593999997E+02  0.45594000000E+02  0.51100000000E-03 0.  1.
    9900012    2    1    2    0    0  0.16257377216E-01  0.45724831882E+00 -0.10873383547E+01  0.90008319948E+02  0.90000588969E+02 0.  0.
         12    1    1    2    0    0 -0.16257377216E-01 -0.45724831882E+00  0.10873383547E+01  0.11796800520E+01  0.00000000000E+00 0. -1.
         11    1    3    3    0    0  0.62342636944E+01 -0.60946064753E+01  0.26591362953E+02  0.27984117922E+02  0.51100000000E-03 0. -1.
        -11    1    3    3    0    0  0.21617691669E+02 -0.68693474199E+01 -0.38627788723E+01  0.23009423894E+02  0.51100000000E-03 0.  1.
         12    1    3    3    0    0 -0.27835697986E+02  0.13421202214E+02 -0.23815922436E+02  0.39014778132E+02  0.00000000000E+00 0. -1.
</event>
<event>
 7    1  0.2289618E-015  0.9000772E+02  0.7816164E-02  0.1186339E+00
        -11   -1    0    0    0    0  0.00000000000E+00  0.00000000000E+00  0.45593999997E+02  0.45594000000E+02  0.51100000000E-03 0.  1.
         11   -1    0    0    0    0 -0.00000000000E+00 -0.00000000000E+00 -0.45593999997E+02  0.45594000000E+02  0.51100000000E-03 0. -1.
    9900012    2    1    2    0    0  0.10744659615E+00 -0.38016464215E+00  0.11122047044E+01  0.90007716462E+02  0.89999977519E+02 0.  0.
         12    1    1    2    0    0 -0.10744659615E+00  0.38016464215E+00 -0.11122047044E+01  0.11802835383E+01  0.00000000000E+00 0. -1.
         11    1    3    3    0    0  0.10062616643E+02 -0.35340281504E+02 -0.16113423696E+02  0.40122738864E+02  0.51100000000E-03 0. -1.
        -11    1    3    3    0    0  0.88345548695E+01  0.36799039057E+01  0.86953850451E-01  0.95707164690E+01  0.51100000000E-03 0.  1.
        -12    1    3    3    0    0 -0.18789724916E+02  0.31280212956E+02  0.17138674550E+02  0.40314261129E+02  0.00000000000E+00 0.  1.
</event>
<event>
 7    1  0.2284751E-015  0.9000769E+02  0.7816164E-02  0.1186339E+00
        -11   -1    0    0    0    0  0.00000000000E+00  0.00000000000E+00  0.45593999997E+02  0.45594000000E+02  0.51100000000E-03 0.  1.
         11   -1    0    0    0    0 -0.00000000000E+00 -0.00000000000E+00 -0.45593999997E+02  0.45594000000E+02  0.51100000000E-03 0. -1.
    9900012    2    1    2    0    0  0.79606571291E+00  0.65953071753E+00  0.56958080503E+00  0.90007693396E+02  0.89999954149E+02 0.  0.
         12    1    1    2    0    0 -0.79606571291E+00 -0.65953071753E+00 -0.56958080503E+00  0.11803066043E+01  0.00000000000E+00 0. -1.
         11    1    3    3    0    0 -0.41546388694E+01 -0.75310578980E+01 -0.13482082301E+01  0.87060624217E+01  0.51100000000E-03 0. -1.
        -11    1    3    3    0    0 -0.30395047807E+02  0.20709107970E+02  0.17457145020E+02  0.40712135741E+02  0.51100000000E-03 0.  1.
         12    1    3    3    0    0  0.35345752389E+02 -0.12518519354E+02 -0.15539355985E+02  0.40589495233E+02  0.00000000000E+00 0. -1.
</event>
<event>
 7    1  0.2284751E-015  0.9000773E+02  0.7816164E-02  0.1186339E+00
        -11   -1    0    0    0    0  0.00000000000E+00  0.00000000000E+00  0.45593999997E+02  0.45594000000E+02  0.51100000000E-03 0.  1.
         11   -1    0    0    0    0 -0.00000000000E+00 -0.00000000000E+00 -0.45593999997E+02  0.45594000000E+02  0.51100000000E-03 0. -1.
    9900012    2    1    2    0    0  0.71530900192E+00  0.49206309125E+00  0.79952017081E+00  0.90007734963E+02  0.89999996265E+02 0.  0.
         12    1    1    2    0    0 -0.71530900192E+00 -0.49206309125E+00 -0.79952017081E+00  0.11802650370E+01  0.00000000000E+00 0. -1.
         11    1    3    3    0    0 -0.39258489221E+02  0.17820830296E+02 -0.13216871828E+01  0.43134183956E+02  0.51100000000E-03 0. -1.
        -11    1    3    3    0    0  0.80056606838E+01  0.50319719887E+00  0.60653795698E+01  0.10056472542E+02  0.51100000000E-03 0.  1.
        -12    1    3    3    0    0  0.31968137539E+02 -0.17831964403E+02 -0.39441722162E+01  0.36817078464E+02  0.00000000000E+00 0.  1.
</event>
<event>
 7    1  0.2284751E-015  0.9000781E+02  0.7816164E-02  0.1186339E+00
        -11   -1    0    0    0    0  0.00000000000E+00  0.00000000000E+00  0.45593999997E+02  0.45594000000E+02  0.51100000000E-03 0.  1.
         11   -1    0    0    0    0 -0.00000000000E+00 -0.00000000000E+00 -0.45593999997E+02  0.45594000000E+02  0.51100000000E-03 0. -1.
    9900012    2    1    2    0    0  0.15342721016E-01 -0.10702392857E+01  0.49720233181E+00  0.90007806081E+02  0.90000068321E+02 0.  0.
         12    1    1    2    0    0 -0.15342721016E-01  0.10702392857E+01 -0.49720233181E+00  0.11801939190E+01  0.00000000000E+00 0. -1.
         11    1    3    3    0    0  0.18670820197E+02  0.24231364341E+02 -0.23052633364E+02  0.38303817694E+02  0.51100000000E-03 0. -1.
        -11    1    3    3    0    0  0.81887754855E+01  0.39555875800E-01  0.86020074313E+01  0.11876537405E+02  0.51100000000E-03 0.  1.
        -12    1    3    3    0    0 -0.26844252961E+02 -0.25341159502E+02  0.14947828265E+02  0.39827450983E+02  0.00000000000E+00 0.  1.
</event>
<event>
 7    1  0.2284751E-015  0.9000784E+02  0.7816164E-02  0.1186339E+00
        -11   -1    0    0    0    0  0.00000000000E+00  0.00000000000E+00  0.45593999997E+02  0.45594000000E+02  0.51100000000E-03 0.  1.
         11   -1    0    0    0    0 -0.00000000000E+00 -0.00000000000E+00 -0.45593999997E+02  0.45594000000E+02  0.51100000000E-03 0. -1.
    9900012    2    1    2    0    0  0.32773844355E+00  0.11243582183E+01  0.14552345918E+00  0.90007842821E+02  0.90000105546E+02 0.  0.
         12    1    1    2    0    0 -0.32773844355E+00 -0.11243582183E+01 -0.14552345918E+00  0.11801571792E+01  0.00000000000E+00 0. -1.
         11    1    3    3    0    0 -0.24763617112E+02 -0.30112718043E+02  0.39664495160E+01  0.39188585614E+02  0.51100000000E-03 0. -1.
        -11    1    3    3    0    0 -0.19674693373E+01  0.90552554165E+00 -0.95301917768E+01  0.97732015053E+01  0.51100000000E-03 0.  1.
        -12    1    3    3    0    0  0.27058824892E+02  0.30331550720E+02  0.57092657200E+01  0.41046055702E+02  0.00000000000E+00 0.  1.
</event>
<event>
 7    1  0.2284751E-015  0.9000788E+02  0.7816164E-02  0.1186339E+00
        -11   -1    0    0    0    0  0.00000000000E+00  0.00000000000E+00  0.45593999997E+02  0.45594000000E+02  0.51100000000E-03 0.  1.
         11   -1    0    0    0    0 -0.00000000000E+00 -0.00000000000E+00 -0.45593999997E+02  0.45594000000E+02  0.51100000000E-03 0. -1.
    9900012    2    1    2    0    0 -0.20757418442E+00 -0.11613064261E+01  0.31072994920E-01  0.90007879164E+02  0.90000142368E+02 0.  0.
         12    1    1    2    0    0  0.20757418442E+00  0.11613064261E+01 -0.31072994920E-01  0.11801208364E+01  0.00000000000E+00 0. -1.
         11    1    3    3    0    0  0.64590889458E+01  0.44080141125E+01  0.52905354567E+01  0.94414079514E+01  0.51100000000E-03 0. -1.
        -11    1    3    3    0    0  0.14389622919E+02  0.23578871527E+02  0.22106193305E+02  0.35379488591E+02  0.51100000000E-03 0.  1.
         12    1    3    3    0    0 -0.21056286049E+02 -0.29148192066E+02 -0.27365655767E+02  0.45186982621E+02  0.00000000000E+00 0. -1.
</event>
<event>
 7    1  0.2284751E-015  0.9000794E+02  0.7816164E-02  0.1186339E+00
        -11   -1    0    0    0    0  0.00000000000E+00  0.00000000000E+00  0.45593999997E+02  0.45594000000E+02  0.51100000000E-03 0. -1.
         11   -1    0    0    0    0 -0.00000000000E+00 -0.00000000000E+00 -0.45593999997E+02  0.45594000000E+02  0.51100000000E-03 0.  1.
    9900012    2    1    2    0    0 -0.56248349307E+00 -0.29606197136E+00 -0.99423244922E+00  0.90007941301E+02  0.90000205326E+02 0.  0.
         12    1    1    2    0    0  0.56248349307E+00  0.29606197136E+00  0.99423244922E+00  0.11800586994E+01  0.00000000000E+00 0. -1.
         11    1    3    3    0    0 -0.14712881280E+02 -0.28019288789E+02  0.32097589759E+01  0.31809620757E+02  0.51100000000E-03 0. -1.
        -11    1    3    3    0    0 -0.13808984849E+02 -0.46565405533E+01 -0.50101624355E+01  0.15410164191E+02  0.51100000000E-03 0.  1.
        -12    1    3    3    0    0  0.27959382636E+02  0.32379767371E+02  0.80617101033E+00  0.42788156353E+02  0.00000000000E+00 0.  1.
</event>
<event>
 7    1  0.2284751E-015  0.9000776E+02  0.7816164E-02  0.1186339E+00
        -11   -1    0    0    0    0  0.00000000000E+00  0.00000000000E+00  0.45593999997E+02  0.45594000000E+02  0.51100000000E-03 0. -1.
         11   -1    0    0    0    0 -0.00000000000E+00 -0.00000000000E+00 -0.45593999997E+02  0.45594000000E+02  0.51100000000E-03 0.  1.
    9900012    2    1    2    0    0 -0.11114124658E+01 -0.17253795345E+00  0.35770093156E+00  0.90007764019E+02  0.90000025704E+02 0.  0.
         12    1    1    2    0    0  0.11114124658E+01  0.17253795345E+00 -0.35770093156E+00  0.11802359810E+01  0.00000000000E+00 0. -1.
         11    1    3    3    0    0  0.17722933119E+02 -0.21063604146E+02  0.22730187205E+02  0.35699288348E+02  0.51100000000E-03 0. -1.
        -11    1    3    3    0    0  0.35058677464E+00  0.20758371255E+01  0.11149052290E+02  0.11346073246E+02  0.51100000000E-03 0.  1.
        -12    1    3    3    0    0 -0.19184932360E+02  0.18815229067E+02 -0.33521538563E+02  0.42962402425E+02  0.00000000000E+00 0.  1.
</event>
<event>
 7    1  0.2284751E-015  0.9000774E+02  0.7816164E-02  0.1186339E+00
        -11   -1    0    0    0    0  0.00000000000E+00  0.00000000000E+00  0.45593999997E+02  0.45594000000E+02  0.51100000000E-03 0.  1.
         11   -1    0    0    0    0 -0.00000000000E+00 -0.00000000000E+00 -0.45593999997E+02  0.45594000000E+02  0.51100000000E-03 0. -1.
    9900012    2    1    2    0    0 -0.86761861316E+00  0.77362567424E+00  0.20431688598E+00  0.90007744040E+02  0.90000005461E+02 0.  0.
         12    1    1    2    0    0  0.86761861316E+00 -0.77362567424E+00 -0.20431688598E+00  0.11802559602E+01  0.00000000000E+00 0. -1.
         11    1    3    3    0    0 -0.50909204701E+01  0.26587401019E+02  0.26927031549E+02  0.38182095182E+02  0.51100000000E-03 0. -1.
        -11    1    3    3    0    0  0.99447460401E+01 -0.16659249112E+01  0.52371405490E+01  0.11362258622E+02  0.51100000000E-03 0.  1.
        -12    1    3    3    0    0 -0.57214441831E+01 -0.24147850434E+02 -0.31959855212E+02  0.40463390235E+02  0.00000000000E+00 0.  1.
</event>
<event>
 7    1  0.2284751E-015  0.9000776E+02  0.7816164E-02  0.1186339E+00
        -11   -1    0    0    0    0  0.00000000000E+00  0.00000000000E+00  0.45593999997E+02  0.45594000000E+02  0.51100000000E-03 0. -1.
         11   -1    0    0    0    0 -0.00000000000E+00 -0.00000000000E+00 -0.45593999997E+02  0.45594000000E+02  0.51100000000E-03 0.  1.
    9900012    2    1    2    0    0 -0.10754888494E+01  0.41817969708E+00 -0.24783632965E+00  0.90007757071E+02  0.90000018665E+02 0.  0.
         12    1    1    2    0    0  0.10754888494E+01 -0.41817969708E+00  0.24783632965E+00  0.11802429286E+01  0.00000000000E+00 0. -1.
         11    1    3    3    0    0  0.18375202656E+01  0.98062426698E+01 -0.82095999966E+01  0.12920387316E+02  0.51100000000E-03 0. -1.
        -11    1    3    3    0    0 -0.15968058877E+02  0.26517405415E+02 -0.12926613972E+02  0.33544731976E+02  0.51100000000E-03 0.  1.
         12    1    3    3    0    0  0.13055049762E+02 -0.35905468388E+02  0.20888377639E+02  0.43542637780E+02  0.00000000000E+00 0. -1.
</event>
<event>
 7    1  0.2284751E-015  0.9000755E+02  0.7816164E-02  0.1186339E+00
        -11   -1    0    0    0    0  0.00000000000E+00  0.00000000000E+00  0.45593999997E+02  0.45594000000E+02  0.51100000000E-03 0.  1.
         11   -1    0    0    0    0 -0.00000000000E+00 -0.00000000000E+00 -0.45593999997E+02  0.45594000000E+02  0.51100000000E-03 0. -1.
    9900012    2    1    2    0    0 -0.19387831077E+00  0.66921152445E+00  0.95290101895E+00  0.90007553806E+02  0.89999812717E+02 0.  0.
         12    1    1    2    0    0  0.19387831077E+00 -0.66921152445E+00 -0.95290101895E+00  0.11804461935E+01  0.00000000000E+00 0. -1.
         11    1    3    3    0    0 -0.37271787146E+01  0.85667090101E+01  0.55538003852E+01  0.10868535477E+02  0.51100000000E-03 0. -1.
        -11    1    3    3    0    0 -0.28679447089E+02  0.91611181066E+01  0.19105415887E+02  0.35657449247E+02  0.51100000000E-03 0.  1.
         12    1    3    3    0    0  0.32212747493E+02 -0.17058615592E+02 -0.23706315253E+02  0.43481569083E+02  0.00000000000E+00 0. -1.
</event>
<event>
 7    1  0.2284751E-015  0.9000772E+02  0.7816164E-02  0.1186339E+00
        -11   -1    0    0    0    0  0.00000000000E+00  0.00000000000E+00  0.45593999997E+02  0.45594000000E+02  0.51100000000E-03 0. -1.
         11   -1    0    0    0    0 -0.00000000000E+00 -0.00000000000E+00 -0.45593999997E+02  0.45594000000E+02  0.51100000000E-03 0.  1.
    9900012    2    1    2    0    0 -0.24066726643E+00 -0.62918157379E+00 -0.96915417669E+00  0.90007724607E+02  0.89999985771E+02 0.  0.
         12    1    1    2    0    0  0.24066726643E+00  0.62918157379E+00  0.96915417669E+00  0.11802753933E+01  0.00000000000E+00 0. -1.
         11    1    3    3    0    0 -0.42155955046E+01 -0.80020506364E+01 -0.69285066358E+01  0.11393342982E+02  0.51100000000E-03 0. -1.
        -11    1    3    3    0    0 -0.17154663221E+02 -0.17859274898E+01 -0.30763211648E+02  0.35268217964E+02  0.51100000000E-03 0.  1.
         12    1    3    3    0    0  0.21129591459E+02  0.91587965524E+01  0.36722564107E+02  0.43346163660E+02  0.00000000000E+00 0. -1.
</event>
<event>
 7    1  0.2284751E-015  0.9000852E+02  0.7816164E-02  0.1186337E+00
        -11   -1    0    0    0    0  0.00000000000E+00  0.00000000000E+00  0.45593999997E+02  0.45594000000E+02  0.51100000000E-03 0. -1.
         11   -1    0    0    0    0 -0.00000000000E+00 -0.00000000000E+00 -0.45593999997E+02  0.45594000000E+02  0.51100000000E-03 0.  1.
    9900012    2    1    2    0    0  0.10614250628E+01 -0.50963391617E+00 -0.69515790479E-01  0.90008516072E+02  0.90000787680E+02 0.  0.
         12    1    1    2    0    0 -0.10614250628E+01  0.50963391617E+00  0.69515790479E-01  0.11794839285E+01  0.00000000000E+00 0. -1.
         11    1    3    3    0    0  0.89475081103E+01 -0.32455656637E+01  0.36455047511E+01  0.10192217767E+02  0.51100000000E-03 0. -1.
        -11    1    3    3    0    0  0.29850251376E+02  0.15804310991E+02 -0.16890624116E+02  0.37763831061E+02  0.51100000000E-03 0.  1.
         12    1    3    3    0    0 -0.37736334423E+02 -0.13068379243E+02  0.13175603575E+02  0.42052467244E+02  0.00000000000E+00 0. -1.
</event>
<event>
 7    1  0.2284751E-015  0.9000774E+02  0.7816164E-02  0.1186339E+00
        -11   -1    0    0    0    0  0.00000000000E+00  0.00000000000E+00  0.45593999997E+02  0.45594000000E+02  0.51100000000E-03 0. -1.
         11   -1    0    0    0    0 -0.00000000000E+00 -0.00000000000E+00 -0.45593999997E+02  0.45594000000E+02  0.51100000000E-03 0.  1.
    9900012    2    1    2    0    0 -0.80036306369E+00 -0.47980223638E+00 -0.72265536965E+00  0.90007736469E+02  0.89999997790E+02 0.  0.
         12    1    1    2    0    0  0.80036306369E+00  0.47980223638E+00  0.72265536965E+00  0.11802635312E+01  0.00000000000E+00 0. -1.
         11    1    3    3    0    0  0.78271941157E+01  0.13361453770E+02  0.35966111063E+02  0.39158071452E+02  0.51100000000E-03 0. -1.
        -11    1    3    3    0    0  0.45216972528E+01 -0.67175770936E+01  0.28441949925E+01  0.85826006240E+01  0.51100000000E-03 0.  1.
        -12    1    3    3    0    0 -0.13149254432E+02 -0.71236789123E+01 -0.39532961425E+02  0.42267064393E+02  0.00000000000E+00 0.  1.
</event>
<event>
 7    1  0.2284751E-015  0.9000774E+02  0.7816164E-02  0.1186339E+00
        -11   -1    0    0    0    0  0.00000000000E+00  0.00000000000E+00  0.45593999997E+02  0.45594000000E+02  0.51100000000E-03 0.  1.
         11   -1    0    0    0    0 -0.00000000000E+00 -0.00000000000E+00 -0.45593999997E+02  0.45594000000E+02  0.51100000000E-03 0. -1.
    9900012    2    1    2    0    0 -0.76867043672E+00 -0.60149156398E+00  0.66359378990E+00  0.90007744494E+02  0.90000005921E+02 0.  0.
         12    1    1    2    0    0  0.76867043672E+00  0.60149156398E+00 -0.66359378990E+00  0.11802555062E+01  0.00000000000E+00 0. -1.
         11    1    3    3    0    0 -0.13686158668E+01 -0.49498708130E+00  0.96207385177E+01  0.97301968884E+01  0.51100000000E-03 0. -1.
        -11    1    3    3    0    0 -0.12980962480E+02  0.19306664197E+02  0.27984042057E+02  0.36391747408E+02  0.51100000000E-03 0.  1.
         12    1    3    3    0    0  0.13580907910E+02 -0.19413168679E+02 -0.36941186785E+02  0.43885800197E+02  0.00000000000E+00 0. -1.
</event>
<event>
 7    1  0.2284751E-015  0.9000767E+02  0.7816164E-02  0.1186339E+00
        -11   -1    0    0    0    0  0.00000000000E+00  0.00000000000E+00  0.45593999997E+02  0.45594000000E+02  0.51100000000E-03 0.  1.
         11   -1    0    0    0    0 -0.00000000000E+00 -0.00000000000E+00 -0.45593999997E+02  0.45594000000E+02  0.51100000000E-03 0. -1.
    9900012    2    1    2    0    0  0.57807413598E+00  0.87476212073E+00  0.54202425522E+00  0.90007674296E+02  0.89999934797E+02 0.  0.
         12    1    1    2    0    0 -0.57807413598E+00 -0.87476212073E+00 -0.54202425522E+00  0.11803257041E+01  0.00000000000E+00 0. -1.
         11    1    3    3    0    0 -0.10036278444E+02  0.14423279550E+02 -0.29683285896E+02  0.34494279813E+02  0.51100000000E-03 0. -1.
        -11    1    3    3    0    0 -0.95250413634E+00  0.77917430032E+01 -0.73670971072E+01  0.10765344547E+02  0.51100000000E-03 0.  1.
        -12    1    3    3    0    0  0.11566856717E+02 -0.21340260433E+02  0.37592407258E+02  0.44748049936E+02  0.00000000000E+00 0.  1.
</event>
<event>
 7    1  0.2284751E-015  0.9000780E+02  0.7816164E-02  0.1186339E+00
        -11   -1    0    0    0    0  0.00000000000E+00  0.00000000000E+00  0.45593999997E+02  0.45594000000E+02  0.51100000000E-03 0.  1.
         11   -1    0    0    0    0 -0.00000000000E+00 -0.00000000000E+00 -0.45593999997E+02  0.45594000000E+02  0.51100000000E-03 0. -1.
    9900012    2    1    2    0    0 -0.18912098928E-02  0.55803877421E+00  0.10399351903E+01  0.90007798301E+02  0.90000060439E+02 0.  0.
         12    1    1    2    0    0  0.18912098928E-02 -0.55803877421E+00 -0.10399351903E+01  0.11802016989E+01  0.00000000000E+00 0. -1.
         11    1    3    3    0    0  0.54352056889E+01 -0.51978908102E+01 -0.55178316262E+01  0.93277004601E+01  0.51100000000E-03 0. -1.
        -11    1    3    3    0    0  0.36741057944E+02 -0.41409865401E+01  0.86357582397E+00  0.36983764977E+02  0.51100000000E-03 0.  1.
         12    1    3    3    0    0 -0.42178154843E+02  0.98969161245E+01  0.56941909925E+01  0.43696332864E+02  0.00000000000E+00 0. -1.
</event>
<event>
 7    1  0.2284751E-015  0.9000776E+02  0.7816164E-02  0.1186339E+00
        -11   -1    0    0    0    0  0.00000000000E+00  0.00000000000E+00  0.45593999997E+02  0.45594000000E+02  0.51100000000E-03 0. -1.
         11   -1    0    0    0    0 -0.00000000000E+00 -0.00000000000E+00 -0.45593999997E+02  0.45594000000E+02  0.51100000000E-03 0.  1.
    9900012    2    1    2    0    0 -0.88647083896E+00 -0.21028855323E+00 -0.75028115078E+00  0.90007756962E+02  0.90000018554E+02 0.  0.
         12    1    1    2    0    0  0.88647083896E+00  0.21028855323E+00  0.75028115078E+00  0.11802430382E+01  0.00000000000E+00 0. -1.
         11    1    3    3    0    0  0.20716483264E+02  0.24658093125E+02 -0.13335870093E+02  0.34857419107E+02  0.51100000000E-03 0. -1.
        -11    1    3    3    0    0  0.64199108997E+01  0.77352846959E+01 -0.90176156687E+00  0.10092723095E+02  0.51100000000E-03 0.  1.
        -12    1    3    3    0    0 -0.28022865003E+02 -0.32603666375E+02  0.13487350509E+02  0.45057614759E+02  0.00000000000E+00 0.  1.
</event>
<event>
 7    1  0.2284751E-015  0.9000775E+02  0.7816164E-02  0.1186339E+00
        -11   -1    0    0    0    0  0.00000000000E+00  0.00000000000E+00  0.45593999997E+02  0.45594000000E+02  0.51100000000E-03 0.  1.
         11   -1    0    0    0    0 -0.00000000000E+00 -0.00000000000E+00 -0.45593999997E+02  0.45594000000E+02  0.51100000000E-03 0. -1.
    9900012    2    1    2    0    0 -0.12314087086E-01 -0.75661266859E+00  0.90574724913E+00  0.90007748990E+02  0.90000010477E+02 0.  0.
         12    1    1    2    0    0  0.12314087086E-01  0.75661266859E+00 -0.90574724913E+00  0.11802510099E+01  0.00000000000E+00 0. -1.
         11    1    3    3    0    0 -0.78346995802E+01  0.42890387609E+01 -0.67618113066E+01  0.11202698934E+02  0.51100000000E-03 0. -1.
        -11    1    3    3    0    0 -0.26491984130E+02  0.21669796804E+02 -0.18952063971E+01  0.34278231054E+02  0.51100000000E-03 0.  1.
         12    1    3    3    0    0  0.34314369623E+02 -0.26715448233E+02  0.95627649528E+01  0.44526819002E+02  0.00000000000E+00 0. -1.
</event>
<event>
 7    1  0.2284751E-015  0.9000776E+02  0.7816164E-02  0.1186339E+00
        -11   -1    0    0    0    0  0.00000000000E+00  0.00000000000E+00  0.45593999997E+02  0.45594000000E+02  0.51100000000E-03 0. -1.
         11   -1    0    0    0    0 -0.00000000000E+00 -0.00000000000E+00 -0.45593999997E+02  0.45594000000E+02  0.51100000000E-03 0.  1.
    9900012    2    1    2    0    0  0.70805936453E+00 -0.44822455467E-01 -0.94319529623E+00  0.90007756600E+02  0.90000018187E+02 0.  0.
         12    1    1    2    0    0 -0.70805936453E+00  0.44822455467E-01  0.94319529623E+00  0.11802433999E+01  0.00000000000E+00 0. -1.
         11    1    3    3    0    0 -0.81293915120E+01 -0.39717652299E+01 -0.10121454243E+01  0.91041948583E+01  0.51100000000E-03 0. -1.
        -11    1    3    3    0    0  0.12702002495E+02 -0.31716386760E+02 -0.20228245631E+02  0.39704558656E+02  0.51100000000E-03 0.  1.
         12    1    3    3    0    0 -0.38645516189E+01  0.35643329535E+02  0.20297195759E+02  0.41199003085E+02  0.00000000000E+00 0. -1.
</event>
<event>
 7    1  0.2284751E-015  0.9000772E+02  0.7816164E-02  0.1186339E+00
        -11   -1    0    0    0    0  0.00000000000E+00  0.00000000000E+00  0.45593999997E+02  0.45594000000E+02  0.51100000000E-03 0.  1.
         11   -1    0    0    0    0 -0.00000000000E+00 -0.00000000000E+00 -0.45593999997E+02  0.45594000000E+02  0.51100000000E-03 0. -1.
    9900012    2    1    2    0    0  0.54913420227E-01  0.72442643301E+00  0.93018602408E+00  0.90007722414E+02  0.89999983550E+02 0.  0.
         12    1    1    2    0    0 -0.54913420227E-01 -0.72442643301E+00 -0.93018602408E+00  0.11802775860E+01  0.00000000000E+00 0. -1.
         11    1    3    3    0    0  0.28385533202E+02  0.22353936218E+02  0.68660183644E+01  0.36777427425E+02  0.51100000000E-03 0. -1.
        -11    1    3    3    0    0  0.83057825818E+01 -0.21489414889E+01  0.54984813051E+01  0.10190057445E+02  0.51100000000E-03 0.  1.
        -12    1    3    3    0    0 -0.36636402363E+02 -0.19480568296E+02 -0.11434313645E+02  0.43040237543E+02  0.00000000000E+00 0.  1.
</event>
<event>
 7    1  0.2284751E-015  0.9000771E+02  0.7816164E-02  0.1186339E+00
        -11   -1    0    0    0    0  0.00000000000E+00  0.00000000000E+00  0.45593999997E+02  0.45594000000E+02  0.51100000000E-03 0.  1.
         11   -1    0    0    0    0 -0.00000000000E+00 -0.00000000000E+00 -0.45593999997E+02  0.45594000000E+02  0.51100000000E-03 0. -1.
    9900012    2    1    2    0    0 -0.23830300477E+00  0.77249705092E+00 -0.85996653483E+00  0.90007710859E+02  0.89999971842E+02 0.  0.
         12    1    1    2    0    0  0.23830300477E+00 -0.77249705092E+00  0.85996653483E+00  0.11802891412E+01  0.00000000000E+00 0. -1.
         11    1    3    3    0    0 -0.15078531460E+01  0.17379098460E+02 -0.32213762186E+02  0.36633770742E+02  0.51100000000E-03 0. -1.
        -11    1    3    3    0    0  0.18235542802E+01  0.82107577059E+01 -0.46739820316E+01  0.96222658772E+01  0.51100000000E-03 0.  1.
        -12    1    3    3    0    0 -0.55400413900E+00 -0.24817359115E+02  0.36027777682E+02  0.43751674239E+02  0.00000000000E+00 0.  1.
</event>
<event>
 7    1  0.2284751E-015  0.9000774E+02  0.7816164E-02  0.1186339E+00
        -11   -1    0    0    0    0  0.00000000000E+00  0.00000000000E+00  0.45593999997E+02  0.45594000000E+02  0.51100000000E-03 0.  1.
         11   -1    0    0    0    0 -0.00000000000E+00 -0.00000000000E+00 -0.45593999997E+02  0.45594000000E+02  0.51100000000E-03 0. -1.
    9900012    2    1    2    0    0  0.88004078364E+00 -0.72413201759E+00  0.30688699115E+00  0.90007737917E+02  0.89999999257E+02 0.  0.
         12    1    1    2    0    0 -0.88004078364E+00  0.72413201759E+00 -0.30688699115E+00  0.11802620832E+01  0.00000000000E+00 0. -1.
         11    1    3    3    0    0  0.39211382591E+01  0.70108909736E+01 -0.19851581839E+01  0.82745858365E+01  0.51100000000E-03 0. -1.
        -11    1    3    3    0    0  0.35020614575E+02 -0.96579631969E+01  0.17963383054E+02  0.40526569425E+02  0.51100000000E-03 0.  1.
         12    1    3    3    0    0 -0.38061712050E+02  0.19229402057E+01 -0.15671337879E+02  0.41206582656E+02  0.00000000000E+00 0. -1.
</event>
<event>
 7    1  0.2284751E-015  0.9000781E+02  0.7816164E-02  0.1186339E+00
        -11   -1    0    0    0    0  0.00000000000E+00  0.00000000000E+00  0.45593999997E+02  0.45594000000E+02  0.51100000000E-03 0.  1.
         11   -1    0    0    0    0 -0.00000000000E+00 -0.00000000000E+00 -0.45593999997E+02  0.45594000000E+02  0.51100000000E-03 0. -1.
    9900012    2    1    2    0    0 -0.44565654593E-01 -0.11780324484E+01 -0.55739799991E-01  0.90007807866E+02  0.90000070130E+02 0.  0.
         12    1    1    2    0    0  0.44565654593E-01  0.11780324484E+01  0.55739799991E-01  0.11801921337E+01  0.00000000000E+00 0. -1.
         11    1    3    3    0    0 -0.59475357636E+01 -0.16256300672E+02  0.41252426122E+01  0.17794890280E+02  0.51100000000E-03 0. -1.
        -11    1    3    3    0    0 -0.22934598059E+02  0.30085452698E+02  0.56506494717E+01  0.38249968521E+02  0.51100000000E-03 0.  1.
         12    1    3    3    0    0  0.28837568168E+02 -0.15007184474E+02 -0.98316318839E+01  0.33962949065E+02  0.00000000000E+00 0. -1.
</event>
<event>
 7    1  0.2284751E-015  0.9000773E+02  0.7816164E-02  0.1186339E+00
        -11   -1    0    0    0    0  0.00000000000E+00  0.00000000000E+00  0.45593999997E+02  0.45594000000E+02  0.51100000000E-03 0. -1.
         11   -1    0    0    0    0 -0.00000000000E+00 -0.00000000000E+00 -0.45593999997E+02  0.45594000000E+02  0.51100000000E-03 0.  1.
    9900012    2    1    2    0    0 -0.71678586064E+00 -0.69466498473E+00 -0.62983322115E+00  0.90007732531E+02  0.89999993801E+02 0.  0.
         12    1    1    2    0    0  0.71678586064E+00  0.69466498473E+00  0.62983322115E+00  0.11802674686E+01  0.00000000000E+00 0. -1.
         11    1    3    3    0    0  0.26062471154E-02 -0.31993041727E+02  0.28907212719E+02  0.43118229013E+02  0.51100000000E-03 0. -1.
        -11    1    3    3    0    0  0.23604215231E+01  0.27176000410E+01 -0.13501659472E+02  0.13973251179E+02  0.51100000000E-03 0.  1.
        -12    1    3    3    0    0 -0.30798136308E+01  0.28580776702E+02 -0.16035386469E+02  0.32916252339E+02  0.00000000000E+00 0.  1.
</event>
<event>
 7    1  0.2284751E-015  0.9000776E+02  0.7816164E-02  0.1186339E+00
        -11   -1    0    0    0    0  0.00000000000E+00  0.00000000000E+00  0.45593999997E+02  0.45594000000E+02  0.51100000000E-03 0.  1.
         11   -1    0    0    0    0 -0.00000000000E+00 -0.00000000000E+00 -0.45593999997E+02  0.45594000000E+02  0.51100000000E-03 0. -1.
    9900012    2    1    2    0    0  0.74999654396E+00 -0.83555936518E+00  0.36375440900E+00  0.90007757847E+02  0.90000019451E+02 0.  0.
         12    1    1    2    0    0 -0.74999654396E+00  0.83555936518E+00 -0.36375440900E+00  0.11802421526E+01  0.00000000000E+00 0. -1.
         11    1    3    3    0    0  0.17600314559E+01  0.95603679815E+01 -0.74041759836E+01  0.12219663208E+02  0.51100000000E-03 0. -1.
        -11    1    3    3    0    0 -0.23475366436E+02 -0.20185631541E+02  0.31148604230E+02  0.43917970078E+02  0.51100000000E-03 0.  1.
         12    1    3    3    0    0  0.22465331524E+02  0.97897041948E+01 -0.23380673837E+02  0.33870124561E+02  0.00000000000E+00 0. -1.
</event>
<event>
 7    1  0.2284751E-015  0.9000765E+02  0.7816164E-02  0.1186339E+00
        -11   -1    0    0    0    0  0.00000000000E+00  0.00000000000E+00  0.45593999997E+02  0.45594000000E+02  0.51100000000E-03 0.  1.
         11   -1    0    0    0    0 -0.00000000000E+00 -0.00000000000E+00 -0.45593999997E+02  0.45594000000E+02  0.51100000000E-03 0. -1.
    9900012    2    1    2    0    0  0.32595487239E+00  0.11199901674E+01  0.18052745482E+00  0.90007654832E+02  0.89999915076E+02 0.  0.
         12    1    1    2    0    0 -0.32595487239E+00 -0.11199901674E+01 -0.18052745482E+00  0.11803451681E+01  0.00000000000E+00 0. -1.
         11    1    3    3    0    0  0.31978390076E+02  0.95403075463E+01  0.20248777244E+02  0.39033932419E+02  0.51100000000E-03 0. -1.
        -11    1    3    3    0    0  0.72143668505E+01 -0.17259927881E+01 -0.31946861196E+01  0.80766428560E+01  0.51100000000E-03 0.  1.
        -12    1    3    3    0    0 -0.38866802054E+02 -0.66943245908E+01 -0.16873563669E+02  0.42897079557E+02  0.00000000000E+00 0.  1.
</event>
<event>
 7    1  0.2284751E-015  0.9000771E+02  0.7816164E-02  0.1186339E+00
        -11   -1    0    0    0    0  0.00000000000E+00  0.00000000000E+00  0.45593999997E+02  0.45594000000E+02  0.51100000000E-03 0. -1.
         11   -1    0    0    0    0 -0.00000000000E+00 -0.00000000000E+00 -0.45593999997E+02  0.45594000000E+02  0.51100000000E-03 0.  1.
    9900012    2    1    2    0    0 -0.37544160628E+00 -0.56872471218E+00 -0.96367621858E+00  0.90007713572E+02  0.89999974591E+02 0.  0.
         12    1    1    2    0    0  0.37544160628E+00  0.56872471218E+00  0.96367621858E+00  0.11802864280E+01  0.00000000000E+00 0. -1.
         11    1    3    3    0    0  0.56107090254E+01 -0.15929932858E+02  0.19836970296E+02  0.26052796537E+02  0.51100000000E-03 0. -1.
        -11    1    3    3    0    0  0.22815997030E+02 -0.62838410660E+01 -0.32794173886E+01  0.23891650376E+02  0.51100000000E-03 0.  1.
         12    1    3    3    0    0 -0.28802147662E+02  0.21645049212E+02 -0.17521229125E+02  0.40063266659E+02  0.00000000000E+00 0. -1.
</event>
<event>
 7    1  0.2284751E-015  0.9000777E+02  0.7816164E-02  0.1186339E+00
        -11   -1    0    0    0    0  0.00000000000E+00  0.00000000000E+00  0.45593999997E+02  0.45594000000E+02  0.51100000000E-03 0. -1.
         11   -1    0    0    0    0 -0.00000000000E+00 -0.00000000000E+00 -0.45593999997E+02  0.45594000000E+02  0.51100000000E-03 0.  1.
    9900012    2    1    2    0    0  0.11166590217E+01 -0.24209783624E+00 -0.29565203702E+00  0.90007767455E+02  0.90000029186E+02 0.  0.
         12    1    1    2    0    0 -0.11166590217E+01  0.24209783624E+00  0.29565203702E+00  0.11802325449E+01  0.00000000000E+00 0. -1.
         11    1    3    3    0    0 -0.46491143086E+01 -0.75321355503E+01 -0.27969267551E+01  0.92827867226E+01  0.51100000000E-03 0. -1.
        -11    1    3    3    0    0 -0.41034992484E+01  0.42538887543E+02  0.86630728669E+01  0.43605555738E+02  0.51100000000E-03 0.  1.
         12    1    3    3    0    0  0.98692725787E+01 -0.35248849829E+02 -0.61617981488E+01  0.37119424994E+02  0.00000000000E+00 0. -1.
</event>
<event>
 7    1  0.2284751E-015  0.9000775E+02  0.7816164E-02  0.1186339E+00
        -11   -1    0    0    0    0  0.00000000000E+00  0.00000000000E+00  0.45593999997E+02  0.45594000000E+02  0.51100000000E-03 0.  1.
         11   -1    0    0    0    0 -0.00000000000E+00 -0.00000000000E+00 -0.45593999997E+02  0.45594000000E+02  0.51100000000E-03 0. -1.
    9900012    2    1    2    0    0 -0.19516960714E+00 -0.11209623673E+01  0.31359647707E+00  0.90007749791E+02  0.90000011289E+02 0.  0.
         12    1    1    2    0    0  0.19516960714E+00  0.11209623673E+01 -0.31359647707E+00  0.11802502086E+01  0.00000000000E+00 0. -1.
         11    1    3    3    0    0  0.11234867663E+02 -0.69636073521E+01  0.95683936903E+01  0.16317727686E+02  0.51100000000E-03 0. -1.
        -11    1    3    3    0    0  0.43190011371E+01 -0.22222157008E+02  0.19993477530E+02  0.30202933250E+02  0.51100000000E-03 0.  1.
         12    1    3    3    0    0 -0.15749038407E+02  0.28064801993E+02 -0.29248274743E+02  0.43487088855E+02  0.00000000000E+00 0. -1.
</event>
<event>
 7    1  0.2284751E-015  0.9000769E+02  0.7816164E-02  0.1186339E+00
        -11   -1    0    0    0    0  0.00000000000E+00  0.00000000000E+00  0.45593999997E+02  0.45594000000E+02  0.51100000000E-03 0.  1.
         11   -1    0    0    0    0 -0.00000000000E+00 -0.00000000000E+00 -0.45593999997E+02  0.45594000000E+02  0.51100000000E-03 0. -1.
    9900012    2    1    2    0    0  0.77069063377E+00  0.14748856429E+00  0.88171675433E+00  0.90007685904E+02  0.89999946558E+02 0.  0.
         12    1    1    2    0    0 -0.77069063377E+00 -0.14748856429E+00 -0.88171675433E+00  0.11803140957E+01  0.00000000000E+00 0. -1.
         11    1    3    3    0    0 -0.14912178115E+01 -0.11551487192E+02 -0.12412398727E+01  0.11713294310E+02  0.51100000000E-03 0. -1.
        -11    1    3    3    0    0 -0.24973583152E+02 -0.23138405509E+02  0.10586588214E+01  0.34061509416E+02  0.51100000000E-03 0.  1.
         12    1    3    3    0    0  0.27235491597E+02  0.34837381265E+02  0.10642978056E+01  0.44232882178E+02  0.00000000000E+00 0. -1.
</event>
<event>
 7    1  0.2284751E-015  0.9000752E+02  0.7816164E-02  0.1186339E+00
        -11   -1    0    0    0    0  0.00000000000E+00  0.00000000000E+00  0.45593999997E+02  0.45594000000E+02  0.51100000000E-03 0. -1.
         11   -1    0    0    0    0 -0.00000000000E+00 -0.00000000000E+00 -0.45593999997E+02  0.45594000000E+02  0.51100000000E-03 0.  1.
    9900012    2    1    2    0    0 -0.34484667392E+00  0.62767610135E+00 -0.93841690554E+00  0.90007524331E+02  0.89999782852E+02 0.  0.
         12    1    1    2    0    0  0.34484667392E+00 -0.62767610135E+00  0.93841690554E+00  0.11804756691E+01  0.00000000000E+00 0. -1.
         11    1    3    3    0    0 -0.18702396675E+02 -0.12766810704E+02  0.29253852271E+02  0.36994039654E+02  0.51100000000E-03 0. -1.
        -11    1    3    3    0    0 -0.67728707188E+01 -0.80632924401E+01 -0.74024440629E+01  0.12871854610E+02  0.51100000000E-03 0.  1.
        -12    1    3    3    0    0  0.25130420720E+02  0.21457779246E+02 -0.22789825113E+02  0.40141630067E+02  0.00000000000E+00 0.  1.
</event>
<event>
 7    1  0.2284751E-015  0.9000778E+02  0.7816164E-02  0.1186339E+00
        -11   -1    0    0    0    0  0.00000000000E+00  0.00000000000E+00  0.45593999997E+02  0.45594000000E+02  0.51100000000E-03 0.  1.
         11   -1    0    0    0    0 -0.00000000000E+00 -0.00000000000E+00 -0.45593999997E+02  0.45594000000E+02  0.51100000000E-03 0. -1.
    9900012    2    1    2    0    0 -0.64844226526E-01 -0.26115921322E+00  0.11491305413E+01  0.90007783957E+02  0.90000045905E+02 0.  0.
         12    1    1    2    0    0  0.64844226526E-01  0.26115921322E+00 -0.11491305413E+01  0.11802160435E+01  0.00000000000E+00 0. -1.
         11    1    3    3    0    0  0.16158432158E+02 -0.21219823239E+02 -0.20770363582E+02  0.33805085885E+02  0.51100000000E-03 0. -1.
        -11    1    3    3    0    0 -0.41964438200E+00 -0.11517927986E+02 -0.34901003485E+01  0.12042407036E+02  0.51100000000E-03 0.  1.
        -12    1    3    3    0    0 -0.15803632003E+02  0.32476592012E+02  0.25409594471E+02  0.44160291036E+02  0.00000000000E+00 0.  1.
</event>
<event>
 7    1  0.2284751E-015  0.9000771E+02  0.7816164E-02  0.1186339E+00
        -11   -1    0    0    0    0  0.00000000000E+00  0.00000000000E+00  0.45593999997E+02  0.45594000000E+02  0.51100000000E-03 0.  1.
         11   -1    0    0    0    0 -0.00000000000E+00 -0.00000000000E+00 -0.45593999997E+02  0.45594000000E+02  0.51100000000E-03 0. -1.
    9900012    2    1    2    0    0 -0.48760268566E+00 -0.49779588792E+00  0.95264259904E+00  0.90007709762E+02  0.89999970731E+02 0.  0.
         12    1    1    2    0    0  0.48760268566E+00  0.49779588792E+00 -0.95264259904E+00  0.11802902383E+01  0.00000000000E+00 0. -1.
         11    1    3    3    0    0 -0.93387860024E+01 -0.18955517937E+01 -0.42273725728E+02  0.43334442742E+02  0.51100000000E-03 0. -1.
        -11    1    3    3    0    0  0.75621815130E+01  0.26656931686E+00  0.67004500869E+01  0.10107110372E+02  0.51100000000E-03 0.  1.
        -12    1    3    3    0    0  0.12890018037E+01  0.11311865889E+01  0.36525918240E+02  0.36566156648E+02  0.00000000000E+00 0.  1.
</event>
<event>
 7    1  0.2284751E-015  0.9000779E+02  0.7816164E-02  0.1186339E+00
        -11   -1    0    0    0    0  0.00000000000E+00  0.00000000000E+00  0.45593999997E+02  0.45594000000E+02  0.51100000000E-03 0. -1.
         11   -1    0    0    0    0 -0.00000000000E+00 -0.00000000000E+00 -0.45593999997E+02  0.45594000000E+02  0.51100000000E-03 0.  1.
    9900012    2    1    2    0    0  0.11647466946E+01  0.83308064481E-02  0.19026571644E+00  0.90007785906E+02  0.90000047880E+02 0.  0.
         12    1    1    2    0    0 -0.11647466946E+01 -0.83308064481E-02 -0.19026571644E+00  0.11802140940E+01  0.00000000000E+00 0. -1.
         11    1    3    3    0    0 -0.10809792576E+02 -0.32778504519E+02  0.12240224050E+02  0.36621101282E+02  0.51100000000E-03 0. -1.
        -11    1    3    3    0    0  0.47057267836E+01 -0.86824907408E+01 -0.15620717885E+01  0.99984788123E+01  0.51100000000E-03 0.  1.
        -12    1    3    3    0    0  0.72688124872E+01  0.41469326066E+02 -0.10487886545E+02  0.43388205812E+02  0.00000000000E+00 0.  1.
</event>
<event>
 7    1  0.2284751E-015  0.9000769E+02  0.7816164E-02  0.1186339E+00
        -11   -1    0    0    0    0  0.00000000000E+00  0.00000000000E+00  0.45593999997E+02  0.45594000000E+02  0.51100000000E-03 0. -1.
         11   -1    0    0    0    0 -0.00000000000E+00 -0.00000000000E+00 -0.45593999997E+02  0.45594000000E+02  0.51100000000E-03 0.  1.
    9900012    2    1    2    0    0 -0.67454501365E+00  0.93661214568E+00 -0.24671737956E+00  0.90007693789E+02  0.89999954547E+02 0.  0.
         12    1    1    2    0    0  0.67454501365E+00 -0.93661214568E+00  0.24671737956E+00  0.11803062112E+01  0.00000000000E+00 0. -1.
         11    1    3    3    0    0  0.91744177341E+01 -0.27853582740E+01 -0.61061269798E-02  0.95879194313E+01  0.51100000000E-03 0. -1.
        -11    1    3    3    0    0  0.19669151476E+02  0.14994658546E+02 -0.28706009817E+02  0.37891295895E+02  0.51100000000E-03 0.  1.
         12    1    3    3    0    0 -0.29518114224E+02 -0.11272688126E+02  0.28465398565E+02  0.42528478463E+02  0.00000000000E+00 0. -1.
</event>
<event>
 7    1  0.2284751E-015  0.9000770E+02  0.7816164E-02  0.1186339E+00
        -11   -1    0    0    0    0  0.00000000000E+00  0.00000000000E+00  0.45593999997E+02  0.45594000000E+02  0.51100000000E-03 0.  1.
         11   -1    0    0    0    0 -0.00000000000E+00 -0.00000000000E+00 -0.45593999997E+02  0.45594000000E+02  0.51100000000E-03 0. -1.
    9900012    2    1    2    0    0 -0.54619761004E+00  0.36747536908E+00  0.97965963485E+00  0.90007702166E+02  0.89999963035E+02 0.  0.
         12    1    1    2    0    0  0.54619761004E+00 -0.36747536908E+00 -0.97965963485E+00  0.11802978337E+01  0.00000000000E+00 0. -1.
         11    1    3    3    0    0 -0.87613019541E+01 -0.11814826707E+02  0.24155097503E+01  0.14905879030E+02  0.51100000000E-03 0. -1.
        -11    1    3    3    0    0  0.35704469677E+02  0.23612619938E+01  0.17977615465E+02  0.40044717144E+02  0.51100000000E-03 0.  1.
         12    1    3    3    0    0 -0.27489365333E+02  0.98210400822E+01 -0.19413465580E+02  0.35057105992E+02  0.00000000000E+00 0. -1.
</event>
<event>
 7    1  0.2284751E-015  0.9000872E+02  0.7816164E-02  0.1186337E+00
        -11   -1    0    0    0    0  0.00000000000E+00  0.00000000000E+00  0.45593999997E+02  0.45594000000E+02  0.51100000000E-03 0.  1.
         11   -1    0    0    0    0 -0.00000000000E+00 -0.00000000000E+00 -0.45593999997E+02  0.45594000000E+02  0.51100000000E-03 0. -1.
    9900012    2    1    2    0    0  0.54309797881E+00  0.75805923945E+00  0.72186374664E+00  0.90008722046E+02  0.90000996371E+02 0.  0.
         12    1    1    2    0    0 -0.54309797881E+00 -0.75805923945E+00 -0.72186374664E+00  0.11792779544E+01  0.00000000000E+00 0. -1.
         11    1    3    3    0    0 -0.34400578865E+02 -0.90301059982E+01 -0.18806271879E+02  0.40232058148E+02  0.51100000000E-03 0. -1.
        -11    1    3    3    0    0  0.27645331536E+01 -0.34409292904E+01 -0.54009752873E+01  0.69751825965E+01  0.51100000000E-03 0.  1.
        -12    1    3    3    0    0  0.32179143690E+02  0.13229094528E+02  0.24929110913E+02  0.42801481301E+02  0.00000000000E+00 0.  1.
</event>
<event>
 7    1  0.2284751E-015  0.9000765E+02  0.7816164E-02  0.1186339E+00
        -11   -1    0    0    0    0  0.00000000000E+00  0.00000000000E+00  0.45593999997E+02  0.45594000000E+02  0.51100000000E-03 0.  1.
         11   -1    0    0    0    0 -0.00000000000E+00 -0.00000000000E+00 -0.45593999997E+02  0.45594000000E+02  0.51100000000E-03 0. -1.
    9900012    2    1    2    0    0 -0.48829493445E+00  0.82781467696E+00 -0.68521438094E+00  0.90007649277E+02  0.89999909447E+02 0.  0.
         12    1    1    2    0    0  0.48829493445E+00 -0.82781467696E+00  0.68521438094E+00  0.11803507234E+01  0.00000000000E+00 0. -1.
         11    1    3    3    0    0  0.14983418553E+02 -0.30688063776E+02 -0.25140605586E+02  0.42406486996E+02  0.51100000000E-03 0. -1.
        -11    1    3    3    0    0 -0.60951941784E+01  0.69679123856E+01 -0.28685130810E+01  0.96918296850E+01  0.51100000000E-03 0.  1.
        -12    1    3    3    0    0 -0.93765193088E+01  0.24547966068E+02  0.27323904286E+02  0.37909332595E+02  0.00000000000E+00 0.  1.
</event>
<event>
 7    1  0.2284751E-015  0.9000768E+02  0.7816164E-02  0.1186339E+00
        -11   -1    0    0    0    0  0.00000000000E+00  0.00000000000E+00  0.45593999997E+02  0.45594000000E+02  0.51100000000E-03 0. -1.
         11   -1    0    0    0    0 -0.00000000000E+00 -0.00000000000E+00 -0.45593999997E+02  0.45594000000E+02  0.51100000000E-03 0.  1.
    9900012    2    1    2    0    0 -0.32291405555E+00  0.10414119201E+01 -0.45204621551E+00  0.90007678834E+02  0.89999939394E+02 0.  0.
         12    1    1    2    0    0  0.32291405555E+00 -0.10414119201E+01  0.45204621551E+00  0.11803211663E+01  0.00000000000E+00 0. -1.
         11    1    3    3    0    0 -0.38975591909E+01  0.70297226792E+01  0.32108778766E+01  0.86555014640E+01  0.51100000000E-03 0. -1.
        -11    1    3    3    0    0 -0.66558249872E+00  0.34302726553E+02 -0.17533768728E+02  0.38529898717E+02  0.51100000000E-03 0.  1.
         12    1    3    3    0    0  0.42402276340E+01 -0.40291037313E+02  0.13870844636E+02  0.42822278653E+02  0.00000000000E+00 0. -1.
</event>
<event>
 7    1  0.2284751E-015  0.9000745E+02  0.7816164E-02  0.1186340E+00
        -11   -1    0    0    0    0  0.00000000000E+00  0.00000000000E+00  0.45593999997E+02  0.45594000000E+02  0.51100000000E-03 0. -1.
         11   -1    0    0    0    0 -0.00000000000E+00 -0.00000000000E+00 -0.45593999997E+02  0.45594000000E+02  0.51100000000E-03 0.  1.
    9900012    2    1    2    0    0 -0.17507012859E+00  0.11130069445E+01  0.35251163509E+00  0.90007449933E+02  0.89999707471E+02 0.  0.
         12    1    1    2    0    0  0.17507012859E+00 -0.11130069445E+01 -0.35251163509E+00  0.11805500673E+01  0.00000000000E+00 0. -1.
         11    1    3    3    0    0  0.57133074955E+01  0.12612070405E+01  0.37585572164E+02  0.38038240771E+02  0.51100000000E-03 0. -1.
        -11    1    3    3    0    0  0.11120088462E+01 -0.67175775169E+01  0.51343020274E+01  0.85278056345E+01  0.51100000000E-03 0.  1.
        -12    1    3    3    0    0 -0.70003864703E+01  0.65693774209E+01 -0.42367362557E+02  0.43441403528E+02  0.00000000000E+00 0.  1.
</event>
<event>
 7    1  0.2284751E-015  0.9000776E+02  0.7816164E-02  0.1186339E+00
        -11   -1    0    0    0    0  0.00000000000E+00  0.00000000000E+00  0.45593999997E+02  0.45594000000E+02  0.51100000000E-03 0. -1.
         11   -1    0    0    0    0 -0.00000000000E+00 -0.00000000000E+00 -0.45593999997E+02  0.45594000000E+02  0.51100000000E-03 0.  1.
    9900012    2    1    2    0    0  0.67333630070E+00  0.18315663316E+00 -0.95185770040E+00  0.90007762224E+02  0.90000023885E+02 0.  0.
         12    1    1    2    0    0 -0.67333630070E+00 -0.18315663316E+00  0.95185770040E+00  0.11802377760E+01  0.00000000000E+00 0. -1.
         11    1    3    3    0    0  0.12529683409E+02 -0.32032047609E+02  0.11816683081E+02  0.36368654631E+02  0.51100000000E-03 0. -1.
        -11    1    3    3    0    0 -0.89539263632E+01 -0.65156415974E+01 -0.96261750289E+01  0.14672751231E+02  0.51100000000E-03 0.  1.
        -12    1    3    3    0    0 -0.29024207453E+01  0.38730845839E+02 -0.31423657525E+01  0.38966356362E+02  0.00000000000E+00 0.  1.
</event>
<event>
 7    1  0.2284751E-015  0.9000779E+02  0.7816164E-02  0.1186339E+00
        -11   -1    0    0    0    0  0.00000000000E+00  0.00000000000E+00  0.45593999997E+02  0.45594000000E+02  0.51100000000E-03 0.  1.
         11   -1    0    0    0    0 -0.00000000000E+00 -0.00000000000E+00 -0.45593999997E+02  0.45594000000E+02  0.51100000000E-03 0. -1.
    9900012    2    1    2    0    0  0.39381328591E+00  0.70005894917E+00  0.86470431064E+00  0.90007794517E+02  0.90000056605E+02 0.  0.
         12    1    1    2    0    0 -0.39381328591E+00 -0.70005894917E+00 -0.86470431064E+00  0.11802054827E+01  0.00000000000E+00 0. -1.
         11    1    3    3    0    0  0.22222051264E+02 -0.34647561083E+02 -0.34486648063E+01  0.41305766433E+02  0.51100000000E-03 0. -1.
        -11    1    3    3    0    0  0.14209462367E+01  0.65868131313E+00  0.66940502350E+01  0.68748278589E+01  0.51100000000E-03 0.  1.
        -12    1    3    3    0    0 -0.23249184215E+02  0.34688938719E+02 -0.23806811180E+01  0.41827200226E+02  0.00000000000E+00 0.  1.
</event>
<event>
 7    1  0.2284751E-015  0.9000767E+02  0.7816164E-02  0.1186339E+00
        -11   -1    0    0    0    0  0.00000000000E+00  0.00000000000E+00  0.45593999997E+02  0.45594000000E+02  0.51100000000E-03 0. -1.
         11   -1    0    0    0    0 -0.00000000000E+00 -0.00000000000E+00 -0.45593999997E+02  0.45594000000E+02  0.51100000000E-03 0.  1.
    9900012    2    1    2    0    0 -0.42764220949E+00  0.73823965859E+00 -0.81565538111E+00  0.90007674048E+02  0.89999934545E+02 0.  0.
         12    1    1    2    0    0  0.42764220949E+00 -0.73823965859E+00  0.81565538111E+00  0.11803259523E+01  0.00000000000E+00 0. -1.
         11    1    3    3    0    0 -0.30685362833E+02  0.40358859529E+01  0.17719081303E+02  0.35662945898E+02  0.51100000000E-03 0. -1.
        -11    1    3    3    0    0 -0.67391384597E+01  0.96113794508E+01 -0.24728248495E+01  0.11996227120E+02  0.51100000000E-03 0.  1.
        -12    1    3    3    0    0  0.36996859083E+02 -0.12909025745E+02 -0.16061911835E+02  0.42348501030E+02  0.00000000000E+00 0.  1.
</event>
<event>
 7    1  0.2284751E-015  0.9000754E+02  0.7816164E-02  0.1186339E+00
        -11   -1    0    0    0    0  0.00000000000E+00  0.00000000000E+00  0.45593999997E+02  0.45594000000E+02  0.51100000000E-03 0.  1.
         11   -1    0    0    0    0 -0.00000000000E+00 -0.00000000000E+00 -0.45593999997E+02  0.45594000000E+02  0.51100000000E-03 0. -1.
    9900012    2    1    2    0    0 -0.14805015739E+00  0.11641803361E+01  0.12749685865E+00  0.90007538161E+02  0.89999796865E+02 0.  0.
         12    1    1    2    0    0  0.14805015739E+00 -0.11641803361E+01 -0.12749685865E+00  0.11804618389E+01  0.00000000000E+00 0. -1.
         11    1    3    3    0    0 -0.15164378985E+02 -0.37465371695E+01 -0.28129507786E+02  0.32175520809E+02  0.51100000000E-03 0. -1.
        -11    1    3    3    0    0  0.24033065891E+01 -0.20434233247E+01 -0.13394273044E+02  0.13760741698E+02  0.51100000000E-03 0.  1.
        -12    1    3    3    0    0  0.12613022239E+02  0.69541408302E+01  0.41651277689E+02  0.44071275654E+02  0.00000000000E+00 0.  1.
</event>
<event>
 7    1  0.2284751E-015  0.9000771E+02  0.7816164E-02  0.1186339E+00
        -11   -1    0    0    0    0  0.00000000000E+00  0.00000000000E+00  0.45593999997E+02  0.45594000000E+02  0.51100000000E-03 0.  1.
         11   -1    0    0    0    0 -0.00000000000E+00 -0.00000000000E+00 -0.45593999997E+02  0.45594000000E+02  0.51100000000E-03 0. -1.
    9900012    2    1    2    0    0 -0.56599528741E-01 -0.11727458455E+01  0.12061754050E+00  0.90007709817E+02  0.89999970787E+02 0.  0.
         12    1    1    2    0    0  0.56599528741E-01  0.11727458455E+01 -0.12061754050E+00  0.11802901829E+01  0.00000000000E+00 0. -1.
         11    1    3    3    0    0  0.11732494205E+01  0.14656334074E+01 -0.37455092507E+01  0.41896820041E+01  0.51100000000E-03 0. -1.
        -11    1    3    3    0    0  0.39383111349E+02  0.89260045892E+01  0.13363757691E+02  0.42535785374E+02  0.51100000000E-03 0.  1.
         12    1    3    3    0    0 -0.40612960299E+02 -0.11564383842E+02 -0.94976308993E+01  0.43282242439E+02  0.00000000000E+00 0. -1.
</event>
<event>
 7    1  0.2284751E-015  0.9000771E+02  0.7816164E-02  0.1186339E+00
        -11   -1    0    0    0    0  0.00000000000E+00  0.00000000000E+00  0.45593999997E+02  0.45594000000E+02  0.51100000000E-03 0.  1.
         11   -1    0    0    0    0 -0.00000000000E+00 -0.00000000000E+00 -0.45593999997E+02  0.45594000000E+02  0.51100000000E-03 0. -1.
    9900012    2    1    2    0    0  0.24645636131E+00 -0.12583527063E+00  0.11473901488E+01  0.90007712151E+02  0.89999973151E+02 0.  0.
         12    1    1    2    0    0 -0.24645636131E+00  0.12583527063E+00 -0.11473901488E+01  0.11802878492E+01  0.00000000000E+00 0. -1.
         11    1    3    3    0    0  0.33149021340E+01 -0.96453037605E+01 -0.36611024647E+01  0.10836241614E+02  0.51100000000E-03 0. -1.
        -11    1    3    3    0    0  0.28398658366E+02 -0.20898476690E+02  0.20528913819E+01  0.35319180175E+02  0.51100000000E-03 0.  1.
         12    1    3    3    0    0 -0.31467104139E+02  0.30417945180E+02  0.27556012316E+01  0.43852290362E+02  0.00000000000E+00 0. -1.
</event>
<event>
 7    1  0.2284751E-015  0.9000706E+02  0.7816164E-02  0.1186340E+00
        -11   -1    0    0    0    0  0.00000000000E+00  0.00000000000E+00  0.45593999997E+02  0.45594000000E+02  0.51100000000E-03 0.  1.
         11   -1    0    0    0    0 -0.00000000000E+00 -0.00000000000E+00 -0.45593999997E+02  0.45594000000E+02  0.51100000000E-03 0. -1.
    9900012    2    1    2    0    0  0.38049320697E+00 -0.78859660607E+00  0.79243441235E+00  0.90007063090E+02  0.89999315520E+02 0.  0.
         12    1    1    2    0    0 -0.38049320697E+00  0.78859660607E+00 -0.79243441235E+00  0.11809369101E+01  0.00000000000E+00 0. -1.
         11    1    3    3    0    0  0.43543880148E+01  0.92578232165E+01 -0.51400438917E+01  0.11449368418E+02  0.51100000000E-03 0. -1.
        -11    1    3    3    0    0 -0.91450013282E+01  0.32027730060E+02  0.12667500828E+02  0.35635265112E+02  0.51100000000E-03 0.  1.
         12    1    3    3    0    0  0.51711065203E+01 -0.42074149883E+02 -0.67350225235E+01  0.42922429561E+02  0.00000000000E+00 0. -1.
</event>
<event>
 7    1  0.2284751E-015  0.9000776E+02  0.7816164E-02  0.1186339E+00
        -11   -1    0    0    0    0  0.00000000000E+00  0.00000000000E+00  0.45593999997E+02  0.45594000000E+02  0.51100000000E-03 0. -1.
         11   -1    0    0    0    0 -0.00000000000E+00 -0.00000000000E+00 -0.45593999997E+02  0.45594000000E+02  0.51100000000E-03 0.  1.
    9900012    2    1    2    0    0  0.10016240113E+01  0.94460384795E-01 -0.61708390254E+00  0.90007760208E+02  0.90000021843E+02 0.  0.
         12    1    1    2    0    0 -0.10016240113E+01 -0.94460384795E-01  0.61708390254E+00  0.11802397922E+01  0.00000000000E+00 0. -1.
         11    1    3    3    0    0  0.75226228627E+01 -0.10155942757E+01 -0.10540512791E+02  0.12989368600E+02  0.51100000000E-03 0. -1.
        -11    1    3    3    0    0  0.17297117345E+02  0.30336827434E+02 -0.71237143044E+01  0.35640716504E+02  0.51100000000E-03 0.  1.
         12    1    3    3    0    0 -0.23818116197E+02 -0.29226772773E+02  0.17047143193E+02  0.41377675103E+02  0.00000000000E+00 0. -1.
</event>
<event>
 7    1  0.2284751E-015  0.9000784E+02  0.7816164E-02  0.1186339E+00
        -11   -1    0    0    0    0  0.00000000000E+00  0.00000000000E+00  0.45593999997E+02  0.45594000000E+02  0.51100000000E-03 0. -1.
         11   -1    0    0    0    0 -0.00000000000E+00 -0.00000000000E+00 -0.45593999997E+02  0.45594000000E+02  0.51100000000E-03 0.  1.
    9900012    2    1    2    0    0  0.86765624283E+00  0.49749773495E+00 -0.62646184781E+00  0.90007836537E+02  0.90000099180E+02 0.  0.
         12    1    1    2    0    0 -0.86765624283E+00 -0.49749773495E+00  0.62646184781E+00  0.11801634627E+01  0.00000000000E+00 0. -1.
         11    1    3    3    0    0 -0.35607310609E+02 -0.76981969011E+01  0.26072510511E+01  0.36523151051E+02  0.51100000000E-03 0. -1.
        -11    1    3    3    0    0 -0.43942080414E+01 -0.54180252393E+01 -0.74447936989E+01  0.10202402427E+02  0.51100000000E-03 0.  1.
        -12    1    3    3    0    0  0.40869174894E+02  0.13613719875E+02  0.42110808000E+01  0.43282283059E+02  0.00000000000E+00 0.  1.
</event>
<event>
 7    1  0.2284751E-015  0.9000781E+02  0.7816164E-02  0.1186339E+00
        -11   -1    0    0    0    0  0.00000000000E+00  0.00000000000E+00  0.45593999997E+02  0.45594000000E+02  0.51100000000E-03 0.  1.
         11   -1    0    0    0    0 -0.00000000000E+00 -0.00000000000E+00 -0.45593999997E+02  0.45594000000E+02  0.51100000000E-03 0. -1.
    9900012    2    1    2    0    0  0.35382964525E+00  0.12793901871E+00  0.11186076666E+01  0.90007810641E+02  0.90000072942E+02 0.  0.
         12    1    1    2    0    0 -0.35382964525E+00 -0.12793901871E+00 -0.11186076666E+01  0.11801893586E+01  0.00000000000E+00 0. -1.
         11    1    3    3    0    0 -0.30682701920E+01  0.62455192632E+01  0.14299524850E+01  0.71039114020E+01  0.51100000000E-03 0. -1.
        -11    1    3    3    0    0 -0.13608427254E+02  0.12462317807E+02  0.34972826182E+02  0.39542347286E+02  0.51100000000E-03 0.  1.
         12    1    3    3    0    0  0.17030527091E+02 -0.18579898052E+02 -0.35284171001E+02  0.43361551953E+02  0.00000000000E+00 0. -1.
</event>
<event>
 7    1  0.2284751E-015  0.9000786E+02  0.7816164E-02  0.1186339E+00
        -11   -1    0    0    0    0  0.00000000000E+00  0.00000000000E+00  0.45593999997E+02  0.45594000000E+02  0.51100000000E-03 0. -1.
         11   -1    0    0    0    0 -0.00000000000E+00 -0.00000000000E+00 -0.45593999997E+02  0.45594000000E+02  0.51100000000E-03 0.  1.
    9900012    2    1    2    0    0 -0.25429748388E+00 -0.98692644260E+00 -0.59500363423E+00  0.90007864271E+02  0.90000127280E+02 0.  0.
         12    1    1    2    0    0  0.25429748388E+00  0.98692644260E+00  0.59500363423E+00  0.11801357287E+01  0.00000000000E+00 0. -1.
         11    1    3    3    0    0  0.35678556430E+02 -0.15500872402E+02 -0.19652863519E+02  0.43582926461E+02  0.51100000000E-03 0. -1.
        -11    1    3    3    0    0 -0.41587161342E+01 -0.10065965553E+01  0.85067613918E+01  0.95222448061E+01  0.51100000000E-03 0.  1.
        -12    1    3    3    0    0 -0.31774137779E+02  0.15520542515E+02  0.10551098493E+02  0.36902693004E+02  0.00000000000E+00 0.  1.
</event>
<event>
 7    1  0.2284751E-015  0.9000780E+02  0.7816164E-02  0.1186339E+00
        -11   -1    0    0    0    0  0.00000000000E+00  0.00000000000E+00  0.45593999997E+02  0.45594000000E+02  0.51100000000E-03 0.  1.
         11   -1    0    0    0    0 -0.00000000000E+00 -0.00000000000E+00 -0.45593999997E+02  0.45594000000E+02  0.51100000000E-03 0. -1.
    9900012    2    1    2    0    0  0.82762715982E+00  0.74210023597E+00  0.39647849800E+00  0.90007798884E+02  0.90000061029E+02 0.  0.
         12    1    1    2    0    0 -0.82762715982E+00 -0.74210023597E+00 -0.39647849800E+00  0.11802011165E+01  0.00000000000E+00 0. -1.
         11    1    3    3    0    0 -0.98246038624E+01  0.17522515933E+02  0.68720958932E+01  0.21231747641E+02  0.51100000000E-03 0. -1.
        -11    1    3    3    0    0  0.15525470058E+02  0.33956242412E-01  0.26916539960E+02  0.31073163618E+02  0.51100000000E-03 0.  1.
         12    1    3    3    0    0 -0.48732390356E+01 -0.16814371939E+02 -0.33392157355E+02  0.37702887625E+02  0.00000000000E+00 0. -1.
</event>
<event>
 7    1  0.2284751E-015  0.9000773E+02  0.7816164E-02  0.1186339E+00
        -11   -1    0    0    0    0  0.00000000000E+00  0.00000000000E+00  0.45593999997E+02  0.45594000000E+02  0.51100000000E-03 0.  1.
         11   -1    0    0    0    0 -0.00000000000E+00 -0.00000000000E+00 -0.45593999997E+02  0.45594000000E+02  0.51100000000E-03 0. -1.
    9900012    2    1    2    0    0  0.67090072235E+00  0.94645625645E+00 -0.21715325640E+00  0.90007727675E+02  0.89999988880E+02 0.  0.
         12    1    1    2    0    0 -0.67090072235E+00 -0.94645625645E+00  0.21715325640E+00  0.11802723251E+01  0.00000000000E+00 0. -1.
         11    1    3    3    0    0 -0.67714469324E+01  0.14289104696E+02 -0.36195750739E+02  0.39498903508E+02  0.51100000000E-03 0. -1.
        -11    1    3    3    0    0  0.10086862741E+02 -0.21574796649E+01 -0.22775242868E+01  0.10563457559E+02  0.51100000000E-03 0.  1.
        -12    1    3    3    0    0 -0.26445150868E+01 -0.11185168775E+02  0.38256121769E+02  0.39945366607E+02  0.00000000000E+00 0.  1.
</event>
<event>
 7    1  0.2284751E-015  0.9000758E+02  0.7816164E-02  0.1186339E+00
        -11   -1    0    0    0    0  0.00000000000E+00  0.00000000000E+00  0.45593999997E+02  0.45594000000E+02  0.51100000000E-03 0.  1.
         11   -1    0    0    0    0 -0.00000000000E+00 -0.00000000000E+00 -0.45593999997E+02  0.45594000000E+02  0.51100000000E-03 0. -1.
    9900012    2    1    2    0    0 -0.80467317911E+00  0.60893911338E+00  0.61243706555E+00  0.90007582731E+02  0.89999842023E+02 0.  0.
         12    1    1    2    0    0  0.80467317911E+00 -0.60893911338E+00 -0.61243706555E+00  0.11804172687E+01  0.00000000000E+00 0. -1.
         11    1    3    3    0    0 -0.77163031829E+01 -0.24405669316E+02  0.15493830454E+02  0.29920508217E+02  0.51100000000E-03 0. -1.
        -11    1    3    3    0    0 -0.81693037047E+01 -0.49099126375E+01  0.13258608001E+02  0.16328975826E+02  0.51100000000E-03 0.  1.
        -12    1    3    3    0    0  0.15080933709E+02  0.29924521067E+02 -0.28140001390E+02  0.43758098688E+02  0.00000000000E+00 0.  1.
</event>
<event>
 7    1  0.2284751E-015  0.9000777E+02  0.7816164E-02  0.1186339E+00
        -11   -1    0    0    0    0  0.00000000000E+00  0.00000000000E+00  0.45593999997E+02  0.45594000000E+02  0.51100000000E-03 0. -1.
         11   -1    0    0    0    0 -0.00000000000E+00 -0.00000000000E+00 -0.45593999997E+02  0.45594000000E+02  0.51100000000E-03 0.  1.
    9900012    2    1    2    0    0 -0.11601972191E+01  0.86012547087E-01 -0.19870955885E+00  0.90007770686E+02  0.90000032459E+02 0.  0.
         12    1    1    2    0    0  0.11601972191E+01 -0.86012547087E-01  0.19870955885E+00  0.11802293143E+01  0.00000000000E+00 0. -1.
         11    1    3    3    0    0 -0.42913769335E+01  0.23268811184E+01 -0.47397908780E+01  0.68041097546E+01  0.51100000000E-03 0. -1.
        -11    1    3    3    0    0 -0.60625936042E+01 -0.39150353207E+02 -0.12473649529E+02  0.41534288609E+02  0.51100000000E-03 0.  1.
         12    1    3    3    0    0  0.91937733186E+01  0.36909484635E+02  0.17014730848E+02  0.41669372322E+02  0.00000000000E+00 0. -1.
</event>
<event>
 7    1  0.2284751E-015  0.9000773E+02  0.7816164E-02  0.1186339E+00
        -11   -1    0    0    0    0  0.00000000000E+00  0.00000000000E+00  0.45593999997E+02  0.45594000000E+02  0.51100000000E-03 0.  1.
         11   -1    0    0    0    0 -0.00000000000E+00 -0.00000000000E+00 -0.45593999997E+02  0.45594000000E+02  0.51100000000E-03 0. -1.
    9900012    2    1    2    0    0  0.88265514294E+00  0.37036672416E+00  0.69050000836E+00  0.90007728051E+02  0.89999989261E+02 0.  0.
         12    1    1    2    0    0 -0.88265514294E+00 -0.37036672416E+00 -0.69050000836E+00  0.11802719489E+01  0.00000000000E+00 0. -1.
         11    1    3    3    0    0  0.77203220018E+01  0.40235229406E+02  0.81488475057E+01  0.41771770049E+02  0.51100000000E-03 0. -1.
        -11    1    3    3    0    0 -0.36345183869E+01 -0.26902349285E+01  0.69055202158E+01  0.82542896476E+01  0.51100000000E-03 0.  1.
        -12    1    3    3    0    0 -0.32031484720E+01 -0.37174627753E+02 -0.14363867713E+02  0.39981668354E+02  0.00000000000E+00 0.  1.
</event>
<event>
 7    1  0.2284751E-015  0.9000779E+02  0.7816164E-02  0.1186339E+00
        -11   -1    0    0    0    0  0.00000000000E+00  0.00000000000E+00  0.45593999997E+02  0.45594000000E+02  0.51100000000E-03 0.  1.
         11   -1    0    0    0    0 -0.00000000000E+00 -0.00000000000E+00 -0.45593999997E+02  0.45594000000E+02  0.51100000000E-03 0. -1.
    9900012    2    1    2    0    0 -0.11600162815E+01  0.13631285489E-01  0.21693755434E+00  0.90007794303E+02  0.90000056388E+02 0.  0.
         12    1    1    2    0    0  0.11600162815E+01 -0.13631285489E-01 -0.21693755434E+00  0.11802056972E+01  0.00000000000E+00 0. -1.
         11    1    3    3    0    0  0.21131637784E+01 -0.31300827626E+01 -0.98630604358E+01  0.10561384411E+02  0.51100000000E-03 0. -1.
        -11    1    3    3    0    0  0.51296323362E+00 -0.34560357435E+02 -0.10759878640E+02  0.36200226877E+02  0.51100000000E-03 0.  1.
         12    1    3    3    0    0 -0.37861432935E+01  0.37704071483E+02  0.20839876630E+02  0.43246183015E+02  0.00000000000E+00 0. -1.
</event>
<event>
 7    1  0.2284751E-015  0.9000768E+02  0.7816164E-02  0.1186339E+00
        -11   -1    0    0    0    0  0.00000000000E+00  0.00000000000E+00  0.45593999997E+02  0.45594000000E+02  0.51100000000E-03 0.  1.
         11   -1    0    0    0    0 -0.00000000000E+00 -0.00000000000E+00 -0.45593999997E+02  0.45594000000E+02  0.51100000000E-03 0. -1.
    9900012    2    1    2    0    0  0.24124843424E+00 -0.10748169390E+01 -0.42392396677E+00  0.90007684877E+02  0.89999945518E+02 0.  0.
         12    1    1    2    0    0 -0.24124843424E+00  0.10748169390E+01  0.42392396677E+00  0.11803151227E+01  0.00000000000E+00 0. -1.
         11    1    3    3    0    0  0.25428053681E+02 -0.24590226056E+02 -0.18206925793E+02  0.39783882146E+02  0.51100000000E-03 0. -1.
        -11    1    3    3    0    0 -0.44328117147E+00 -0.54242053467E+01 -0.36284199010E+01  0.65409428280E+01  0.51100000000E-03 0.  1.
        -12    1    3    3    0    0 -0.24743524075E+02  0.28939614464E+02  0.21411421727E+02  0.43682859904E+02  0.00000000000E+00 0.  1.
</event>
<event>
 7    1  0.2284751E-015  0.9000761E+02  0.7816164E-02  0.1186339E+00
        -11   -1    0    0    0    0  0.00000000000E+00  0.00000000000E+00  0.45593999997E+02  0.45594000000E+02  0.51100000000E-03 0.  1.
         11   -1    0    0    0    0 -0.00000000000E+00 -0.00000000000E+00 -0.45593999997E+02  0.45594000000E+02  0.51100000000E-03 0. -1.
    9900012    2    1    2    0    0  0.11632208378E+01  0.38867261289E-01  0.19678097168E+00  0.90007611872E+02  0.89999871549E+02 0.  0.
         12    1    1    2    0    0 -0.11632208378E+01 -0.38867261289E-01 -0.19678097168E+00  0.11803881278E+01  0.00000000000E+00 0. -1.
         11    1    3    3    0    0  0.34276074954E+01 -0.21436535626E+01 -0.88535509446E+01  0.97328879747E+01  0.51100000000E-03 0. -1.
        -11    1    3    3    0    0  0.28217037537E+02  0.36302052546E+01 -0.22581811305E+02  0.36322414562E+02  0.51100000000E-03 0.  1.
         12    1    3    3    0    0 -0.30481424195E+02 -0.14476844307E+01  0.31632143221E+02  0.43952309335E+02  0.00000000000E+00 0. -1.
</event>
<event>
 7    1  0.2302415E-015  0.9000778E+02  0.7816164E-02  0.1186339E+00
        -11   -1    0    0    0    0  0.00000000000E+00  0.00000000000E+00  0.45593999997E+02  0.45594000000E+02  0.51100000000E-03 0. -1.
         11   -1    0    0    0    0 -0.00000000000E+00 -0.00000000000E+00 -0.45593999997E+02  0.45594000000E+02  0.51100000000E-03 0.  1.
    9900012    2    1    2    0    0  0.99117171743E+00  0.63052943543E+00 -0.11375355249E+00  0.90007776033E+02  0.90000037876E+02 0.  0.
         12    1    1    2    0    0 -0.99117171743E+00 -0.63052943543E+00  0.11375355249E+00  0.11802239673E+01  0.00000000000E+00 0. -1.
         11    1    3    3    0    0 -0.61060224562E+01  0.27347603037E+02  0.25658666930E+02  0.37993974403E+02  0.51100000000E-03 0. -1.
        -11    1    3    3    0    0 -0.76378479157E+01  0.54341639499E+01 -0.25859145449E+01  0.97238784913E+01  0.51100000000E-03 0.  1.
        -12    1    3    3    0    0  0.14735042089E+02 -0.32151237551E+02 -0.23186505937E+02  0.42289923138E+02  0.00000000000E+00 0.  1.
</event>
<event>
 7    1  0.2511831E-015  0.9000715E+02  0.7816164E-02  0.1186340E+00
        -11   -1    0    0    0    0  0.00000000000E+00  0.00000000000E+00  0.45593999997E+02  0.45594000000E+02  0.51100000000E-03 0. -1.
         11   -1    0    0    0    0 -0.00000000000E+00 -0.00000000000E+00 -0.45593999997E+02  0.45594000000E+02  0.51100000000E-03 0.  1.
    9900012    2    1    2    0    0 -0.29727653546E+00 -0.46242088531E+00 -0.10450845299E+01  0.90007149422E+02  0.89999402992E+02 0.  0.
         12    1    1    2    0    0  0.29727653546E+00  0.46242088531E+00  0.10450845299E+01  0.11808505783E+01  0.00000000000E+00 0. -1.
         11    1    3    3    0    0  0.76078910142E+00  0.34407088734E+02  0.23862628710E+02  0.41879011503E+02  0.51100000000E-03 0. -1.
        -11    1    3    3    0    0  0.76498394740E+01 -0.55820235584E+01 -0.13911991208E+01  0.95715446110E+01  0.51100000000E-03 0.  1.
        -12    1    3    3    0    0 -0.87079051109E+01 -0.29287486061E+02 -0.23516514120E+02  0.38556593308E+02  0.00000000000E+00 0.  1.
</event>
<event>
 7    1  0.2284751E-015  0.9000779E+02  0.7816164E-02  0.1186339E+00
        -11   -1    0    0    0    0  0.00000000000E+00  0.00000000000E+00  0.45593999997E+02  0.45594000000E+02  0.51100000000E-03 0.  1.
         11   -1    0    0    0    0 -0.00000000000E+00 -0.00000000000E+00 -0.45593999997E+02  0.45594000000E+02  0.51100000000E-03 0. -1.
    9900012    2    1    2    0    0  0.36204278651E+00 -0.92350655013E+00  0.63948826961E+00  0.90007794690E+02  0.90000056780E+02 0.  0.
         12    1    1    2    0    0 -0.36204278651E+00  0.92350655013E+00 -0.63948826961E+00  0.11802053103E+01  0.00000000000E+00 0. -1.
         11    1    3    3    0    0  0.24515579807E+01 -0.70813010031E+01  0.65941499025E+01  0.99818722506E+01  0.51100000000E-03 0. -1.
        -11    1    3    3    0    0  0.14917384939E+02 -0.32862673586E+02  0.40024922389E+01  0.36311205337E+02  0.51100000000E-03 0.  1.
         12    1    3    3    0    0 -0.17006900133E+02  0.39020468039E+02 -0.99571538718E+01  0.43714717102E+02  0.00000000000E+00 0. -1.
</event>
<event>
 7    1  0.2284751E-015  0.9000772E+02  0.7816164E-02  0.1186339E+00
        -11   -1    0    0    0    0  0.00000000000E+00  0.00000000000E+00  0.45593999997E+02  0.45594000000E+02  0.51100000000E-03 0.  1.
         11   -1    0    0    0    0 -0.00000000000E+00 -0.00000000000E+00 -0.45593999997E+02  0.45594000000E+02  0.51100000000E-03 0. -1.
    9900012    2    1    2    0    0 -0.11700541966E+01  0.34053780737E-01  0.15126813732E+00  0.90007716758E+02  0.89999977819E+02 0.  0.
         12    1    1    2    0    0  0.11700541966E+01 -0.34053780737E-01 -0.15126813732E+00  0.11802832424E+01  0.00000000000E+00 0. -1.
         11    1    3    3    0    0  0.58133723075E+01  0.55287085165E+01  0.20653565876E+01  0.82841785073E+01  0.51100000000E-03 0. -1.
        -11    1    3    3    0    0 -0.63507135143E+01  0.29895076530E+02  0.23160470270E+02  0.38346506311E+02  0.51100000000E-03 0.  1.
         12    1    3    3    0    0 -0.63271298979E+00 -0.35389731266E+02 -0.25074558721E+02  0.43377031939E+02  0.00000000000E+00 0. -1.
</event>
<event>
 7    1  0.2284751E-015  0.9000778E+02  0.7816164E-02  0.1186339E+00
        -11   -1    0    0    0    0  0.00000000000E+00  0.00000000000E+00  0.45593999997E+02  0.45594000000E+02  0.51100000000E-03 0. -1.
         11   -1    0    0    0    0 -0.00000000000E+00 -0.00000000000E+00 -0.45593999997E+02  0.45594000000E+02  0.51100000000E-03 0.  1.
    9900012    2    1    2    0    0 -0.10506970780E+01 -0.44385691248E+00 -0.30324307191E+00  0.90007775585E+02  0.90000037423E+02 0.  0.
         12    1    1    2    0    0  0.10506970780E+01  0.44385691248E+00  0.30324307191E+00  0.11802244148E+01  0.00000000000E+00 0. -1.
         11    1    3    3    0    0 -0.12472797110E+02 -0.19016202886E+02 -0.64969495400E+01  0.23651574864E+02  0.51100000000E-03 0. -1.
        -11    1    3    3    0    0 -0.17135601608E+02  0.30600067567E+02  0.27722502187E+01  0.35180653051E+02  0.51100000000E-03 0.  1.
         12    1    3    3    0    0  0.28557701640E+02 -0.12027721593E+02  0.34214562494E+01  0.31175547670E+02  0.00000000000E+00 0. -1.
</event>
<event>
 7    1  0.2284751E-015  0.9000780E+02  0.7816164E-02  0.1186339E+00
        -11   -1    0    0    0    0  0.00000000000E+00  0.00000000000E+00  0.45593999997E+02  0.45594000000E+02  0.51100000000E-03 0. -1.
         11   -1    0    0    0    0 -0.00000000000E+00 -0.00000000000E+00 -0.45593999997E+02  0.45594000000E+02  0.51100000000E-03 0.  1.
    9900012    2    1    2    0    0  0.22118507939E-02  0.78513458851E-01 -0.11775792563E+01  0.90007804186E+02  0.90000066401E+02 0.  0.
         12    1    1    2    0    0 -0.22118507939E-02 -0.78513458851E-01  0.11775792563E+01  0.11801958144E+01  0.00000000000E+00 0. -1.
         11    1    3    3    0    0  0.53048296783E+01  0.54735727402E+01 -0.37669729707E+01  0.85024291870E+01  0.51100000000E-03 0. -1.
        -11    1    3    3    0    0 -0.20356515939E+01  0.30416663429E+02 -0.22301072059E+02  0.37771088240E+02  0.51100000000E-03 0.  1.
         12    1    3    3    0    0 -0.32669662336E+01 -0.35811722711E+02  0.24890465773E+02  0.43734286759E+02  0.00000000000E+00 0. -1.
</event>
<event>
 7    1  0.2284751E-015  0.9000774E+02  0.7816164E-02  0.1186339E+00
        -11   -1    0    0    0    0  0.00000000000E+00  0.00000000000E+00  0.45593999997E+02  0.45594000000E+02  0.51100000000E-03 0.  1.
         11   -1    0    0    0    0 -0.00000000000E+00 -0.00000000000E+00 -0.45593999997E+02  0.45594000000E+02  0.51100000000E-03 0. -1.
    9900012    2    1    2    0    0  0.10380442609E+01  0.54737827396E+00  0.12591967811E+00  0.90007739593E+02  0.90000000956E+02 0.  0.
         12    1    1    2    0    0 -0.10380442609E+01 -0.54737827396E+00 -0.12591967811E+00  0.11802604067E+01  0.00000000000E+00 0. -1.
         11    1    3    3    0    0 -0.39224633123E-01 -0.17070787507E+01  0.97491334421E+01  0.98975380558E+01  0.51100000000E-03 0. -1.
        -11    1    3    3    0    0  0.30923482340E+02  0.53422533954E+01  0.20586474239E+02  0.37531378248E+02  0.51100000000E-03 0.  1.
         12    1    3    3    0    0 -0.29846213446E+02 -0.30877963707E+01 -0.30209688003E+02  0.42578823289E+02  0.00000000000E+00 0. -1.
</event>
<event>
 7    1  0.2284751E-015  0.9000773E+02  0.7816164E-02  0.1186339E+00
        -11   -1    0    0    0    0  0.00000000000E+00  0.00000000000E+00  0.45593999997E+02  0.45594000000E+02  0.51100000000E-03 0.  1.
         11   -1    0    0    0    0 -0.00000000000E+00 -0.00000000000E+00 -0.45593999997E+02  0.45594000000E+02  0.51100000000E-03 0. -1.
    9900012    2    1    2    0    0  0.83207690472E+00 -0.97143876759E-01  0.83141837295E+00  0.90007726549E+02  0.89999987739E+02 0.  0.
         12    1    1    2    0    0 -0.83207690472E+00  0.97143876759E-01 -0.83141837295E+00  0.11802734510E+01  0.00000000000E+00 0. -1.
         11    1    3    3    0    0  0.92075323805E+01 -0.33741529953E+01  0.41106503134E+01  0.10633014964E+02  0.51100000000E-03 0. -1.
        -11    1    3    3    0    0  0.29985342112E+02  0.20458523662E+02  0.46633940384E+01  0.36598076127E+02  0.51100000000E-03 0.  1.
         12    1    3    3    0    0 -0.38360797588E+02 -0.17181514543E+02 -0.79426259788E+01  0.42776635457E+02  0.00000000000E+00 0. -1.
</event>
<event>
 7    1  0.2284751E-015  0.9000773E+02  0.7816164E-02  0.1186339E+00
        -11   -1    0    0    0    0  0.00000000000E+00  0.00000000000E+00  0.45593999997E+02  0.45594000000E+02  0.51100000000E-03 0. -1.
         11   -1    0    0    0    0 -0.00000000000E+00 -0.00000000000E+00 -0.45593999997E+02  0.45594000000E+02  0.51100000000E-03 0.  1.
    9900012    2    1    2    0    0  0.27494857990E+00  0.71870318407E+00 -0.89492760478E+00  0.90007734603E+02  0.89999995900E+02 0.  0.
         12    1    1    2    0    0 -0.27494857990E+00 -0.71870318407E+00  0.89492760478E+00  0.11802653965E+01  0.00000000000E+00 0. -1.
         11    1    3    3    0    0  0.38097942410E+02 -0.10579963320E+02  0.70304547712E+01  0.40159882150E+02  0.51100000000E-03 0. -1.
        -11    1    3    3    0    0  0.28100792402E+00 -0.30042919456E+01 -0.86294378150E+01  0.91417685823E+01  0.51100000000E-03 0.  1.
        -12    1    3    3    0    0 -0.38104001754E+02  0.14302958449E+02  0.70405543910E+00  0.40706083871E+02  0.00000000000E+00 0.  1.
</event>
<event>
 7    1  0.2284751E-015  0.9000783E+02  0.7816164E-02  0.1186339E+00
        -11   -1    0    0    0    0  0.00000000000E+00  0.00000000000E+00  0.45593999997E+02  0.45594000000E+02  0.51100000000E-03 0.  1.
         11   -1    0    0    0    0 -0.00000000000E+00 -0.00000000000E+00 -0.45593999997E+02  0.45594000000E+02  0.51100000000E-03 0. -1.
    9900012    2    1    2    0    0 -0.42258290508E+00  0.35756909131E+00  0.10422871208E+01  0.90007832889E+02  0.90000095483E+02 0.  0.
         12    1    1    2    0    0  0.42258290508E+00 -0.35756909131E+00 -0.10422871208E+01  0.11801671106E+01  0.00000000000E+00 0. -1.
         11    1    3    3    0    0 -0.12738860367E+02  0.25674602516E+02  0.27531053781E+02  0.39741951391E+02  0.51100000000E-03 0. -1.
        -11    1    3    3    0    0  0.10747510304E+02  0.42585829295E+01 -0.17831828501E+01  0.11697189733E+02  0.51100000000E-03 0.  1.
        -12    1    3    3    0    0  0.15687671580E+01 -0.29575616354E+02 -0.24705583810E+02  0.38568691766E+02  0.00000000000E+00 0.  1.
</event>
<event>
 7    1  0.2284751E-015  0.9000771E+02  0.7816164E-02  0.1186339E+00
        -11   -1    0    0    0    0  0.00000000000E+00  0.00000000000E+00  0.45593999997E+02  0.45594000000E+02  0.51100000000E-03 0.  1.
         11   -1    0    0    0    0 -0.00000000000E+00 -0.00000000000E+00 -0.45593999997E+02  0.45594000000E+02  0.51100000000E-03 0. -1.
    9900012    2    1    2    0    0 -0.59918166859E+00 -0.69636158011E+00  0.74104728682E+00  0.90007708001E+02  0.89999968946E+02 0.  0.
         12    1    1    2    0    0  0.59918166859E+00  0.69636158011E+00 -0.74104728682E+00  0.11802919993E+01  0.00000000000E+00 0. -1.
         11    1    3    3    0    0  0.52539993114E+01  0.73923984647E+01 -0.72376857678E+00  0.90981264577E+01  0.51100000000E-03 0. -1.
        -11    1    3    3    0    0  0.20779981589E+02  0.15259899213E+02  0.26934072216E+02  0.37284264848E+02  0.51100000000E-03 0.  1.
         12    1    3    3    0    0 -0.26633162569E+02 -0.23348659258E+02 -0.25469256353E+02  0.43625316695E+02  0.00000000000E+00 0. -1.
</event>
<event>
 7    1  0.2284751E-015  0.9000769E+02  0.7816164E-02  0.1186339E+00
        -11   -1    0    0    0    0  0.00000000000E+00  0.00000000000E+00  0.45593999997E+02  0.45594000000E+02  0.51100000000E-03 0.  1.
         11   -1    0    0    0    0 -0.00000000000E+00 -0.00000000000E+00 -0.45593999997E+02  0.45594000000E+02  0.51100000000E-03 0. -1.
    9900012    2    1    2    0    0  0.96563275129E+00  0.36680969752E+00  0.57107406122E+00  0.90007694299E+02  0.89999955064E+02 0.  0.
         12    1    1    2    0    0 -0.96563275129E+00 -0.36680969752E+00 -0.57107406122E+00  0.11803057011E+01  0.00000000000E+00 0. -1.
         11    1    3    3    0    0  0.35266084054E+02  0.21345313456E+02 -0.12571438434E+02  0.43097101475E+02  0.51100000000E-03 0. -1.
        -11    1    3    3    0    0 -0.18255109245E+02  0.32641564575E+00  0.37907101523E+01  0.18647387067E+02  0.51100000000E-03 0.  1.
        -12    1    3    3    0    0 -0.16045342058E+02 -0.21304919404E+02  0.93518023429E+01  0.28263205756E+02  0.00000000000E+00 0.  1.
</event>
<event>
 7    1  0.2284751E-015  0.9000777E+02  0.7816164E-02  0.1186339E+00
        -11   -1    0    0    0    0  0.00000000000E+00  0.00000000000E+00  0.45593999997E+02  0.45594000000E+02  0.51100000000E-03 0.  1.
         11   -1    0    0    0    0 -0.00000000000E+00 -0.00000000000E+00 -0.45593999997E+02  0.45594000000E+02  0.51100000000E-03 0. -1.
    9900012    2    1    2    0    0 -0.63257215703E+00 -0.99121174282E+00  0.10147762197E+00  0.90007768683E+02  0.90000030430E+02 0.  0.
         12    1    1    2    0    0  0.63257215703E+00  0.99121174282E+00 -0.10147762197E+00  0.11802313166E+01  0.00000000000E+00 0. -1.
         11    1    3    3    0    0  0.17109239958E+02 -0.66991501471E+01 -0.31012010601E+01  0.18633897953E+02  0.51100000000E-03 0. -1.
        -11    1    3    3    0    0  0.11943926375E+02  0.18057048955E+02  0.24586779084E+02  0.32760099210E+02  0.51100000000E-03 0.  1.
         12    1    3    3    0    0 -0.29685738490E+02 -0.12349110551E+02 -0.21384100402E+02  0.38613771521E+02  0.00000000000E+00 0. -1.
</event>
<event>
 7    1  0.2284751E-015  0.9000778E+02  0.7816164E-02  0.1186339E+00
        -11   -1    0    0    0    0  0.00000000000E+00  0.00000000000E+00  0.45593999997E+02  0.45594000000E+02  0.51100000000E-03 0. -1.
         11   -1    0    0    0    0 -0.00000000000E+00 -0.00000000000E+00 -0.45593999997E+02  0.45594000000E+02  0.51100000000E-03 0.  1.
    9900012    2    1    2    0    0 -0.60914949961E+00  0.10103212051E+01 -0.33297496553E-01  0.90007779354E+02  0.90000041241E+02 0.  0.
         12    1    1    2    0    0  0.60914949961E+00 -0.10103212051E+01  0.33297496553E-01  0.11802206462E+01  0.00000000000E+00 0. -1.
         11    1    3    3    0    0  0.43613122802E+01  0.24684044125E+01 -0.74997707586E+01  0.90200125743E+01  0.51100000000E-03 0. -1.
        -11    1    3    3    0    0 -0.32456870912E+02 -0.12232968067E+02 -0.20525910376E+02  0.40303932490E+02  0.51100000000E-03 0.  1.
         12    1    3    3    0    0  0.27486409133E+02  0.10774884860E+02  0.27992383638E+02  0.40683834289E+02  0.00000000000E+00 0. -1.
</event>
<event>
 7    1  0.2284751E-015  0.9000769E+02  0.7816164E-02  0.1186339E+00
        -11   -1    0    0    0    0  0.00000000000E+00  0.00000000000E+00  0.45593999997E+02  0.45594000000E+02  0.51100000000E-03 0. -1.
         11   -1    0    0    0    0 -0.00000000000E+00 -0.00000000000E+00 -0.45593999997E+02  0.45594000000E+02  0.51100000000E-03 0.  1.
    9900012    2    1    2    0    0 -0.12693245833E+00 -0.11732990410E+01 -0.19982712901E-01  0.90007685721E+02  0.89999946372E+02 0.  0.
         12    1    1    2    0    0  0.12693245833E+00  0.11732990410E+01  0.19982712901E-01  0.11803142791E+01  0.00000000000E+00 0. -1.
         11    1    3    3    0    0 -0.24163201669E+01 -0.35512607003E+02  0.18658900631E+02  0.40188784907E+02  0.51100000000E-03 0. -1.
        -11    1    3    3    0    0 -0.60724138276E+01  0.49863428360E+01  0.65432457650E+01  0.10225061857E+02  0.51100000000E-03 0.  1.
        -12    1    3    3    0    0  0.83618015361E+01  0.29352965126E+02 -0.25222129109E+02  0.39593838957E+02  0.00000000000E+00 0.  1.
</event>
<event>
 7    1  0.2284751E-015  0.9000754E+02  0.7816164E-02  0.1186339E+00
        -11   -1    0    0    0    0  0.00000000000E+00  0.00000000000E+00  0.45593999997E+02  0.45594000000E+02  0.51100000000E-03 0. -1.
         11   -1    0    0    0    0 -0.00000000000E+00 -0.00000000000E+00 -0.45593999997E+02  0.45594000000E+02  0.51100000000E-03 0.  1.
    9900012    2    1    2    0    0 -0.54874769558E+00 -0.53799257769E-01 -0.10437797040E+01  0.90007536335E+02  0.89999795015E+02 0.  0.
         12    1    1    2    0    0  0.54874769558E+00  0.53799257769E-01  0.10437797040E+01  0.11804636649E+01  0.00000000000E+00 0. -1.
         11    1    3    3    0    0  0.32257581790E+01 -0.44325056298E+01  0.50218475677E+01  0.74344855398E+01  0.51100000000E-03 0. -1.
        -11    1    3    3    0    0  0.27725599668E+01 -0.37148073076E+02  0.82662092516E+01  0.38157523999E+02  0.51100000000E-03 0.  1.
         12    1    3    3    0    0 -0.65470658414E+01  0.41526779448E+02 -0.14331836523E+02  0.44415526797E+02  0.00000000000E+00 0. -1.
</event>
<event>
 7    1  0.2284751E-015  0.9000762E+02  0.7816164E-02  0.1186339E+00
        -11   -1    0    0    0    0  0.00000000000E+00  0.00000000000E+00  0.45593999997E+02  0.45594000000E+02  0.51100000000E-03 0.  1.
         11   -1    0    0    0    0 -0.00000000000E+00 -0.00000000000E+00 -0.45593999997E+02  0.45594000000E+02  0.51100000000E-03 0. -1.
    9900012    2    1    2    0    0  0.97947353503E+00 -0.65571166799E+00 -0.63100975612E-01  0.90007615346E+02  0.89999875069E+02 0.  0.
         12    1    1    2    0    0 -0.97947353503E+00  0.65571166799E+00  0.63100975612E-01  0.11803846536E+01  0.00000000000E+00 0. -1.
         11    1    3    3    0    0 -0.56622676278E+01 -0.49479528370E+01  0.58799476219E+01  0.95455380290E+01  0.51100000000E-03 0. -1.
        -11    1    3    3    0    0  0.29814806317E+02  0.24004464081E+02  0.17467519150E+02  0.42074353198E+02  0.51100000000E-03 0.  1.
         12    1    3    3    0    0 -0.23173065154E+02 -0.19712222912E+02 -0.23410567748E+02  0.38387724119E+02  0.00000000000E+00 0. -1.
</event>
<event>
 7    1  0.2284751E-015  0.9000748E+02  0.7816164E-02  0.1186340E+00
        -11   -1    0    0    0    0  0.00000000000E+00  0.00000000000E+00  0.45593999997E+02  0.45594000000E+02  0.51100000000E-03 0. -1.
         11   -1    0    0    0    0 -0.00000000000E+00 -0.00000000000E+00 -0.45593999997E+02  0.45594000000E+02  0.51100000000E-03 0.  1.
    9900012    2    1    2    0    0  0.11834232691E+00 -0.82777126692E-01 -0.11716487945E+01  0.90007484072E+02  0.89999742061E+02 0.  0.
         12    1    1    2    0    0 -0.11834232691E+00  0.82777126692E-01  0.11716487945E+01  0.11805159282E+01  0.00000000000E+00 0. -1.
         11    1    3    3    0    0  0.13894657725E+02 -0.31761838155E+02 -0.12452497962E+02  0.36836674416E+02  0.51100000000E-03 0. -1.
        -11    1    3    3    0    0  0.10258445924E+02  0.13710578462E+01 -0.46387249579E+01  0.11341661337E+02  0.51100000000E-03 0.  1.
        -12    1    3    3    0    0 -0.24034761322E+02  0.30308003182E+02  0.15919574125E+02  0.41829148318E+02  0.00000000000E+00 0.  1.
</event>
<event>
 7    1  0.2284751E-015  0.9000779E+02  0.7816164E-02  0.1186339E+00
        -11   -1    0    0    0    0  0.00000000000E+00  0.00000000000E+00  0.45593999997E+02  0.45594000000E+02  0.51100000000E-03 0. -1.
         11   -1    0    0    0    0 -0.00000000000E+00 -0.00000000000E+00 -0.45593999997E+02  0.45594000000E+02  0.51100000000E-03 0.  1.
    9900012    2    1    2    0    0 -0.84466420043E-02 -0.30090114212E+00 -0.11411749566E+01  0.90007791067E+02  0.90000053109E+02 0.  0.
         12    1    1    2    0    0  0.84466420043E-02  0.30090114212E+00  0.11411749566E+01  0.11802089326E+01  0.00000000000E+00 0. -1.
         11    1    3    3    0    0  0.29051071244E+01 -0.12328166072E+01  0.10744509902E+02  0.11198391737E+02  0.51100000000E-03 0. -1.
        -11    1    3    3    0    0  0.77241850854E+01 -0.34798047370E+02 -0.19689385990E+02  0.40721481517E+02  0.51100000000E-03 0.  1.
         12    1    3    3    0    0 -0.10637738852E+02  0.35729962835E+02  0.78037011315E+01  0.38087917814E+02  0.00000000000E+00 0. -1.
</event>
<event>
 7    1  0.2284751E-015  0.9000776E+02  0.7816164E-02  0.1186339E+00
        -11   -1    0    0    0    0  0.00000000000E+00  0.00000000000E+00  0.45593999997E+02  0.45594000000E+02  0.51100000000E-03 0.  1.
         11   -1    0    0    0    0 -0.00000000000E+00 -0.00000000000E+00 -0.45593999997E+02  0.45594000000E+02  0.51100000000E-03 0. -1.
    9900012    2    1    2    0    0 -0.53434234118E-01 -0.11723046068E+01  0.12574100537E+00  0.90007760995E+02  0.90000022640E+02 0.  0.
         12    1    1    2    0    0  0.53434234118E-01  0.11723046068E+01 -0.12574100537E+00  0.11802390050E+01  0.00000000000E+00 0. -1.
         11    1    3    3    0    0 -0.41253863900E+01 -0.31387959977E+01 -0.35834957964E+02  0.36207942025E+02  0.51100000000E-03 0. -1.
        -11    1    3    3    0    0 -0.55718951687E+01 -0.34943204455E+01 -0.68982795572E+01  0.95311359374E+01  0.51100000000E-03 0.  1.
        -12    1    3    3    0    0  0.96438473246E+01  0.54608118363E+01  0.42858978526E+02  0.44268683033E+02  0.00000000000E+00 0.  1.
</event>
<event>
 7    1  0.2284751E-015  0.9000781E+02  0.7816164E-02  0.1186339E+00
        -11   -1    0    0    0    0  0.00000000000E+00  0.00000000000E+00  0.45593999997E+02  0.45594000000E+02  0.51100000000E-03 0.  1.
         11   -1    0    0    0    0 -0.00000000000E+00 -0.00000000000E+00 -0.45593999997E+02  0.45594000000E+02  0.51100000000E-03 0. -1.
    9900012    2    1    2    0    0  0.96120076155E+00 -0.32378635171E+00 -0.60340996009E+00  0.90007810149E+02  0.90000072442E+02 0.  0.
         12    1    1    2    0    0 -0.96120076155E+00  0.32378635171E+00  0.60340996009E+00  0.11801898515E+01  0.00000000000E+00 0. -1.
         11    1    3    3    0    0 -0.48248963166E+01 -0.36096188184E+01 -0.30013622732E+00  0.60331628932E+01  0.51100000000E-03 0. -1.
        -11    1    3    3    0    0 -0.12176196023E+01  0.40450234608E+02 -0.15337229812E+02  0.43277415541E+02  0.51100000000E-03 0.  1.
         12    1    3    3    0    0  0.70037166804E+01 -0.37164402141E+02  0.15033956079E+02  0.40697231715E+02  0.00000000000E+00 0. -1.
</event>
<event>
 7    1  0.2284751E-015  0.9000780E+02  0.7816164E-02  0.1186339E+00
        -11   -1    0    0    0    0  0.00000000000E+00  0.00000000000E+00  0.45593999997E+02  0.45594000000E+02  0.51100000000E-03 0.  1.
         11   -1    0    0    0    0 -0.00000000000E+00 -0.00000000000E+00 -0.45593999997E+02  0.45594000000E+02  0.51100000000E-03 0. -1.
    9900012    2    1    2    0    0 -0.47228083722E+00  0.10703579112E+01  0.15538753075E+00  0.90007804875E+02  0.90000067100E+02 0.  0.
         12    1    1    2    0    0  0.47228083722E+00 -0.10703579112E+01 -0.15538753075E+00  0.11801951245E+01  0.00000000000E+00 0. -1.
         11    1    3    3    0    0 -0.37232911713E+00  0.18657763517E+01  0.11202502070E+02  0.11362913502E+02  0.51100000000E-03 0. -1.
        -11    1    3    3    0    0  0.88423138704E+01 -0.33349148989E+02  0.13348059571E+02  0.36993552782E+02  0.51100000000E-03 0.  1.
         12    1    3    3    0    0 -0.89422655905E+01  0.32553730549E+02 -0.24395174111E+02  0.41651338591E+02  0.00000000000E+00 0. -1.
</event>
<event>
 7    1  0.2284751E-015  0.9000769E+02  0.7816164E-02  0.1186339E+00
        -11   -1    0    0    0    0  0.00000000000E+00  0.00000000000E+00  0.45593999997E+02  0.45594000000E+02  0.51100000000E-03 0.  1.
         11   -1    0    0    0    0 -0.00000000000E+00 -0.00000000000E+00 -0.45593999997E+02  0.45594000000E+02  0.51100000000E-03 0. -1.
    9900012    2    1    2    0    0  0.70978596862E+00  0.84793499218E+00  0.41272280985E+00  0.90007690723E+02  0.89999951440E+02 0.  0.
         12    1    1    2    0    0 -0.70978596862E+00 -0.84793499218E+00 -0.41272280985E+00  0.11803092773E+01  0.00000000000E+00 0. -1.
         11    1    3    3    0    0  0.32726396275E+02  0.21906606640E+02 -0.46868722473E+01  0.39659591518E+02  0.51100000000E-03 0. -1.
        -11    1    3    3    0    0  0.34167931870E+01 -0.32411144387E+01 -0.73935031106E+01  0.87660245833E+01  0.51100000000E-03 0.  1.
        -12    1    3    3    0    0 -0.35433403494E+02 -0.17817557209E+02  0.12493098168E+02  0.41582074622E+02  0.00000000000E+00 0.  1.
</event>
<event>
 7    1  0.2284751E-015  0.9000777E+02  0.7816164E-02  0.1186339E+00
        -11   -1    0    0    0    0  0.00000000000E+00  0.00000000000E+00  0.45593999997E+02  0.45594000000E+02  0.51100000000E-03 0.  1.
         11   -1    0    0    0    0 -0.00000000000E+00 -0.00000000000E+00 -0.45593999997E+02  0.45594000000E+02  0.51100000000E-03 0. -1.
    9900012    2    1    2    0    0 -0.38820958834E+00  0.95155030666E+00  0.58032449911E+00  0.90007774939E+02  0.90000036768E+02 0.  0.
         12    1    1    2    0    0  0.38820958834E+00 -0.95155030666E+00 -0.58032449911E+00  0.11802250611E+01  0.00000000000E+00 0. -1.
         11    1    3    3    0    0 -0.88025394708E+01  0.36280204268E+02 -0.14744708085E+02  0.40139062516E+02  0.51100000000E-03 0. -1.
        -11    1    3    3    0    0 -0.41032929734E+00  0.30684679908E+01  0.95628000359E+01  0.10051418344E+02  0.51100000000E-03 0.  1.
        -12    1    3    3    0    0  0.88246591798E+01 -0.38397121952E+02  0.57622325486E+01  0.39817294079E+02  0.00000000000E+00 0.  1.
</event>
<event>
 7    1  0.2284751E-015  0.9000779E+02  0.7816164E-02  0.1186339E+00
        -11   -1    0    0    0    0  0.00000000000E+00  0.00000000000E+00  0.45593999997E+02  0.45594000000E+02  0.51100000000E-03 0.  1.
         11   -1    0    0    0    0 -0.00000000000E+00 -0.00000000000E+00 -0.45593999997E+02  0.45594000000E+02  0.51100000000E-03 0. -1.
    9900012    2    1    2    0    0  0.10233391566E+01  0.23774159934E+00  0.53772892716E+00  0.90007789639E+02  0.90000051662E+02 0.  0.
         12    1    1    2    0    0 -0.10233391566E+01 -0.23774159934E+00 -0.53772892716E+00  0.11802103611E+01  0.00000000000E+00 0. -1.
         11    1    3    3    0    0  0.15115632559E+02 -0.33591453727E+02  0.15942751841E+02  0.40137755888E+02  0.51100000000E-03 0. -1.
        -11    1    3    3    0    0 -0.18631933550E+01 -0.27869344390E+01 -0.10419036180E+02  0.10945081462E+02  0.51100000000E-03 0.  1.
        -12    1    3    3    0    0 -0.12229100048E+02  0.36616129765E+02 -0.49859867345E+01  0.38924952289E+02  0.00000000000E+00 0.  1.
</event>
<event>
 7    1  0.2284751E-015  0.9000823E+02  0.7816164E-02  0.1186338E+00
        -11   -1    0    0    0    0  0.00000000000E+00  0.00000000000E+00  0.45593999997E+02  0.45594000000E+02  0.51100000000E-03 0.  1.
         11   -1    0    0    0    0 -0.00000000000E+00 -0.00000000000E+00 -0.45593999997E+02  0.45594000000E+02  0.51100000000E-03 0. -1.
    9900012    2    1    2    0    0 -0.95149145833E+00  0.55540317731E+00  0.42195847027E+00  0.90008229838E+02  0.90000497670E+02 0.  0.
         12    1    1    2    0    0  0.95149145833E+00 -0.55540317731E+00 -0.42195847027E+00  0.11797701621E+01  0.00000000000E+00 0. -1.
         11    1    3    3    0    0 -0.10938117270E+02  0.36460065089E+02  0.10921838212E+02  0.39601329597E+02  0.51100000000E-03 0. -1.
        -11    1    3    3    0    0 -0.21188719037E+01 -0.17383957991E+01  0.88874050377E+01  0.93004089514E+01  0.51100000000E-03 0.  1.
        -12    1    3    3    0    0  0.12105497715E+02 -0.34166266112E+02 -0.19387284779E+02  0.41106491289E+02  0.00000000000E+00 0.  1.
</event>
<event>
 7    1  0.2284751E-015  0.9000785E+02  0.7816164E-02  0.1186339E+00
        -11   -1    0    0    0    0  0.00000000000E+00  0.00000000000E+00  0.45593999997E+02  0.45594000000E+02  0.51100000000E-03 0. -1.
         11   -1    0    0    0    0 -0.00000000000E+00 -0.00000000000E+00 -0.45593999997E+02  0.45594000000E+02  0.51100000000E-03 0.  1.
    9900012    2    1    2    0    0 -0.30851443307E+00 -0.11159866684E+01  0.22835902397E+00  0.90007849483E+02  0.90000112296E+02 0.  0.
         12    1    1    2    0    0  0.30851443307E+00  0.11159866684E+01 -0.22835902397E+00  0.11801505172E+01  0.00000000000E+00 0. -1.
         11    1    3    3    0    0  0.33972799181E+02 -0.34801914051E+01  0.14610816179E+02  0.37144834985E+02  0.51100000000E-03 0. -1.
        -11    1    3    3    0    0  0.32127186214E+01  0.97816824248E+01  0.32146374385E+01  0.10785952258E+02  0.51100000000E-03 0.  1.
        -12    1    3    3    0    0 -0.37494032235E+02 -0.74174776880E+01 -0.17597094594E+02  0.42077062239E+02  0.00000000000E+00 0.  1.
</event>
<event>
 7    1  0.2284751E-015  0.9000769E+02  0.7816164E-02  0.1186339E+00
        -11   -1    0    0    0    0  0.00000000000E+00  0.00000000000E+00  0.45593999997E+02  0.45594000000E+02  0.51100000000E-03 0.  1.
         11   -1    0    0    0    0 -0.00000000000E+00 -0.00000000000E+00 -0.45593999997E+02  0.45594000000E+02  0.51100000000E-03 0. -1.
    9900012    2    1    2    0    0 -0.21608358880E+00 -0.11580872467E+01 -0.72658328015E-01  0.90007687575E+02  0.89999948251E+02 0.  0.
         12    1    1    2    0    0  0.21608358880E+00  0.11580872467E+01  0.72658328015E-01  0.11803124252E+01  0.00000000000E+00 0. -1.
         11    1    3    3    0    0  0.26021123208E+01 -0.10369145354E+02  0.12776940832E+01  0.10766738890E+02  0.51100000000E-03 0. -1.
        -11    1    3    3    0    0  0.34588038788E+02 -0.82995633155E+01  0.89405775176E+01  0.36676274416E+02  0.51100000000E-03 0.  1.
         12    1    3    3    0    0 -0.37406234697E+02  0.17510621423E+02 -0.10290929929E+02  0.42564674269E+02  0.00000000000E+00 0. -1.
</event>
<event>
 7    1  0.2284751E-015  0.9000768E+02  0.7816164E-02  0.1186339E+00
        -11   -1    0    0    0    0  0.00000000000E+00  0.00000000000E+00  0.45593999997E+02  0.45594000000E+02  0.51100000000E-03 0.  1.
         11   -1    0    0    0    0 -0.00000000000E+00 -0.00000000000E+00 -0.45593999997E+02  0.45594000000E+02  0.51100000000E-03 0. -1.
    9900012    2    1    2    0    0 -0.20374414854E+00  0.11355065587E+01 -0.24951445741E+00  0.90007684666E+02  0.89999945304E+02 0.  0.
         12    1    1    2    0    0  0.20374414854E+00 -0.11355065587E+01  0.24951445741E+00  0.11803153339E+01  0.00000000000E+00 0. -1.
         11    1    3    3    0    0  0.51447208757E+01  0.13040514189E+02 -0.36145155142E+02  0.38768484671E+02  0.51100000000E-03 0. -1.
        -11    1    3    3    0    0 -0.20179724915E+01 -0.78115640081E+01 -0.53348922878E+01  0.96723224312E+01  0.51100000000E-03 0.  1.
        -12    1    3    3    0    0 -0.33304925328E+01 -0.40934436218E+01  0.41230532973E+02  0.41566877564E+02  0.00000000000E+00 0.  1.
</event>
<event>
 7    1  0.2284751E-015  0.9000777E+02  0.7816164E-02  0.1186339E+00
        -11   -1    0    0    0    0  0.00000000000E+00  0.00000000000E+00  0.45593999997E+02  0.45594000000E+02  0.51100000000E-03 0. -1.
         11   -1    0    0    0    0 -0.00000000000E+00 -0.00000000000E+00 -0.45593999997E+02  0.45594000000E+02  0.51100000000E-03 0.  1.
    9900012    2    1    2    0    0 -0.10478229352E+01 -0.27289703687E-01 -0.54246333305E+00  0.90007769472E+02  0.90000031229E+02 0.  0.
         12    1    1    2    0    0  0.10478229352E+01  0.27289703687E-01  0.54246333305E+00  0.11802305280E+01  0.00000000000E+00 0. -1.
         11    1    3    3    0    0  0.25631247069E+02  0.15075187068E+01  0.27029107626E+02  0.37280103249E+02  0.51100000000E-03 0. -1.
        -11    1    3    3    0    0 -0.83740424611E+01  0.33472882886E+01  0.82386638457E+01  0.12214929728E+02  0.51100000000E-03 0.  1.
        -12    1    3    3    0    0 -0.18305027543E+02 -0.48820966991E+01 -0.35810234805E+02  0.40512736495E+02  0.00000000000E+00 0.  1.
</event>
<event>
 7    1  0.2284751E-015  0.9000770E+02  0.7816164E-02  0.1186339E+00
        -11   -1    0    0    0    0  0.00000000000E+00  0.00000000000E+00  0.45593999997E+02  0.45594000000E+02  0.51100000000E-03 0. -1.
         11   -1    0    0    0    0 -0.00000000000E+00 -0.00000000000E+00 -0.45593999997E+02  0.45594000000E+02  0.51100000000E-03 0.  1.
    9900012    2    1    2    0    0  0.17127867067E+00  0.11097590248E+01 -0.36360499172E+00  0.90007699163E+02  0.89999959992E+02 0.  0.
         12    1    1    2    0    0 -0.17127867067E+00 -0.11097590248E+01  0.36360499172E+00  0.11803008371E+01  0.00000000000E+00 0. -1.
         11    1    3    3    0    0  0.96619757410E+01  0.31247387159E+01 -0.31913766386E+00  0.10159705526E+02  0.51100000000E-03 0. -1.
        -11    1    3    3    0    0  0.22666356407E+02  0.27176892081E+02  0.63350310218E+01  0.35951075008E+02  0.51100000000E-03 0.  1.
         12    1    3    3    0    0 -0.32157053477E+02 -0.29191871772E+02 -0.63794983497E+01  0.43896918629E+02  0.00000000000E+00 0. -1.
</event>
<event>
 7    1  0.2284751E-015  0.9000776E+02  0.7816164E-02  0.1186339E+00
        -11   -1    0    0    0    0  0.00000000000E+00  0.00000000000E+00  0.45593999997E+02  0.45594000000E+02  0.51100000000E-03 0.  1.
         11   -1    0    0    0    0 -0.00000000000E+00 -0.00000000000E+00 -0.45593999997E+02  0.45594000000E+02  0.51100000000E-03 0. -1.
    9900012    2    1    2    0    0  0.37420975284E+00  0.77037392138E+00 -0.81207131665E+00  0.90007759033E+02  0.90000020652E+02 0.  0.
         12    1    1    2    0    0 -0.37420975284E+00 -0.77037392138E+00  0.81207131665E+00  0.11802409674E+01  0.00000000000E+00 0. -1.
         11    1    3    3    0    0  0.33114228391E+02  0.26906842246E+01 -0.19680689324E+02  0.38615041578E+02  0.51100000000E-03 0. -1.
        -11    1    3    3    0    0  0.66636611273E+01  0.34095547347E+01  0.60203294254E+01  0.96059257627E+01  0.51100000000E-03 0.  1.
        -12    1    3    3    0    0 -0.39403679766E+02 -0.53298650378E+01  0.12848288582E+02  0.41786791692E+02  0.00000000000E+00 0.  1.
</event>
<event>
 7    1  0.2284751E-015  0.9000770E+02  0.7816164E-02  0.1186339E+00
        -11   -1    0    0    0    0  0.00000000000E+00  0.00000000000E+00  0.45593999997E+02  0.45594000000E+02  0.51100000000E-03 0.  1.
         11   -1    0    0    0    0 -0.00000000000E+00 -0.00000000000E+00 -0.45593999997E+02  0.45594000000E+02  0.51100000000E-03 0. -1.
    9900012    2    1    2    0    0 -0.21967052889E+00  0.83268607939E+00  0.80715105812E+00  0.90007697463E+02  0.89999958270E+02 0.  0.
         12    1    1    2    0    0  0.21967052889E+00 -0.83268607939E+00 -0.80715105812E+00  0.11803025369E+01  0.00000000000E+00 0. -1.
         11    1    3    3    0    0  0.82552785392E+01  0.60290089312E+01 -0.37427549320E+01  0.10886082270E+02  0.51100000000E-03 0. -1.
        -11    1    3    3    0    0 -0.27240218790E+02  0.28247495088E+02 -0.51138803649E+01  0.39574010046E+02  0.51100000000E-03 0.  1.
         12    1    3    3    0    0  0.18765269721E+02 -0.33443817940E+02  0.96637863551E+01  0.39547605147E+02  0.00000000000E+00 0. -1.
</event>
<event>
 7    1  0.2284751E-015  0.9000778E+02  0.7816164E-02  0.1186339E+00
        -11   -1    0    0    0    0  0.00000000000E+00  0.00000000000E+00  0.45593999997E+02  0.45594000000E+02  0.51100000000E-03 0. -1.
         11   -1    0    0    0    0 -0.00000000000E+00 -0.00000000000E+00 -0.45593999997E+02  0.45594000000E+02  0.51100000000E-03 0.  1.
    9900012    2    1    2    0    0 -0.92202549377E-01 -0.18651404841E+00 -0.11617376040E+01  0.90007778385E+02  0.90000040259E+02 0.  0.
         12    1    1    2    0    0  0.92202549377E-01  0.18651404841E+00  0.11617376040E+01  0.11802216152E+01  0.00000000000E+00 0. -1.
         11    1    3    3    0    0  0.26849772456E+02 -0.98141703215E+01  0.27516013064E+02  0.39678195463E+02  0.51100000000E-03 0. -1.
        -11    1    3    3    0    0  0.62503737092E+01 -0.13551771771E+01 -0.42455689666E+01  0.76764922195E+01  0.51100000000E-03 0.  1.
        -12    1    3    3    0    0 -0.33192348714E+02  0.10982833450E+02 -0.24432181701E+02  0.42653090702E+02  0.00000000000E+00 0.  1.
</event>
<event>
 7    1  0.2284751E-015  0.9000776E+02  0.7816164E-02  0.1186339E+00
        -11   -1    0    0    0    0  0.00000000000E+00  0.00000000000E+00  0.45593999997E+02  0.45594000000E+02  0.51100000000E-03 0.  1.
         11   -1    0    0    0    0 -0.00000000000E+00 -0.00000000000E+00 -0.45593999997E+02  0.45594000000E+02  0.51100000000E-03 0. -1.
    9900012    2    1    2    0    0  0.62756489823E+00  0.14074925602E+00  0.98960779755E+00  0.90007757801E+02  0.90000019404E+02 0.  0.
         12    1    1    2    0    0 -0.62756489823E+00 -0.14074925602E+00 -0.98960779755E+00  0.11802421987E+01  0.00000000000E+00 0. -1.
         11    1    3    3    0    0  0.11123950429E+02 -0.31196463748E+02  0.15383310972E+02  0.36518596362E+02  0.51100000000E-03 0. -1.
        -11    1    3    3    0    0 -0.35959936913E+01 -0.73633347199E+01  0.50571313186E+01  0.96293533667E+01  0.51100000000E-03 0.  1.
        -12    1    3    3    0    0 -0.69003918390E+01  0.38700547724E+02 -0.19450834493E+02  0.43859808073E+02  0.00000000000E+00 0.  1.
</event>
<event>
 7    1  0.2284751E-015  0.9000779E+02  0.7816164E-02  0.1186339E+00
        -11   -1    0    0    0    0  0.00000000000E+00  0.00000000000E+00  0.45593999997E+02  0.45594000000E+02  0.51100000000E-03 0. -1.
         11   -1    0    0    0    0 -0.00000000000E+00 -0.00000000000E+00 -0.45593999997E+02  0.45594000000E+02  0.51100000000E-03 0.  1.
    9900012    2    1    2    0    0 -0.90575454220E+00  0.12191453632E+00 -0.74675382369E+00  0.90007789969E+02  0.90000051996E+02 0.  0.
         12    1    1    2    0    0  0.90575454220E+00 -0.12191453632E+00  0.74675382369E+00  0.11802100313E+01  0.00000000000E+00 0. -1.
         11    1    3    3    0    0 -0.11853441746E+02 -0.16590286282E+02 -0.71540956695E+01  0.21608395712E+02  0.51100000000E-03 0. -1.
        -11    1    3    3    0    0 -0.16936519593E+02  0.17787021737E+02 -0.18694198597E+02  0.30865788498E+02  0.51100000000E-03 0.  1.
        -12    1    3    3    0    0  0.27884206796E+02 -0.10748209184E+01  0.25101540442E+02  0.37533605758E+02  0.00000000000E+00 0.  1.
</event>
<event>
 7    1  0.2284751E-015  0.9000760E+02  0.7816164E-02  0.1186339E+00
        -11   -1    0    0    0    0  0.00000000000E+00  0.00000000000E+00  0.45593999997E+02  0.45594000000E+02  0.51100000000E-03 0. -1.
         11   -1    0    0    0    0 -0.00000000000E+00 -0.00000000000E+00 -0.45593999997E+02  0.45594000000E+02  0.51100000000E-03 0.  1.
    9900012    2    1    2    0    0  0.22294506615E+00  0.11591315324E+01 -0.71028525416E-02  0.90007601397E+02  0.89999860935E+02 0.  0.
         12    1    1    2    0    0 -0.22294506615E+00 -0.11591315324E+01  0.71028525416E-02  0.11803986032E+01  0.00000000000E+00 0. -1.
         11    1    3    3    0    0  0.28589942654E+01  0.91789079294E+01  0.30781135861E+01  0.10094601651E+02  0.51100000000E-03 0. -1.
        -11    1    3    3    0    0  0.19558933930E+02  0.29609046547E+02 -0.65637972720E+01  0.36087822999E+02  0.51100000000E-03 0.  1.
         12    1    3    3    0    0 -0.22194983129E+02 -0.37628822944E+02  0.34785808334E+01  0.43825176747E+02  0.00000000000E+00 0. -1.
</event>
<event>
 7    1  0.2284751E-015  0.9000775E+02  0.7816164E-02  0.1186339E+00
        -11   -1    0    0    0    0  0.00000000000E+00  0.00000000000E+00  0.45593999997E+02  0.45594000000E+02  0.51100000000E-03 0. -1.
         11   -1    0    0    0    0 -0.00000000000E+00 -0.00000000000E+00 -0.45593999997E+02  0.45594000000E+02  0.51100000000E-03 0.  1.
    9900012    2    1    2    0    0  0.92804087369E-01  0.93783963477E+00  0.71050980543E+00  0.90007754279E+02  0.90000015835E+02 0.  0.
         12    1    1    2    0    0 -0.92804087369E-01 -0.93783963477E+00 -0.71050980543E+00  0.11802457214E+01  0.00000000000E+00 0. -1.
         11    1    3    3    0    0 -0.68992067753E+01  0.70547529903E+01 -0.14807937950E+01  0.99780431151E+01  0.51100000000E-03 0. -1.
        -11    1    3    3    0    0  0.27030031704E+02  0.18762220930E+02 -0.22324075583E+02  0.39761890034E+02  0.51100000000E-03 0.  1.
         12    1    3    3    0    0 -0.20038020841E+02 -0.24879134285E+02  0.24515379184E+02  0.40267821130E+02  0.00000000000E+00 0. -1.
</event>
<event>
 7    1  0.2284751E-015  0.9000780E+02  0.7816164E-02  0.1186339E+00
        -11   -1    0    0    0    0  0.00000000000E+00  0.00000000000E+00  0.45593999997E+02  0.45594000000E+02  0.51100000000E-03 0.  1.
         11   -1    0    0    0    0 -0.00000000000E+00 -0.00000000000E+00 -0.45593999997E+02  0.45594000000E+02  0.51100000000E-03 0. -1.
    9900012    2    1    2    0    0  0.79374004723E+00  0.54825765570E+00  0.67989872700E+00  0.90007800018E+02  0.90000062178E+02 0.  0.
         12    1    1    2    0    0 -0.79374004723E+00 -0.54825765570E+00 -0.67989872700E+00  0.11801999825E+01  0.00000000000E+00 0. -1.
         11    1    3    3    0    0 -0.24112165614E+02 -0.32632597161E+02 -0.16773537041E+02  0.43904834281E+02  0.51100000000E-03 0. -1.
        -11    1    3    3    0    0  0.58020611821E+01  0.38017816855E+01  0.61797904997E+01  0.92901705488E+01  0.51100000000E-03 0.  1.
        -12    1    3    3    0    0  0.19103844479E+02  0.29379073131E+02  0.11273645268E+02  0.36812795188E+02  0.00000000000E+00 0.  1.
</event>
<event>
 7    1  0.2284751E-015  0.9000772E+02  0.7816164E-02  0.1186339E+00
        -11   -1    0    0    0    0  0.00000000000E+00  0.00000000000E+00  0.45593999997E+02  0.45594000000E+02  0.51100000000E-03 0. -1.
         11   -1    0    0    0    0 -0.00000000000E+00 -0.00000000000E+00 -0.45593999997E+02  0.45594000000E+02  0.51100000000E-03 0.  1.
    9900012    2    1    2    0    0  0.26436859945E+00  0.11463868355E+01 -0.94668738971E-01  0.90007722192E+02  0.89999983325E+02 0.  0.
         12    1    1    2    0    0 -0.26436859945E+00 -0.11463868355E+01  0.94668738971E-01  0.11802778076E+01  0.00000000000E+00 0. -1.
         11    1    3    3    0    0 -0.17111641013E+02 -0.33651346786E+02  0.71001639906E+01  0.38413978284E+02  0.51100000000E-03 0. -1.
        -11    1    3    3    0    0  0.83125730911E+01 -0.52179750046E+01 -0.34106298511E+01  0.10390309465E+02  0.51100000000E-03 0.  1.
        -12    1    3    3    0    0  0.90634365215E+01  0.40015708626E+02 -0.37842028785E+01  0.41203434443E+02  0.00000000000E+00 0.  1.
</event>
<event>
 7    1  0.2284751E-015  0.9000777E+02  0.7816164E-02  0.1186339E+00
        -11   -1    0    0    0    0  0.00000000000E+00  0.00000000000E+00  0.45593999997E+02  0.45594000000E+02  0.51100000000E-03 0.  1.
         11   -1    0    0    0    0 -0.00000000000E+00 -0.00000000000E+00 -0.45593999997E+02  0.45594000000E+02  0.51100000000E-03 0. -1.
    9900012    2    1    2    0    0 -0.34670944995E+00  0.63232081260E+00  0.93429804249E+00  0.90007767021E+02  0.90000028746E+02 0.  0.
         12    1    1    2    0    0  0.34670944995E+00 -0.63232081260E+00 -0.93429804249E+00  0.11802329791E+01  0.00000000000E+00 0. -1.
         11    1    3    3    0    0 -0.22328379147E+02  0.79865630252E+01 -0.28181062823E+02  0.36830883866E+02  0.51100000000E-03 0. -1.
        -11    1    3    3    0    0 -0.27565895104E+01 -0.54027328788E+01 -0.70604686737E+01  0.93079818673E+01  0.51100000000E-03 0.  1.
        -12    1    3    3    0    0  0.24738259208E+02 -0.19515093338E+01  0.36175829539E+02  0.43868901287E+02  0.00000000000E+00 0.  1.
</event>
<event>
 7    1  0.2284751E-015  0.9000765E+02  0.7816164E-02  0.1186339E+00
        -11   -1    0    0    0    0  0.00000000000E+00  0.00000000000E+00  0.45593999997E+02  0.45594000000E+02  0.51100000000E-03 0. -1.
         11   -1    0    0    0    0 -0.00000000000E+00 -0.00000000000E+00 -0.45593999997E+02  0.45594000000E+02  0.51100000000E-03 0.  1.
    9900012    2    1    2    0    0 -0.74796748320E+00  0.83332792936E+00 -0.37326946339E+00  0.90007652218E+02  0.89999912427E+02 0.  0.
         12    1    1    2    0    0  0.74796748320E+00 -0.83332792936E+00  0.37326946339E+00  0.11803477818E+01  0.00000000000E+00 0. -1.
         11    1    3    3    0    0 -0.18460043197E+02  0.23746347329E+02  0.22808424090E+02  0.37747667690E+02  0.51100000000E-03 0. -1.
        -11    1    3    3    0    0 -0.49767779956E+01  0.69555695170E+01 -0.82656833130E+01  0.11894107256E+02  0.51100000000E-03 0.  1.
        -12    1    3    3    0    0  0.22688853709E+02 -0.29868588917E+02 -0.14916010240E+02  0.40365877273E+02  0.00000000000E+00 0.  1.
</event>
<event>
 7    1  0.2284751E-015  0.9000789E+02  0.7816164E-02  0.1186339E+00
        -11   -1    0    0    0    0  0.00000000000E+00  0.00000000000E+00  0.45593999997E+02  0.45594000000E+02  0.51100000000E-03 0. -1.
         11   -1    0    0    0    0 -0.00000000000E+00 -0.00000000000E+00 -0.45593999997E+02  0.45594000000E+02  0.51100000000E-03 0.  1.
    9900012    2    1    2    0    0 -0.52282013313E+00 -0.67739264933E+00  0.81269276111E+00  0.90007885083E+02  0.90000148366E+02 0.  0.
         12    1    1    2    0    0  0.52282013313E+00  0.67739264933E+00 -0.81269276111E+00  0.11801149168E+01  0.00000000000E+00 0. -1.
         11    1    3    3    0    0 -0.74259704001E+00  0.82555988702E+01 -0.85259843683E+01  0.11891121595E+02  0.51100000000E-03 0. -1.
        -11    1    3    3    0    0  0.33389568278E+01 -0.82108618558E+01 -0.33757510434E+02  0.34901810785E+02  0.51100000000E-03 0.  1.
         12    1    3    3    0    0 -0.31191799209E+01 -0.72212966365E+00  0.43096187564E+02  0.43214952703E+02  0.00000000000E+00 0. -1.
</event>
<event>
 7    1  0.2284751E-015  0.9000751E+02  0.7816164E-02  0.1186340E+00
        -11   -1    0    0    0    0  0.00000000000E+00  0.00000000000E+00  0.45593999997E+02  0.45594000000E+02  0.51100000000E-03 0.  1.
         11   -1    0    0    0    0 -0.00000000000E+00 -0.00000000000E+00 -0.45593999997E+02  0.45594000000E+02  0.51100000000E-03 0. -1.
    9900012    2    1    2    0    0  0.10178054736E+01 -0.15911013770E-01  0.59781018435E+00  0.90007509357E+02  0.89999767680E+02 0.  0.
         12    1    1    2    0    0 -0.10178054736E+01  0.15911013770E-01 -0.59781018435E+00  0.11804906433E+01  0.00000000000E+00 0. -1.
         11    1    3    3    0    0  0.11387807219E+02 -0.91312330918E+01 -0.27484869922E+00  0.14599216181E+02  0.51100000000E-03 0. -1.
        -11    1    3    3    0    0  0.72327392404E+00 -0.14340982801E+02  0.31887220764E+02  0.34971156132E+02  0.51100000000E-03 0.  1.
         12    1    3    3    0    0 -0.11093275669E+02  0.23456304879E+02 -0.31014561881E+02  0.40437137044E+02  0.00000000000E+00 0. -1.
</event>
<event>
 7    1  0.2284751E-015  0.9000739E+02  0.7816164E-02  0.1186340E+00
        -11   -1    0    0    0    0  0.00000000000E+00  0.00000000000E+00  0.45593999997E+02  0.45594000000E+02  0.51100000000E-03 0.  1.
         11   -1    0    0    0    0 -0.00000000000E+00 -0.00000000000E+00 -0.45593999997E+02  0.45594000000E+02  0.51100000000E-03 0. -1.
    9900012    2    1    2    0    0 -0.71684002564E+00  0.38645926012E+00 -0.85477107051E+00  0.90007388309E+02  0.89999645034E+02 0.  0.
         12    1    1    2    0    0  0.71684002564E+00 -0.38645926012E+00  0.85477107051E+00  0.11806116911E+01  0.00000000000E+00 0. -1.
         11    1    3    3    0    0  0.25466266402E+02 -0.18895654311E+02 -0.14686948043E+02  0.34946858505E+02  0.51100000000E-03 0. -1.
        -11    1    3    3    0    0  0.10918920592E+02  0.26958895949E+01 -0.20401235594E+01  0.11430343477E+02  0.51100000000E-03 0.  1.
        -12    1    3    3    0    0 -0.37102027019E+02  0.16586223977E+02  0.15872300532E+02  0.43630186327E+02  0.00000000000E+00 0.  1.
</event>
<event>
 7    1  0.2284751E-015  0.9000772E+02  0.7816164E-02  0.1186339E+00
        -11   -1    0    0    0    0  0.00000000000E+00  0.00000000000E+00  0.45593999997E+02  0.45594000000E+02  0.51100000000E-03 0.  1.
         11   -1    0    0    0    0 -0.00000000000E+00 -0.00000000000E+00 -0.45593999997E+02  0.45594000000E+02  0.51100000000E-03 0. -1.
    9900012    2    1    2    0    0 -0.41077495805E+00 -0.10862949220E+01  0.21046906866E+00  0.90007716156E+02  0.89999977209E+02 0.  0.
         12    1    1    2    0    0  0.41077495805E+00  0.10862949220E+01 -0.21046906866E+00  0.11802838441E+01  0.00000000000E+00 0. -1.
         11    1    3    3    0    0  0.25359291956E+00  0.78307441592E+01  0.56160941585E+01  0.96397809785E+01  0.51100000000E-03 0. -1.
        -11    1    3    3    0    0 -0.26650608769E+02 -0.78839129185E+01  0.27046707299E+02  0.38780606064E+02  0.51100000000E-03 0.  1.
         12    1    3    3    0    0  0.25986240891E+02 -0.10331261627E+01 -0.32452332389E+02  0.41587329114E+02  0.00000000000E+00 0. -1.
</event>
<event>
 7    1  0.2284751E-015  0.9000736E+02  0.7816164E-02  0.1186340E+00
        -11   -1    0    0    0    0  0.00000000000E+00  0.00000000000E+00  0.45593999997E+02  0.45594000000E+02  0.51100000000E-03 0.  1.
         11   -1    0    0    0    0 -0.00000000000E+00 -0.00000000000E+00 -0.45593999997E+02  0.45594000000E+02  0.51100000000E-03 0. -1.
    9900012    2    1    2    0    0  0.19363677856E+00  0.11361515037E+01  0.25609359223E+00  0.90007356375E+02  0.89999612678E+02 0.  0.
         12    1    1    2    0    0 -0.19363677856E+00 -0.11361515037E+01 -0.25609359223E+00  0.11806436250E+01  0.00000000000E+00 0. -1.
         11    1    3    3    0    0  0.87148255973E+01 -0.39918923657E+00  0.58598416629E+01  0.10509295020E+02  0.51100000000E-03 0. -1.
        -11    1    3    3    0    0  0.15413383235E+02 -0.30458843200E+02  0.11518764434E+02  0.36027703870E+02  0.51100000000E-03 0.  1.
         12    1    3    3    0    0 -0.23934572054E+02  0.31994183940E+02 -0.17122512504E+02  0.43470357485E+02  0.00000000000E+00 0. -1.
</event>
<event>
 7    1  0.2284751E-015  0.9000759E+02  0.7816164E-02  0.1186339E+00
        -11   -1    0    0    0    0  0.00000000000E+00  0.00000000000E+00  0.45593999997E+02  0.45594000000E+02  0.51100000000E-03 0.  1.
         11   -1    0    0    0    0 -0.00000000000E+00 -0.00000000000E+00 -0.45593999997E+02  0.45594000000E+02  0.51100000000E-03 0. -1.
    9900012    2    1    2    0    0 -0.72705330197E+00 -0.91224084664E+00 -0.18049859327E+00  0.90007589221E+02  0.89999848598E+02 0.  0.
         12    1    1    2    0    0  0.72705330197E+00  0.91224084664E+00  0.18049859327E+00  0.11804107795E+01  0.00000000000E+00 0. -1.
         11    1    3    3    0    0 -0.28969712820E+02 -0.18528474530E+02  0.11106331971E+02  0.36137227887E+02  0.51100000000E-03 0. -1.
        -11    1    3    3    0    0  0.93583687442E+00 -0.62541882804E+01  0.99881606080E+01  0.11821760203E+02  0.51100000000E-03 0.  1.
        -12    1    3    3    0    0  0.27306822643E+02  0.23870421964E+02 -0.21274991172E+02  0.42048601130E+02  0.00000000000E+00 0.  1.
</event>
<event>
 7    1  0.2284751E-015  0.9000772E+02  0.7816164E-02  0.1186339E+00
        -11   -1    0    0    0    0  0.00000000000E+00  0.00000000000E+00  0.45593999997E+02  0.45594000000E+02  0.51100000000E-03 0.  1.
         11   -1    0    0    0    0 -0.00000000000E+00 -0.00000000000E+00 -0.45593999997E+02  0.45594000000E+02  0.51100000000E-03 0. -1.
    9900012    2    1    2    0    0 -0.95321620860E-01 -0.10095318081E+01  0.60401144026E+00  0.90007715923E+02  0.89999976973E+02 0.  0.
         12    1    1    2    0    0  0.95321620860E-01  0.10095318081E+01 -0.60401144026E+00  0.11802840772E+01  0.00000000000E+00 0. -1.
         11    1    3    3    0    0 -0.15195408836E+01 -0.32518348493E+02  0.10946221534E+02  0.34344894225E+02  0.51100000000E-03 0. -1.
        -11    1    3    3    0    0 -0.42948695873E+01 -0.10734498018E+02  0.83879005837E+00  0.11592192264E+02  0.51100000000E-03 0.  1.
        -12    1    3    3    0    0  0.57190888500E+01  0.42243314702E+02 -0.11181000152E+02  0.44070629434E+02  0.00000000000E+00 0.  1.
</event>
<event>
 7    1  0.2284751E-015  0.9000779E+02  0.7816164E-02  0.1186339E+00
        -11   -1    0    0    0    0  0.00000000000E+00  0.00000000000E+00  0.45593999997E+02  0.45594000000E+02  0.51100000000E-03 0. -1.
         11   -1    0    0    0    0 -0.00000000000E+00 -0.00000000000E+00 -0.45593999997E+02  0.45594000000E+02  0.51100000000E-03 0.  1.
    9900012    2    1    2    0    0  0.83508072871E+00  0.58662086376E+00 -0.59280371803E+00  0.90007788108E+02  0.90000050111E+02 0.  0.
         12    1    1    2    0    0 -0.83508072871E+00 -0.58662086376E+00  0.59280371803E+00  0.11802118917E+01  0.00000000000E+00 0. -1.
         11    1    3    3    0    0  0.72774851805E+01  0.63256075184E+01 -0.60969146837E+00  0.96616160644E+01  0.51100000000E-03 0. -1.
        -11    1    3    3    0    0  0.25398559742E+02  0.49371996554E+00 -0.27764218238E+02  0.37632199125E+02  0.51100000000E-03 0.  1.
         12    1    3    3    0    0 -0.31840964194E+02 -0.62327066202E+01  0.27781105988E+02  0.42713972919E+02  0.00000000000E+00 0. -1.
</event>
<event>
 7    1  0.2284751E-015  0.9000773E+02  0.7816164E-02  0.1186339E+00
        -11   -1    0    0    0    0  0.00000000000E+00  0.00000000000E+00  0.45593999997E+02  0.45594000000E+02  0.51100000000E-03 0. -1.
         11   -1    0    0    0    0 -0.00000000000E+00 -0.00000000000E+00 -0.45593999997E+02  0.45594000000E+02  0.51100000000E-03 0.  1.
    9900012    2    1    2    0    0  0.66961879272E+00  0.80182036341E+00 -0.54930418100E+00  0.90007728715E+02  0.89999989934E+02 0.  0.
         12    1    1    2    0    0 -0.66961879272E+00 -0.80182036341E+00  0.54930418100E+00  0.11802712849E+01  0.00000000000E+00 0. -1.
         11    1    3    3    0    0  0.25417339231E+02 -0.26933601532E+02  0.19884660734E+02  0.42034030949E+02  0.51100000000E-03 0. -1.
        -11    1    3    3    0    0 -0.10453241994E+02 -0.17009381100E+01 -0.36900893885E+01  0.11215178046E+02  0.51100000000E-03 0.  1.
        -12    1    3    3    0    0 -0.14294478444E+02  0.29436360006E+02 -0.16743875527E+02  0.36758519720E+02  0.00000000000E+00 0.  1.
</event>
<event>
 7    1  0.2284751E-015  0.9000782E+02  0.7816164E-02  0.1186339E+00
        -11   -1    0    0    0    0  0.00000000000E+00  0.00000000000E+00  0.45593999997E+02  0.45594000000E+02  0.51100000000E-03 0.  1.
         11   -1    0    0    0    0 -0.00000000000E+00 -0.00000000000E+00 -0.45593999997E+02  0.45594000000E+02  0.51100000000E-03 0. -1.
    9900012    2    1    2    0    0 -0.77124951443E+00  0.37896346166E+00  0.80894658923E+00  0.90007816242E+02  0.90000078616E+02 0.  0.
         12    1    1    2    0    0  0.77124951443E+00 -0.37896346166E+00 -0.80894658923E+00  0.11801837582E+01  0.00000000000E+00 0. -1.
         11    1    3    3    0    0 -0.11860801243E+02  0.22807850577E+02 -0.22333468718E+02  0.34053788032E+02  0.51100000000E-03 0. -1.
        -11    1    3    3    0    0 -0.98217055354E+01  0.81985877695E+01  0.11676446417E+01  0.12847028268E+02  0.51100000000E-03 0.  1.
        -12    1    3    3    0    0  0.20911257264E+02 -0.30627474885E+02  0.21974770665E+02  0.43106999942E+02  0.00000000000E+00 0.  1.
</event>
<event>
 7    1  0.2284751E-015  0.9000764E+02  0.7816164E-02  0.1186339E+00
        -11   -1    0    0    0    0  0.00000000000E+00  0.00000000000E+00  0.45593999997E+02  0.45594000000E+02  0.51100000000E-03 0. -1.
         11   -1    0    0    0    0 -0.00000000000E+00 -0.00000000000E+00 -0.45593999997E+02  0.45594000000E+02  0.51100000000E-03 0.  1.
    9900012    2    1    2    0    0  0.50534754461E-01 -0.10255484707E+01 -0.58218241766E+00  0.90007644208E+02  0.89999904312E+02 0.  0.
         12    1    1    2    0    0 -0.50534754461E-01  0.10255484707E+01  0.58218241766E+00  0.11803557915E+01  0.00000000000E+00 0. -1.
         11    1    3    3    0    0 -0.18679272327E+01 -0.11201205526E+02 -0.16353505431E+01  0.11473034866E+02  0.51100000000E-03 0. -1.
        -11    1    3    3    0    0  0.25860026992E+02 -0.20557314703E+02 -0.15147241409E+02  0.36342579798E+02  0.51100000000E-03 0.  1.
         12    1    3    3    0    0 -0.23941565005E+02  0.30732971759E+02  0.16200409534E+02  0.42192029544E+02  0.00000000000E+00 0. -1.
</event>
<event>
 7    1  0.2284751E-015  0.9000773E+02  0.7816164E-02  0.1186339E+00
        -11   -1    0    0    0    0  0.00000000000E+00  0.00000000000E+00  0.45593999997E+02  0.45594000000E+02  0.51100000000E-03 0. -1.
         11   -1    0    0    0    0 -0.00000000000E+00 -0.00000000000E+00 -0.45593999997E+02  0.45594000000E+02  0.51100000000E-03 0.  1.
    9900012    2    1    2    0    0 -0.31361956466E+00 -0.11347985508E+01  0.83086392394E-01  0.90007733788E+02  0.89999995074E+02 0.  0.
         12    1    1    2    0    0  0.31361956466E+00  0.11347985508E+01 -0.83086392394E-01  0.11802662118E+01  0.00000000000E+00 0. -1.
         11    1    3    3    0    0 -0.17336628916E+01 -0.70347456182E+00  0.36875585953E+02  0.36923018608E+02  0.51100000000E-03 0. -1.
        -11    1    3    3    0    0  0.16681484285E+01 -0.86915494270E+01  0.52147832866E+01  0.10272278988E+02  0.51100000000E-03 0.  1.
        -12    1    3    3    0    0 -0.24810510156E+00  0.82602254380E+01 -0.42007282848E+02  0.42812436192E+02  0.00000000000E+00 0.  1.
</event>
<event>
 7    1  0.2284751E-015  0.9000775E+02  0.7816164E-02  0.1186339E+00
        -11   -1    0    0    0    0  0.00000000000E+00  0.00000000000E+00  0.45593999997E+02  0.45594000000E+02  0.51100000000E-03 0. -1.
         11   -1    0    0    0    0 -0.00000000000E+00 -0.00000000000E+00 -0.45593999997E+02  0.45594000000E+02  0.51100000000E-03 0.  1.
    9900012    2    1    2    0    0 -0.43237856511E+00  0.43969395619E+00 -0.10063305384E+01  0.90007752928E+02  0.90000014467E+02 0.  0.
         12    1    1    2    0    0  0.43237856511E+00 -0.43969395619E+00  0.10063305384E+01  0.11802470721E+01  0.00000000000E+00 0. -1.
         11    1    3    3    0    0 -0.24126786633E+01 -0.74022445559E+01 -0.49282388163E+01  0.92142162385E+01  0.51100000000E-03 0. -1.
        -11    1    3    3    0    0 -0.14914085404E+01 -0.36296233840E+02  0.37378440444E+01  0.36518657817E+02  0.51100000000E-03 0.  1.
         12    1    3    3    0    0  0.34717086386E+01  0.44138172352E+02  0.18406423352E+00  0.44274878872E+02  0.00000000000E+00 0. -1.
</event>
<event>
 7    1  0.2284751E-015  0.9000763E+02  0.7816164E-02  0.1186339E+00
        -11   -1    0    0    0    0  0.00000000000E+00  0.00000000000E+00  0.45593999997E+02  0.45594000000E+02  0.51100000000E-03 0. -1.
         11   -1    0    0    0    0 -0.00000000000E+00 -0.00000000000E+00 -0.45593999997E+02  0.45594000000E+02  0.51100000000E-03 0.  1.
    9900012    2    1    2    0    0 -0.92144620817E-01 -0.84070116317E+00 -0.82341177692E+00  0.90007628859E+02  0.89999888760E+02 0.  0.
         12    1    1    2    0    0  0.92144620817E-01  0.84070116317E+00  0.82341177692E+00  0.11803711413E+01  0.00000000000E+00 0. -1.
         11    1    3    3    0    0 -0.97283241635E+01 -0.29632638010E+02  0.20494231979E+02  0.37319526674E+02  0.51100000000E-03 0. -1.
        -11    1    3    3    0    0  0.56568803591E+01 -0.11966076625E+01  0.84552173543E+01  0.10243186324E+02  0.51100000000E-03 0.  1.
        -12    1    3    3    0    0  0.39792991836E+01  0.29988544510E+02 -0.29772861110E+02  0.42444915861E+02  0.00000000000E+00 0.  1.
</event>
<event>
 7    1  0.2284751E-015  0.9000801E+02  0.7816164E-02  0.1186338E+00
        -11   -1    0    0    0    0  0.00000000000E+00  0.00000000000E+00  0.45593999997E+02  0.45594000000E+02  0.51100000000E-03 0. -1.
         11   -1    0    0    0    0 -0.00000000000E+00 -0.00000000000E+00 -0.45593999997E+02  0.45594000000E+02  0.51100000000E-03 0.  1.
    9900012    2    1    2    0    0  0.65096553617E+00  0.98407999141E+00  0.13991007648E-01  0.90008014700E+02  0.90000279694E+02 0.  0.
         12    1    1    2    0    0 -0.65096553617E+00 -0.98407999141E+00 -0.13991007648E-01  0.11799852995E+01  0.00000000000E+00 0. -1.
         11    1    3    3    0    0 -0.54244159199E+01 -0.74274666013E+01  0.71680723514E+00  0.92252566933E+01  0.51100000000E-03 0. -1.
        -11    1    3    3    0    0  0.18207787265E+01  0.11043804839E+02 -0.39811682809E+02  0.41355180435E+02  0.51100000000E-03 0.  1.
         12    1    3    3    0    0  0.42546027295E+01 -0.26322582460E+01  0.39108866582E+02  0.39427577572E+02  0.00000000000E+00 0. -1.
</event>
<event>
 7    1  0.2284751E-015  0.9000777E+02  0.7816164E-02  0.1186339E+00
        -11   -1    0    0    0    0  0.00000000000E+00  0.00000000000E+00  0.45593999997E+02  0.45594000000E+02  0.51100000000E-03 0.  1.
         11   -1    0    0    0    0 -0.00000000000E+00 -0.00000000000E+00 -0.45593999997E+02  0.45594000000E+02  0.51100000000E-03 0. -1.
    9900012    2    1    2    0    0 -0.38864811766E-01 -0.65520867716E+00  0.98088050496E+00  0.90007773137E+02  0.90000034942E+02 0.  0.
         12    1    1    2    0    0  0.38864811766E-01  0.65520867716E+00 -0.98088050496E+00  0.11802268635E+01  0.00000000000E+00 0. -1.
         11    1    3    3    0    0 -0.34554380060E+02  0.15715486060E+02 -0.12503440792E+02  0.39966457378E+02  0.51100000000E-03 0. -1.
        -11    1    3    3    0    0  0.60321226768E+01  0.11085281867E+01 -0.81730713870E+01  0.10218338167E+02  0.51100000000E-03 0.  1.
        -12    1    3    3    0    0  0.28483392572E+02 -0.17479222924E+02  0.21657392684E+02  0.39822977592E+02  0.00000000000E+00 0.  1.
</event>
<event>
 7    1  0.2284751E-015  0.9000776E+02  0.7816164E-02  0.1186339E+00
        -11   -1    0    0    0    0  0.00000000000E+00  0.00000000000E+00  0.45593999997E+02  0.45594000000E+02  0.51100000000E-03 0. -1.
         11   -1    0    0    0    0 -0.00000000000E+00 -0.00000000000E+00 -0.45593999997E+02  0.45594000000E+02  0.51100000000E-03 0.  1.
    9900012    2    1    2    0    0  0.10303320082E+01  0.10806451996E+00 -0.56542824233E+00  0.90007758040E+02  0.90000019646E+02 0.  0.
         12    1    1    2    0    0 -0.10303320082E+01 -0.10806451996E+00  0.56542824233E+00  0.11802419603E+01  0.00000000000E+00 0. -1.
         11    1    3    3    0    0 -0.68084469430E+01  0.70486487944E+01 -0.20168680664E+01  0.10005306425E+02  0.51100000000E-03 0. -1.
        -11    1    3    3    0    0  0.78114536295E+01  0.10074569743E+02 -0.36364796994E+02  0.38534584778E+02  0.51100000000E-03 0.  1.
         12    1    3    3    0    0  0.27325321742E-01 -0.17015154018E+02  0.37816236818E+02  0.41467866837E+02  0.00000000000E+00 0. -1.
</event>
<event>
 7    1  0.2284751E-015  0.9000774E+02  0.7816164E-02  0.1186339E+00
        -11   -1    0    0    0    0  0.00000000000E+00  0.00000000000E+00  0.45593999997E+02  0.45594000000E+02  0.51100000000E-03 0.  1.
         11   -1    0    0    0    0 -0.00000000000E+00 -0.00000000000E+00 -0.45593999997E+02  0.45594000000E+02  0.51100000000E-03 0. -1.
    9900012    2    1    2    0    0  0.94602885213E+00 -0.68163071620E+00 -0.18283225704E+00  0.90007737887E+02  0.89999999227E+02 0.  0.
         12    1    1    2    0    0 -0.94602885213E+00  0.68163071620E+00  0.18283225704E+00  0.11802621135E+01  0.00000000000E+00 0. -1.
         11    1    3    3    0    0  0.13801423148E+02  0.26291210966E+02 -0.24508488056E+02  0.38501597915E+02  0.51100000000E-03 0. -1.
        -11    1    3    3    0    0 -0.70849518074E+01  0.19642623162E+01 -0.57795712479E+01  0.93519149178E+01  0.51100000000E-03 0.  1.
        -12    1    3    3    0    0 -0.57704424885E+01 -0.28937103998E+02  0.30105227047E+02  0.42154225054E+02  0.00000000000E+00 0.  1.
</event>
<event>
 7    1  0.2284751E-015  0.9000782E+02  0.7816164E-02  0.1186339E+00
        -11   -1    0    0    0    0  0.00000000000E+00  0.00000000000E+00  0.45593999997E+02  0.45594000000E+02  0.51100000000E-03 0.  1.
         11   -1    0    0    0    0 -0.00000000000E+00 -0.00000000000E+00 -0.45593999997E+02  0.45594000000E+02  0.51100000000E-03 0. -1.
    9900012    2    1    2    0    0  0.56392630174E+00  0.60653536093E+00  0.84079018995E+00  0.90007819437E+02  0.90000081853E+02 0.  0.
         12    1    1    2    0    0 -0.56392630174E+00 -0.60653536093E+00 -0.84079018995E+00  0.11801805630E+01  0.00000000000E+00 0. -1.
         11    1    3    3    0    0 -0.33642885704E+01  0.19079019801E+01  0.93972599344E+01  0.10162038284E+02  0.51100000000E-03 0. -1.
        -11    1    3    3    0    0 -0.76548998750E+00 -0.15141011347E+02  0.32718433823E+02  0.36060118020E+02  0.51100000000E-03 0.  1.
         12    1    3    3    0    0  0.46937048597E+01  0.13839644728E+02 -0.41274903567E+02  0.43785663133E+02  0.00000000000E+00 0. -1.
</event>
<event>
 7    1  0.2284751E-015  0.9000774E+02  0.7816164E-02  0.1186339E+00
        -11   -1    0    0    0    0  0.00000000000E+00  0.00000000000E+00  0.45593999997E+02  0.45594000000E+02  0.51100000000E-03 0.  1.
         11   -1    0    0    0    0 -0.00000000000E+00 -0.00000000000E+00 -0.45593999997E+02  0.45594000000E+02  0.51100000000E-03 0. -1.
    9900012    2    1    2    0    0  0.77710936176E+00 -0.73201363947E+00  0.50326265033E+00  0.90007738917E+02  0.90000000271E+02 0.  0.
         12    1    1    2    0    0 -0.77710936176E+00  0.73201363947E+00 -0.50326265033E+00  0.11802610829E+01  0.00000000000E+00 0. -1.
         11    1    3    3    0    0 -0.36631980822E+02 -0.17827777343E+02 -0.92398435570E+01  0.41774470352E+02  0.51100000000E-03 0. -1.
        -11    1    3    3    0    0  0.78814804762E+01 -0.27466345446E+01 -0.49940060730E+01  0.97263473482E+01  0.51100000000E-03 0.  1.
        -12    1    3    3    0    0  0.29527609708E+02  0.19842398248E+02  0.14737112280E+02  0.38506921217E+02  0.00000000000E+00 0.  1.
</event>
<event>
 7    1  0.2284751E-015  0.9000777E+02  0.7816164E-02  0.1186339E+00
        -11   -1    0    0    0    0  0.00000000000E+00  0.00000000000E+00  0.45593999997E+02  0.45594000000E+02  0.51100000000E-03 0.  1.
         11   -1    0    0    0    0 -0.00000000000E+00 -0.00000000000E+00 -0.45593999997E+02  0.45594000000E+02  0.51100000000E-03 0. -1.
    9900012    2    1    2    0    0  0.47420701055E+00  0.10206083124E+01  0.35556149582E+00  0.90007772228E+02  0.90000034021E+02 0.  0.
         12    1    1    2    0    0 -0.47420701055E+00 -0.10206083124E+01 -0.35556149582E+00  0.11802277719E+01  0.00000000000E+00 0. -1.
         11    1    3    3    0    0 -0.13175814364E+01  0.76915092968E+01  0.87234593297E+01  0.11704446977E+02  0.51100000000E-03 0. -1.
        -11    1    3    3    0    0  0.34381465029E+02  0.55426358799E+01  0.13331247829E+02  0.37289785719E+02  0.51100000000E-03 0.  1.
         12    1    3    3    0    0 -0.32589676582E+02 -0.12213536864E+02 -0.21699145663E+02  0.41013539532E+02  0.00000000000E+00 0. -1.
</event>
<event>
 7    1  0.2284751E-015  0.9000775E+02  0.7816164E-02  0.1186339E+00
        -11   -1    0    0    0    0  0.00000000000E+00  0.00000000000E+00  0.45593999997E+02  0.45594000000E+02  0.51100000000E-03 0.  1.
         11   -1    0    0    0    0 -0.00000000000E+00 -0.00000000000E+00 -0.45593999997E+02  0.45594000000E+02  0.51100000000E-03 0. -1.
    9900012    2    1    2    0    0  0.91985534229E+00  0.73210650344E+00  0.10424001303E+00  0.90007754363E+02  0.90000015921E+02 0.  0.
         12    1    1    2    0    0 -0.91985534229E+00 -0.73210650344E+00 -0.10424001303E+00  0.11802456369E+01  0.00000000000E+00 0. -1.
         11    1    3    3    0    0 -0.27989337795E+02  0.22100507683E+02 -0.15440556192E+02  0.38861886803E+02  0.51100000000E-03 0. -1.
        -11    1    3    3    0    0 -0.71066814678E+01 -0.36520341569E+01  0.57111419559E+01  0.98213755488E+01  0.51100000000E-03 0.  1.
        -12    1    3    3    0    0  0.36015874606E+02 -0.17716367023E+02  0.98336542494E+01  0.41324492011E+02  0.00000000000E+00 0.  1.
</event>
<event>
 7    1  0.2284751E-015  0.9000771E+02  0.7816164E-02  0.1186339E+00
        -11   -1    0    0    0    0  0.00000000000E+00  0.00000000000E+00  0.45593999997E+02  0.45594000000E+02  0.51100000000E-03 0.  1.
         11   -1    0    0    0    0 -0.00000000000E+00 -0.00000000000E+00 -0.45593999997E+02  0.45594000000E+02  0.51100000000E-03 0. -1.
    9900012    2    1    2    0    0  0.67207907439E+00 -0.95536575616E+00  0.16930015087E+00  0.90007713361E+02  0.89999974377E+02 0.  0.
         12    1    1    2    0    0 -0.67207907439E+00  0.95536575616E+00 -0.16930015087E+00  0.11802866395E+01  0.00000000000E+00 0. -1.
         11    1    3    3    0    0 -0.25349503411E+01  0.28275668576E+01 -0.83860435635E+01  0.92058043905E+01  0.51100000000E-03 0. -1.
        -11    1    3    3    0    0 -0.20904338210E+02  0.18272004865E+02  0.30650628407E+02  0.41355997628E+02  0.51100000000E-03 0.  1.
         12    1    3    3    0    0  0.24111367626E+02 -0.22054937479E+02 -0.22095284692E+02  0.39445911342E+02  0.00000000000E+00 0. -1.
</event>
<event>
 7    1  0.2284751E-015  0.9000774E+02  0.7816164E-02  0.1186339E+00
        -11   -1    0    0    0    0  0.00000000000E+00  0.00000000000E+00  0.45593999997E+02  0.45594000000E+02  0.51100000000E-03 0. -1.
         11   -1    0    0    0    0 -0.00000000000E+00 -0.00000000000E+00 -0.45593999997E+02  0.45594000000E+02  0.51100000000E-03 0.  1.
    9900012    2    1    2    0    0  0.64380537861E+00  0.55455489920E+00  0.81913940316E+00  0.90007743306E+02  0.90000004718E+02 0.  0.
         12    1    1    2    0    0 -0.64380537861E+00 -0.55455489920E+00 -0.81913940316E+00  0.11802566939E+01  0.00000000000E+00 0. -1.
         11    1    3    3    0    0  0.28745794380E+02  0.23390116762E+01  0.13365743458E+02  0.31787336608E+02  0.51100000000E-03 0. -1.
        -11    1    3    3    0    0 -0.29682961284E+01  0.14426021704E+02  0.12416358805E+02  0.19263614675E+02  0.51100000000E-03 0.  1.
        -12    1    3    3    0    0 -0.25133692873E+02 -0.16210478481E+02 -0.24962962860E+02  0.38956792024E+02  0.00000000000E+00 0.  1.
</event>
<event>
 7    1  0.2284751E-015  0.9000774E+02  0.7816164E-02  0.1186339E+00
        -11   -1    0    0    0    0  0.00000000000E+00  0.00000000000E+00  0.45593999997E+02  0.45594000000E+02  0.51100000000E-03 0. -1.
         11   -1    0    0    0    0 -0.00000000000E+00 -0.00000000000E+00 -0.45593999997E+02  0.45594000000E+02  0.51100000000E-03 0.  1.
    9900012    2    1    2    0    0  0.90920786321E+00 -0.42702620175E+00  0.61967828167E+00  0.90007740923E+02  0.90000002303E+02 0.  0.
         12    1    1    2    0    0 -0.90920786321E+00  0.42702620175E+00 -0.61967828167E+00  0.11802590768E+01  0.00000000000E+00 0. -1.
         11    1    3    3    0    0 -0.20599729140E+00  0.47485763292E+01 -0.80842637806E+01  0.93779919585E+01  0.51100000000E-03 0. -1.
        -11    1    3    3    0    0  0.38128344104E+02 -0.60414301363E+01 -0.89270608811E+01  0.39622744964E+02  0.51100000000E-03 0.  1.
         12    1    3    3    0    0 -0.37013138950E+02  0.86582760533E+00  0.17631002943E+02  0.41007004001E+02  0.00000000000E+00 0. -1.
</event>
<event>
 7    1  0.2284751E-015  0.9000773E+02  0.7816164E-02  0.1186339E+00
        -11   -1    0    0    0    0  0.00000000000E+00  0.00000000000E+00  0.45593999997E+02  0.45594000000E+02  0.51100000000E-03 0.  1.
         11   -1    0    0    0    0 -0.00000000000E+00 -0.00000000000E+00 -0.45593999997E+02  0.45594000000E+02  0.51100000000E-03 0. -1.
    9900012    2    1    2    0    0  0.32675184296E-01  0.26509341687E+00  0.11496453898E+01  0.90007734475E+02  0.89999995770E+02 0.  0.
         12    1    1    2    0    0 -0.32675184296E-01 -0.26509341687E+00 -0.11496453898E+01  0.11802655251E+01  0.00000000000E+00 0. -1.
         11    1    3    3    0    0  0.98363223212E+01 -0.41565681331E+01 -0.24327872691E+01  0.10952111651E+02  0.51100000000E-03 0. -1.
        -11    1    3    3    0    0  0.21788285893E+02 -0.56993793361E+01  0.29389198353E+02  0.37026170570E+02  0.51100000000E-03 0.  1.
         12    1    3    3    0    0 -0.31591933030E+02  0.10121040886E+02 -0.25806765694E+02  0.42029452254E+02  0.00000000000E+00 0. -1.
</event>
<event>
 7    1  0.2284751E-015  0.9000773E+02  0.7816164E-02  0.1186339E+00
        -11   -1    0    0    0    0  0.00000000000E+00  0.00000000000E+00  0.45593999997E+02  0.45594000000E+02  0.51100000000E-03 0.  1.
         11   -1    0    0    0    0 -0.00000000000E+00 -0.00000000000E+00 -0.45593999997E+02  0.45594000000E+02  0.51100000000E-03 0. -1.
    9900012    2    1    2    0    0  0.87951412759E+00  0.78274786550E+00  0.82479065888E-01  0.90007727948E+02  0.89999989156E+02 0.  0.
         12    1    1    2    0    0 -0.87951412759E+00 -0.78274786550E+00 -0.82479065888E-01  0.11802720525E+01  0.00000000000E+00 0. -1.
         11    1    3    3    0    0 -0.12893358162E+02  0.18890188471E+02  0.17141519363E+02  0.28581630316E+02  0.51100000000E-03 0. -1.
        -11    1    3    3    0    0  0.13490717669E+02  0.13519734383E+02  0.83603839644E+01  0.20848949645E+02  0.51100000000E-03 0.  1.
         12    1    3    3    0    0  0.28215462097E+00 -0.31627174988E+02 -0.25419424261E+02  0.40577147987E+02  0.00000000000E+00 0. -1.
</event>
<event>
 7    1  0.2284751E-015  0.9000778E+02  0.7816164E-02  0.1186339E+00
        -11   -1    0    0    0    0  0.00000000000E+00  0.00000000000E+00  0.45593999997E+02  0.45594000000E+02  0.51100000000E-03 0.  1.
         11   -1    0    0    0    0 -0.00000000000E+00 -0.00000000000E+00 -0.45593999997E+02  0.45594000000E+02  0.51100000000E-03 0. -1.
    9900012    2    1    2    0    0 -0.91606370337E+00  0.54257033774E+00  0.50927860595E+00  0.90007779691E+02  0.90000041583E+02 0.  0.
         12    1    1    2    0    0  0.91606370337E+00 -0.54257033774E+00 -0.50927860595E+00  0.11802203093E+01  0.00000000000E+00 0. -1.
         11    1    3    3    0    0 -0.14764567497E+02  0.30578209210E+02 -0.23683097014E+01  0.34038628394E+02  0.51100000000E-03 0. -1.
        -11    1    3    3    0    0 -0.10889198903E+02  0.44751520825E+01  0.63320126880E+01  0.13367723212E+02  0.51100000000E-03 0.  1.
        -12    1    3    3    0    0  0.24737702697E+02 -0.34510790955E+02 -0.34544243807E+01  0.42601428085E+02  0.00000000000E+00 0.  1.
</event>
<event>
 7    1  0.2284751E-015  0.9000780E+02  0.7816164E-02  0.1186339E+00
        -11   -1    0    0    0    0  0.00000000000E+00  0.00000000000E+00  0.45593999997E+02  0.45594000000E+02  0.51100000000E-03 0. -1.
         11   -1    0    0    0    0 -0.00000000000E+00 -0.00000000000E+00 -0.45593999997E+02  0.45594000000E+02  0.51100000000E-03 0.  1.
    9900012    2    1    2    0    0  0.50631830704E+00  0.96320345995E+00  0.45689287067E+00  0.90007800767E+02  0.90000062938E+02 0.  0.
         12    1    1    2    0    0 -0.50631830704E+00 -0.96320345995E+00 -0.45689287067E+00  0.11801992326E+01  0.00000000000E+00 0. -1.
         11    1    3    3    0    0  0.24739103047E+02  0.21014913590E+01  0.32789892828E+02  0.41129266434E+02  0.51100000000E-03 0. -1.
        -11    1    3    3    0    0 -0.74398586097E+01 -0.27795942132E+01  0.39455246563E+01  0.88681906383E+01  0.51100000000E-03 0.  1.
        -12    1    3    3    0    0 -0.16792926130E+02  0.16413063142E+01 -0.36278524614E+02  0.40010343695E+02  0.00000000000E+00 0.  1.
</event>
<event>
 7    1  0.2284751E-015  0.9000771E+02  0.7816164E-02  0.1186339E+00
        -11   -1    0    0    0    0  0.00000000000E+00  0.00000000000E+00  0.45593999997E+02  0.45594000000E+02  0.51100000000E-03 0.  1.
         11   -1    0    0    0    0 -0.00000000000E+00 -0.00000000000E+00 -0.45593999997E+02  0.45594000000E+02  0.51100000000E-03 0. -1.
    9900012    2    1    2    0    0  0.76452254383E+00 -0.80193388927E+00 -0.40680180577E+00  0.90007711734E+02  0.89999972728E+02 0.  0.
         12    1    1    2    0    0 -0.76452254383E+00  0.80193388927E+00  0.40680180577E+00  0.11802882665E+01  0.00000000000E+00 0. -1.
         11    1    3    3    0    0 -0.18538937752E+02  0.28423939000E+02 -0.13228523609E+02  0.36422607792E+02  0.51100000000E-03 0. -1.
        -11    1    3    3    0    0 -0.15496915575E+01  0.12046048122E+01 -0.10010441243E+02  0.10201056358E+02  0.51100000000E-03 0.  1.
        -12    1    3    3    0    0  0.20853151853E+02 -0.30430477702E+02  0.22832163046E+02  0.43384047583E+02  0.00000000000E+00 0.  1.
</event>
<event>
 7    1  0.2284751E-015  0.9000773E+02  0.7816164E-02  0.1186339E+00
        -11   -1    0    0    0    0  0.00000000000E+00  0.00000000000E+00  0.45593999997E+02  0.45594000000E+02  0.51100000000E-03 0. -1.
         11   -1    0    0    0    0 -0.00000000000E+00 -0.00000000000E+00 -0.45593999997E+02  0.45594000000E+02  0.51100000000E-03 0.  1.
    9900012    2    1    2    0    0 -0.27684333601E-01  0.94715578358E+00 -0.70367536736E+00  0.90007733283E+02  0.89999994562E+02 0.  0.
         12    1    1    2    0    0  0.27684333601E-01 -0.94715578358E+00  0.70367536736E+00  0.11802667170E+01  0.00000000000E+00 0. -1.
         11    1    3    3    0    0  0.24595303198E+01  0.56412806853E+01  0.11512661369E+02  0.13054298496E+02  0.51100000000E-03 0. -1.
        -11    1    3    3    0    0 -0.65216654453E+01 -0.38867565121E+02 -0.15579865463E+02  0.42378673253E+02  0.51100000000E-03 0.  1.
         12    1    3    3    0    0  0.40344507919E+01  0.34173440219E+02  0.33635287267E+01  0.34574761533E+02  0.00000000000E+00 0. -1.
</event>
<event>
 7    1  0.2284751E-015  0.9000781E+02  0.7816164E-02  0.1186339E+00
        -11   -1    0    0    0    0  0.00000000000E+00  0.00000000000E+00  0.45593999997E+02  0.45594000000E+02  0.51100000000E-03 0. -1.
         11   -1    0    0    0    0 -0.00000000000E+00 -0.00000000000E+00 -0.45593999997E+02  0.45594000000E+02  0.51100000000E-03 0.  1.
    9900012    2    1    2    0    0  0.15128214030E+00  0.98262071743E+00  0.63594071505E+00  0.90007809188E+02  0.90000071469E+02 0.  0.
         12    1    1    2    0    0 -0.15128214030E+00 -0.98262071743E+00 -0.63594071505E+00  0.11801908123E+01  0.00000000000E+00 0. -1.
         11    1    3    3    0    0  0.14951522538E+01  0.22392300264E+02  0.29315206463E+02  0.36919262203E+02  0.51100000000E-03 0. -1.
        -11    1    3    3    0    0 -0.66324057165E+01 -0.14388936968E+01  0.83050512405E+01  0.10725348341E+02  0.51100000000E-03 0.  1.
        -12    1    3    3    0    0  0.52885356030E+01 -0.19970785849E+02 -0.36984316989E+02  0.42363198644E+02  0.00000000000E+00 0.  1.
</event>
<event>
 7    1  0.2284751E-015  0.9000774E+02  0.7816164E-02  0.1186339E+00
        -11   -1    0    0    0    0  0.00000000000E+00  0.00000000000E+00  0.45593999997E+02  0.45594000000E+02  0.51100000000E-03 0.  1.
         11   -1    0    0    0    0 -0.00000000000E+00 -0.00000000000E+00 -0.45593999997E+02  0.45594000000E+02  0.51100000000E-03 0. -1.
    9900012    2    1    2    0    0  0.55496444394E-01 -0.66687741517E+00  0.97222266082E+00  0.90007736367E+02  0.89999997687E+02 0.  0.
         12    1    1    2    0    0 -0.55496444394E-01  0.66687741517E+00 -0.97222266082E+00  0.11802636334E+01  0.00000000000E+00 0. -1.
         11    1    3    3    0    0 -0.49086539939E+01 -0.30359126128E+01  0.99159201619E+01  0.11473322202E+02  0.51100000000E-03 0. -1.
        -11    1    3    3    0    0  0.31906122888E+02 -0.24282310980E+02 -0.57122140942E+01  0.40500132029E+02  0.51100000000E-03 0.  1.
         12    1    3    3    0    0 -0.26941972449E+02  0.26651346178E+02 -0.32314834069E+01  0.38034282136E+02  0.00000000000E+00 0. -1.
</event>
<event>
 7    1  0.2284751E-015  0.9000785E+02  0.7816164E-02  0.1186339E+00
        -11   -1    0    0    0    0  0.00000000000E+00  0.00000000000E+00  0.45593999997E+02  0.45594000000E+02  0.51100000000E-03 0.  1.
         11   -1    0    0    0    0 -0.00000000000E+00 -0.00000000000E+00 -0.45593999997E+02  0.45594000000E+02  0.51100000000E-03 0. -1.
    9900012    2    1    2    0    0  0.99876249148E+00 -0.59311767514E+00 -0.20839500223E+00  0.90007854429E+02  0.90000117308E+02 0.  0.
         12    1    1    2    0    0 -0.99876249148E+00  0.59311767514E+00  0.20839500223E+00  0.11801455706E+01  0.00000000000E+00 0. -1.
         11    1    3    3    0    0 -0.17341674057E+02 -0.12473131262E+00 -0.25257001235E+01  0.17525078555E+02  0.51100000000E-03 0. -1.
        -11    1    3    3    0    0  0.69034022377E+01 -0.21576599861E+02  0.28862690902E+02  0.36691437017E+02  0.51100000000E-03 0.  1.
         12    1    3    3    0    0  0.11437034310E+02  0.21108213498E+02 -0.26545385781E+02  0.35791338857E+02  0.00000000000E+00 0. -1.
</event>
<event>
 7    1  0.2284751E-015  0.9000787E+02  0.7816164E-02  0.1186339E+00
        -11   -1    0    0    0    0  0.00000000000E+00  0.00000000000E+00  0.45593999997E+02  0.45594000000E+02  0.51100000000E-03 0. -1.
         11   -1    0    0    0    0 -0.00000000000E+00 -0.00000000000E+00 -0.45593999997E+02  0.45594000000E+02  0.51100000000E-03 0.  1.
    9900012    2    1    2    0    0  0.10568237793E+01 -0.60805955701E-01  0.52167012355E+00  0.90007867134E+02  0.90000130180E+02 0.  0.
         12    1    1    2    0    0 -0.10568237793E+01  0.60805955701E-01 -0.52167012355E+00  0.11801328665E+01  0.00000000000E+00 0. -1.
         11    1    3    3    0    0 -0.27408122683E+01 -0.64895326322E+01  0.49616717727E+01  0.86165116326E+01  0.51100000000E-03 0. -1.
        -11    1    3    3    0    0 -0.16648512456E+02  0.35686667929E+02  0.13257381101E+02  0.41550804912E+02  0.51100000000E-03 0.  1.
         12    1    3    3    0    0  0.20446148504E+02 -0.29257941253E+02 -0.17697382750E+02  0.39840550589E+02  0.00000000000E+00 0. -1.
</event>
<event>
 7    1  0.2284751E-015  0.9000781E+02  0.7816164E-02  0.1186339E+00
        -11   -1    0    0    0    0  0.00000000000E+00  0.00000000000E+00  0.45593999997E+02  0.45594000000E+02  0.51100000000E-03 0.  1.
         11   -1    0    0    0    0 -0.00000000000E+00 -0.00000000000E+00 -0.45593999997E+02  0.45594000000E+02  0.51100000000E-03 0. -1.
    9900012    2    1    2    0    0  0.47459796211E+00  0.98812921724E+00 -0.43726026828E+00  0.90007813948E+02  0.90000076292E+02 0.  0.
         12    1    1    2    0    0 -0.47459796211E+00 -0.98812921724E+00  0.43726026828E+00  0.11801860522E+01  0.00000000000E+00 0. -1.
         11    1    3    3    0    0 -0.25170883994E+02  0.24678931510E+02 -0.69085994732E-01  0.35250926720E+02  0.51100000000E-03 0. -1.
        -11    1    3    3    0    0 -0.27160721814E+01  0.97857992588E+01  0.34249831679E+01  0.10717715484E+02  0.51100000000E-03 0.  1.
        -12    1    3    3    0    0  0.28361554137E+02 -0.33476601552E+02 -0.37931574414E+01  0.44039171744E+02  0.00000000000E+00 0.  1.
</event>
<event>
 7    1  0.2284751E-015  0.9000775E+02  0.7816164E-02  0.1186339E+00
        -11   -1    0    0    0    0  0.00000000000E+00  0.00000000000E+00  0.45593999997E+02  0.45594000000E+02  0.51100000000E-03 0.  1.
         11   -1    0    0    0    0 -0.00000000000E+00 -0.00000000000E+00 -0.45593999997E+02  0.45594000000E+02  0.51100000000E-03 0. -1.
    9900012    2    1    2    0    0  0.10803674574E+01  0.32786881460E+00  0.34393240923E+00  0.90007753710E+02  0.90000015259E+02 0.  0.
         12    1    1    2    0    0 -0.10803674574E+01 -0.32786881460E+00 -0.34393240923E+00  0.11802462898E+01  0.00000000000E+00 0. -1.
         11    1    3    3    0    0  0.18591337681E+02 -0.22405419630E+02 -0.28301845428E+02  0.40603388041E+02  0.51100000000E-03 0. -1.
        -11    1    3    3    0    0 -0.73302853635E+01  0.35509043804E+01 -0.48537313953E+01  0.94815987127E+01  0.51100000000E-03 0.  1.
        -12    1    3    3    0    0 -0.10180684860E+02  0.19182384064E+02  0.33499509233E+02  0.39922766956E+02  0.00000000000E+00 0.  1.
</event>
<event>
 7    1  0.2284751E-015  0.9000829E+02  0.7816164E-02  0.1186338E+00
        -11   -1    0    0    0    0  0.00000000000E+00  0.00000000000E+00  0.45593999997E+02  0.45594000000E+02  0.51100000000E-03 0.  1.
         11   -1    0    0    0    0 -0.00000000000E+00 -0.00000000000E+00 -0.45593999997E+02  0.45594000000E+02  0.51100000000E-03 0. -1.
    9900012    2    1    2    0    0  0.17118338931E+00 -0.83180444671E+00  0.81885394098E+00  0.90008286405E+02  0.90000554984E+02 0.  0.
         12    1    1    2    0    0 -0.17118338931E+00  0.83180444671E+00 -0.81885394098E+00  0.11797135953E+01  0.00000000000E+00 0. -1.
         11    1    3    3    0    0  0.14842021040E+02 -0.35823671534E+02  0.47199004604E+00  0.38779425029E+02  0.51100000000E-03 0. -1.
        -11    1    3    3    0    0 -0.46663420553E+01 -0.55285747404E+01 -0.54948766309E+01  0.90847980873E+01  0.51100000000E-03 0.  1.
        -12    1    3    3    0    0 -0.10004495596E+02  0.40520441828E+02  0.58417405259E+01  0.42144063288E+02  0.00000000000E+00 0.  1.
</event>
<event>
 7    1  0.2284751E-015  0.9000777E+02  0.7816164E-02  0.1186339E+00
        -11   -1    0    0    0    0  0.00000000000E+00  0.00000000000E+00  0.45593999997E+02  0.45594000000E+02  0.51100000000E-03 0. -1.
         11   -1    0    0    0    0 -0.00000000000E+00 -0.00000000000E+00 -0.45593999997E+02  0.45594000000E+02  0.51100000000E-03 0.  1.
    9900012    2    1    2    0    0  0.78319839462E+00  0.88171662442E+00  0.45976595379E-01  0.90007772150E+02  0.90000033942E+02 0.  0.
         12    1    1    2    0    0 -0.78319839462E+00 -0.88171662442E+00 -0.45976595379E-01  0.11802278502E+01  0.00000000000E+00 0. -1.
         11    1    3    3    0    0  0.23879673478E+02  0.17309049844E+02  0.22393812781E+02  0.37031403741E+02  0.51100000000E-03 0. -1.
        -11    1    3    3    0    0  0.44600068249E+01  0.85858191990E+01 -0.21709512435E+00  0.96775556185E+01  0.51100000000E-03 0.  1.
        -12    1    3    3    0    0 -0.27556481909E+02 -0.25013152419E+02 -0.22130741061E+02  0.43298812790E+02  0.00000000000E+00 0.  1.
</event>
<event>
 7    1  0.2284751E-015  0.9000775E+02  0.7816164E-02  0.1186339E+00
        -11   -1    0    0    0    0  0.00000000000E+00  0.00000000000E+00  0.45593999997E+02  0.45594000000E+02  0.51100000000E-03 0. -1.
         11   -1    0    0    0    0 -0.00000000000E+00 -0.00000000000E+00 -0.45593999997E+02  0.45594000000E+02  0.51100000000E-03 0.  1.
    9900012    2    1    2    0    0  0.38369214119E+00  0.10962210167E+01 -0.20991655542E+00  0.90007752087E+02  0.90000013614E+02 0.  0.
         12    1    1    2    0    0 -0.38369214119E+00 -0.10962210167E+01  0.20991655542E+00  0.11802479133E+01  0.00000000000E+00 0. -1.
         11    1    3    3    0    0 -0.60348757591E+01  0.35914493159E+01 -0.71153987564E+01  0.99973563176E+01  0.51100000000E-03 0. -1.
        -11    1    3    3    0    0  0.34969275381E+01  0.30196741697E+02  0.27724153482E+02  0.41142440349E+02  0.51100000000E-03 0.  1.
         12    1    3    3    0    0  0.29216403622E+01 -0.32691969996E+02 -0.20818671281E+02  0.38867955420E+02  0.00000000000E+00 0. -1.
</event>
<event>
 7    1  0.2284751E-015  0.9000775E+02  0.7816164E-02  0.1186339E+00
        -11   -1    0    0    0    0  0.00000000000E+00  0.00000000000E+00  0.45593999997E+02  0.45594000000E+02  0.51100000000E-03 0.  1.
         11   -1    0    0    0    0 -0.00000000000E+00 -0.00000000000E+00 -0.45593999997E+02  0.45594000000E+02  0.51100000000E-03 0. -1.
    9900012    2    1    2    0    0  0.61361957966E+00  0.73200993778E+00  0.69327569437E+00  0.90007746330E+02  0.90000007781E+02 0.  0.
         12    1    1    2    0    0 -0.61361957966E+00 -0.73200993778E+00 -0.69327569437E+00  0.11802536702E+01  0.00000000000E+00 0. -1.
         11    1    3    3    0    0 -0.86626655059E+01  0.81519457252E+01 -0.28284155818E+02  0.30683700288E+02  0.51100000000E-03 0. -1.
        -11    1    3    3    0    0 -0.64514681407E+01 -0.31867718421E+01 -0.12689050105E+02  0.14587287231E+02  0.51100000000E-03 0.  1.
        -12    1    3    3    0    0  0.15727753226E+02 -0.42331639453E+01  0.41666481617E+02  0.44736758811E+02  0.00000000000E+00 0.  1.
</event>
<event>
 7    1  0.2284751E-015  0.9000778E+02  0.7816164E-02  0.1186339E+00
        -11   -1    0    0    0    0  0.00000000000E+00  0.00000000000E+00  0.45593999997E+02  0.45594000000E+02  0.51100000000E-03 0.  1.
         11   -1    0    0    0    0 -0.00000000000E+00 -0.00000000000E+00 -0.45593999997E+02  0.45594000000E+02  0.51100000000E-03 0. -1.
    9900012    2    1    2    0    0  0.11462876725E+01 -0.15887685529E+00  0.23173695002E+00  0.90007779979E+02  0.90000041875E+02 0.  0.
         12    1    1    2    0    0 -0.11462876725E+01  0.15887685529E+00 -0.23173695002E+00  0.11802200207E+01  0.00000000000E+00 0. -1.
         11    1    3    3    0    0  0.33598086082E+01 -0.36291406111E+02 -0.74382838413E+01  0.37197883517E+02  0.51100000000E-03 0. -1.
        -11    1    3    3    0    0  0.11998685260E+01 -0.76902735809E+01  0.38645907438E+01  0.86899398218E+01  0.51100000000E-03 0.  1.
        -12    1    3    3    0    0 -0.34133894617E+01  0.43822802837E+02  0.38054300475E+01  0.44119956640E+02  0.00000000000E+00 0.  1.
</event>
<event>
 7    1  0.2284751E-015  0.9000774E+02  0.7816164E-02  0.1186339E+00
        -11   -1    0    0    0    0  0.00000000000E+00  0.00000000000E+00  0.45593999997E+02  0.45594000000E+02  0.51100000000E-03 0.  1.
         11   -1    0    0    0    0 -0.00000000000E+00 -0.00000000000E+00 -0.45593999997E+02  0.45594000000E+02  0.51100000000E-03 0. -1.
    9900012    2    1    2    0    0  0.78171481223E-01 -0.37632036879E-01  0.11770666694E+01  0.90007740327E+02  0.90000001700E+02 0.  0.
         12    1    1    2    0    0 -0.78171481223E-01  0.37632036879E-01 -0.11770666694E+01  0.11802596726E+01  0.00000000000E+00 0. -1.
         11    1    3    3    0    0 -0.32034178931E+02 -0.20609152214E+01 -0.21518508276E+02  0.38645597291E+02  0.51100000000E-03 0. -1.
        -11    1    3    3    0    0 -0.67601783568E+01 -0.10885874146E+00  0.58588885874E+01  0.89464203670E+01  0.51100000000E-03 0.  1.
        -12    1    3    3    0    0  0.38872528769E+02  0.21321419260E+01  0.16836686358E+02  0.42415722669E+02  0.00000000000E+00 0.  1.
</event>
<event>
 7    1  0.2284751E-015  0.9000781E+02  0.7816164E-02  0.1186339E+00
        -11   -1    0    0    0    0  0.00000000000E+00  0.00000000000E+00  0.45593999997E+02  0.45594000000E+02  0.51100000000E-03 0. -1.
         11   -1    0    0    0    0 -0.00000000000E+00 -0.00000000000E+00 -0.45593999997E+02  0.45594000000E+02  0.51100000000E-03 0.  1.
    9900012    2    1    2    0    0 -0.10321153619E+01  0.56138812853E+00 -0.11147942216E+00  0.90007810857E+02  0.90000073161E+02 0.  0.
         12    1    1    2    0    0  0.10321153619E+01 -0.56138812853E+00  0.11147942216E+00  0.11801891427E+01  0.00000000000E+00 0. -1.
         11    1    3    3    0    0  0.17146745449E+02 -0.16644448624E+02  0.34083270887E+02  0.41625928267E+02  0.51100000000E-03 0. -1.
        -11    1    3    3    0    0  0.55906459453E+01  0.47719281668E+01 -0.62871249384E+01  0.96723606615E+01  0.51100000000E-03 0.  1.
        -12    1    3    3    0    0 -0.23769506756E+02  0.12433908586E+02 -0.27907625370E+02  0.38709521929E+02  0.00000000000E+00 0.  1.
</event>
<event>
 7    1  0.2284751E-015  0.9000778E+02  0.7816164E-02  0.1186339E+00
        -11   -1    0    0    0    0  0.00000000000E+00  0.00000000000E+00  0.45593999997E+02  0.45594000000E+02  0.51100000000E-03 0.  1.
         11   -1    0    0    0    0 -0.00000000000E+00 -0.00000000000E+00 -0.45593999997E+02  0.45594000000E+02  0.51100000000E-03 0. -1.
    9900012    2    1    2    0    0 -0.18171712120E+00  0.10686065430E+01 -0.46689131213E+00  0.90007776058E+02  0.90000037902E+02 0.  0.
         12    1    1    2    0    0  0.18171712120E+00 -0.10686065430E+01  0.46689131213E+00  0.11802239419E+01  0.00000000000E+00 0. -1.
         11    1    3    3    0    0 -0.22427946390E+02  0.20277090601E+02 -0.18171046122E+02  0.35275488656E+02  0.51100000000E-03 0. -1.
        -11    1    3    3    0    0 -0.11978724564E+01  0.80104012071E+01 -0.73481558334E+01  0.10936033117E+02  0.51100000000E-03 0.  1.
        -12    1    3    3    0    0  0.23444101725E+02 -0.27218885266E+02  0.25052310644E+02  0.43796254285E+02  0.00000000000E+00 0.  1.
</event>
<event>
 7    1  0.2284751E-015  0.9000773E+02  0.7816164E-02  0.1186339E+00
        -11   -1    0    0    0    0  0.00000000000E+00  0.00000000000E+00  0.45593999997E+02  0.45594000000E+02  0.51100000000E-03 0.  1.
         11   -1    0    0    0    0 -0.00000000000E+00 -0.00000000000E+00 -0.45593999997E+02  0.45594000000E+02  0.51100000000E-03 0. -1.
    9900012    2    1    2    0    0  0.70649110924E+00  0.90093357627E+00  0.28675533131E+00  0.90007729007E+02  0.89999990230E+02 0.  0.
         12    1    1    2    0    0 -0.70649110924E+00 -0.90093357627E+00 -0.28675533131E+00  0.11802709927E+01  0.00000000000E+00 0. -1.
         11    1    3    3    0    0  0.13190048939E+02  0.12733759252E+02 -0.30770538243E+01  0.18590166115E+02  0.51100000000E-03 0. -1.
        -11    1    3    3    0    0  0.22423822106E+02 -0.23325573458E+02 -0.72634270899E+01  0.33161235627E+02  0.51100000000E-03 0.  1.
         12    1    3    3    0    0 -0.34907379936E+02  0.11492747782E+02  0.10627236245E+02  0.38256327265E+02  0.00000000000E+00 0. -1.
</event>
<event>
 7    1  0.2284751E-015  0.9000769E+02  0.7816164E-02  0.1186339E+00
        -11   -1    0    0    0    0  0.00000000000E+00  0.00000000000E+00  0.45593999997E+02  0.45594000000E+02  0.51100000000E-03 0.  1.
         11   -1    0    0    0    0 -0.00000000000E+00 -0.00000000000E+00 -0.45593999997E+02  0.45594000000E+02  0.51100000000E-03 0. -1.
    9900012    2    1    2    0    0 -0.14423196561E+00 -0.11675666665E+01  0.95538540340E-01  0.90007685468E+02  0.89999946117E+02 0.  0.
         12    1    1    2    0    0  0.14423196561E+00  0.11675666665E+01 -0.95538540340E-01  0.11803145315E+01  0.00000000000E+00 0. -1.
         11    1    3    3    0    0  0.33680769027E+01  0.80804917246E+01  0.32108066542E+01  0.93245679882E+01  0.51100000000E-03 0. -1.
        -11    1    3    3    0    0 -0.26230647361E+02  0.19877945940E+02 -0.21611070247E+02  0.39372807282E+02  0.51100000000E-03 0.  1.
         12    1    3    3    0    0  0.22718338493E+02 -0.29126004331E+02  0.18495802133E+02  0.41310310199E+02  0.00000000000E+00 0. -1.
</event>
<event>
 7    1  0.2284751E-015  0.9000766E+02  0.7816164E-02  0.1186339E+00
        -11   -1    0    0    0    0  0.00000000000E+00  0.00000000000E+00  0.45593999997E+02  0.45594000000E+02  0.51100000000E-03 0.  1.
         11   -1    0    0    0    0 -0.00000000000E+00 -0.00000000000E+00 -0.45593999997E+02  0.45594000000E+02  0.51100000000E-03 0. -1.
    9900012    2    1    2    0    0  0.57329179895E+00  0.38631103873E+00  0.95671183173E+00  0.90007662237E+02  0.89999922579E+02 0.  0.
         12    1    1    2    0    0 -0.57329179895E+00 -0.38631103873E+00 -0.95671183173E+00  0.11803377628E+01  0.00000000000E+00 0. -1.
         11    1    3    3    0    0  0.79340957032E+01  0.74341087252E+01 -0.44247303493E+01  0.11738572575E+02  0.51100000000E-03 0. -1.
        -11    1    3    3    0    0  0.51416725185E+01  0.31784370393E+02 -0.11401347577E+02  0.34156605868E+02  0.51100000000E-03 0.  1.
         12    1    3    3    0    0 -0.12502476423E+02 -0.38832168080E+02  0.16782789758E+02  0.44112483795E+02  0.00000000000E+00 0. -1.
</event>
<event>
 7    1  0.2284751E-015  0.9000801E+02  0.7816164E-02  0.1186339E+00
        -11   -1    0    0    0    0  0.00000000000E+00  0.00000000000E+00  0.45593999997E+02  0.45594000000E+02  0.51100000000E-03 0.  1.
         11   -1    0    0    0    0 -0.00000000000E+00 -0.00000000000E+00 -0.45593999997E+02  0.45594000000E+02  0.51100000000E-03 0. -1.
    9900012    2    1    2    0    0  0.77021573337E+00  0.87876860688E+00 -0.16406719674E+00  0.90008006532E+02  0.90000271417E+02 0.  0.
         12    1    1    2    0    0 -0.77021573337E+00 -0.87876860688E+00  0.16406719674E+00  0.11799934684E+01  0.00000000000E+00 0. -1.
         11    1    3    3    0    0  0.77660515177E+01  0.79214883402E+00  0.41058905986E+01  0.88202830918E+01  0.51100000000E-03 0. -1.
        -11    1    3    3    0    0 -0.27005255534E+02 -0.13584475572E+02  0.27747253572E+02  0.41033302134E+02  0.51100000000E-03 0.  1.
         12    1    3    3    0    0  0.20009419750E+02  0.13671095345E+02 -0.32017211367E+02  0.40154421305E+02  0.00000000000E+00 0. -1.
</event>
<event>
 7    1  0.2284751E-015  0.9000770E+02  0.7816164E-02  0.1186339E+00
        -11   -1    0    0    0    0  0.00000000000E+00  0.00000000000E+00  0.45593999997E+02  0.45594000000E+02  0.51100000000E-03 0.  1.
         11   -1    0    0    0    0 -0.00000000000E+00 -0.00000000000E+00 -0.45593999997E+02  0.45594000000E+02  0.51100000000E-03 0. -1.
    9900012    2    1    2    0    0  0.55745169947E+00  0.24239359068E+00  0.10117277040E+01  0.90007703428E+02  0.89999964314E+02 0.  0.
         12    1    1    2    0    0 -0.55745169947E+00 -0.24239359068E+00 -0.10117277040E+01  0.11802965716E+01  0.00000000000E+00 0. -1.
         11    1    3    3    0    0  0.25272808229E+01  0.36330585540E+02  0.14331239982E+02  0.39136722317E+02  0.51100000000E-03 0. -1.
        -11    1    3    3    0    0 -0.51408987783E+01  0.43901293037E+01 -0.70849169289E+01  0.97927587381E+01  0.51100000000E-03 0.  1.
        -12    1    3    3    0    0  0.31710696548E+01 -0.40478321253E+02 -0.62345953494E+01  0.41078222373E+02  0.00000000000E+00 0.  1.
</event>
<event>
 7    1  0.2284751E-015  0.9000759E+02  0.7816164E-02  0.1186339E+00
        -11   -1    0    0    0    0  0.00000000000E+00  0.00000000000E+00  0.45593999997E+02  0.45594000000E+02  0.51100000000E-03 0. -1.
         11   -1    0    0    0    0 -0.00000000000E+00 -0.00000000000E+00 -0.45593999997E+02  0.45594000000E+02  0.51100000000E-03 0.  1.
    9900012    2    1    2    0    0 -0.74391923574E+00  0.52298721005E+00  0.75261698606E+00  0.90007591690E+02  0.89999851100E+02 0.  0.
         12    1    1    2    0    0  0.74391923574E+00 -0.52298721005E+00 -0.75261698606E+00  0.11804083102E+01  0.00000000000E+00 0. -1.
         11    1    3    3    0    0 -0.13047524613E+01 -0.28784293233E+02 -0.22036400561E+02  0.36274520891E+02  0.51100000000E-03 0. -1.
        -11    1    3    3    0    0 -0.59500524814E-01  0.30027694643E+01 -0.10717445774E+02  0.11130310371E+02  0.51100000000E-03 0.  1.
        -12    1    3    3    0    0  0.62033375043E+00  0.26304510979E+02  0.33506463321E+02  0.42602760428E+02  0.00000000000E+00 0.  1.
</event>
<event>
 7    1  0.2284751E-015  0.9000795E+02  0.7816164E-02  0.1186339E+00
        -11   -1    0    0    0    0  0.00000000000E+00  0.00000000000E+00  0.45593999997E+02  0.45594000000E+02  0.51100000000E-03 0. -1.
         11   -1    0    0    0    0 -0.00000000000E+00 -0.00000000000E+00 -0.45593999997E+02  0.45594000000E+02  0.51100000000E-03 0.  1.
    9900012    2    1    2    0    0 -0.31025606116E+00  0.46031436652E+00 -0.10413306638E+01  0.90007950132E+02  0.90000214274E+02 0.  0.
         12    1    1    2    0    0  0.31025606116E+00 -0.46031436652E+00  0.10413306638E+01  0.11800498680E+01  0.00000000000E+00 0. -1.
         11    1    3    3    0    0  0.19096984255E+01  0.10507238771E+02  0.63129031363E+01  0.12405714850E+02  0.51100000000E-03 0. -1.
        -11    1    3    3    0    0  0.36529802883E+02 -0.11480533248E+02 -0.63401300978E+01  0.38812709159E+02  0.51100000000E-03 0.  1.
         12    1    3    3    0    0 -0.38749757370E+02  0.14336088438E+01 -0.10141037023E+01  0.38789526123E+02  0.00000000000E+00 0. -1.
</event>
<event>
 7    1  0.2284751E-015  0.9000765E+02  0.7816164E-02  0.1186339E+00
        -11   -1    0    0    0    0  0.00000000000E+00  0.00000000000E+00  0.45593999997E+02  0.45594000000E+02  0.51100000000E-03 0. -1.
         11   -1    0    0    0    0 -0.00000000000E+00 -0.00000000000E+00 -0.45593999997E+02  0.45594000000E+02  0.51100000000E-03 0.  1.
    9900012    2    1    2    0    0 -0.77860349300E+00 -0.70101860023E+00 -0.54366916949E+00  0.90007649780E+02  0.89999909957E+02 0.  0.
         12    1    1    2    0    0  0.77860349300E+00  0.70101860023E+00  0.54366916949E+00  0.11803502205E+01  0.00000000000E+00 0. -1.
         11    1    3    3    0    0  0.72608682133E+01  0.10617192282E+02  0.15755921430E+02  0.20339469991E+02  0.51100000000E-03 0. -1.
        -11    1    3    3    0    0  0.19626299880E+02  0.17830120935E+02 -0.59942869157E+00  0.26522899060E+02  0.51100000000E-03 0.  1.
         12    1    3    3    0    0 -0.27665771586E+02 -0.29148331817E+02 -0.15700161908E+02  0.43145280728E+02  0.00000000000E+00 0. -1.
</event>
<event>
 7    1  0.2284751E-015  0.9000838E+02  0.7816164E-02  0.1186338E+00
        -11   -1    0    0    0    0  0.00000000000E+00  0.00000000000E+00  0.45593999997E+02  0.45594000000E+02  0.51100000000E-03 0.  1.
         11   -1    0    0    0    0 -0.00000000000E+00 -0.00000000000E+00 -0.45593999997E+02  0.45594000000E+02  0.51100000000E-03 0. -1.
    9900012    2    1    2    0    0  0.10536924601E+01  0.46020593823E+00 -0.26352951947E+00  0.90008379250E+02  0.90000649054E+02 0.  0.
         12    1    1    2    0    0 -0.10536924601E+01 -0.46020593823E+00  0.26352951947E+00  0.11796207500E+01  0.00000000000E+00 0. -1.
         11    1    3    3    0    0 -0.49503977148E+01  0.58062944943E+01 -0.74962054247E+01  0.10696382067E+02  0.51100000000E-03 0. -1.
        -11    1    3    3    0    0 -0.67246549630E+01 -0.36580856189E+02  0.21193325547E+02  0.42808142588E+02  0.51100000000E-03 0.  1.
         12    1    3    3    0    0  0.12728745138E+02  0.31234767633E+02 -0.13960649641E+02  0.36503854595E+02  0.00000000000E+00 0. -1.
</event>
<event>
 7    1  0.2284751E-015  0.9000766E+02  0.7816164E-02  0.1186339E+00
        -11   -1    0    0    0    0  0.00000000000E+00  0.00000000000E+00  0.45593999997E+02  0.45594000000E+02  0.51100000000E-03 0.  1.
         11   -1    0    0    0    0 -0.00000000000E+00 -0.00000000000E+00 -0.45593999997E+02  0.45594000000E+02  0.51100000000E-03 0. -1.
    9900012    2    1    2    0    0 -0.18369724824E+00  0.97149507573E+00  0.64471950371E+00  0.90007656576E+02  0.89999916842E+02 0.  0.
         12    1    1    2    0    0  0.18369724824E+00 -0.97149507573E+00 -0.64471950371E+00  0.11803434244E+01  0.00000000000E+00 0. -1.
         11    1    3    3    0    0 -0.39089179044E+01 -0.11066770390E+02 -0.25844812128E+01  0.12018011044E+02  0.51100000000E-03 0. -1.
        -11    1    3    3    0    0  0.14937771113E+00 -0.29732409201E+02  0.16514810700E+02  0.34011431068E+02  0.51100000000E-03 0.  1.
         12    1    3    3    0    0  0.35758429450E+01  0.41770674666E+02 -0.13285609983E+02  0.43978214464E+02  0.00000000000E+00 0. -1.
</event>
<event>
 7    1  0.2284751E-015  0.9000777E+02  0.7816164E-02  0.1186339E+00
        -11   -1    0    0    0    0  0.00000000000E+00  0.00000000000E+00  0.45593999997E+02  0.45594000000E+02  0.51100000000E-03 0.  1.
         11   -1    0    0    0    0 -0.00000000000E+00 -0.00000000000E+00 -0.45593999997E+02  0.45594000000E+02  0.51100000000E-03 0. -1.
    9900012    2    1    2    0    0  0.69716563735E+00 -0.63053486202E+00 -0.71367304981E+00  0.90007769785E+02  0.90000031546E+02 0.  0.
         12    1    1    2    0    0 -0.69716563735E+00  0.63053486202E+00  0.71367304981E+00  0.11802302149E+01  0.00000000000E+00 0. -1.
         11    1    3    3    0    0 -0.20341546465E+01  0.35494774045E+02 -0.22556929144E+02  0.42105009468E+02  0.51100000000E-03 0. -1.
        -11    1    3    3    0    0 -0.66161719455E+01 -0.92772760024E+01 -0.99285292162E+00  0.11437977899E+02  0.51100000000E-03 0.  1.
        -12    1    3    3    0    0  0.93474922293E+01 -0.26848032905E+02  0.22836109015E+02  0.36464782418E+02  0.00000000000E+00 0.  1.
</event>
<event>
 7    1  0.2284751E-015  0.9000792E+02  0.7816164E-02  0.1186339E+00
        -11   -1    0    0    0    0  0.00000000000E+00  0.00000000000E+00  0.45593999997E+02  0.45594000000E+02  0.51100000000E-03 0. -1.
         11   -1    0    0    0    0 -0.00000000000E+00 -0.00000000000E+00 -0.45593999997E+02  0.45594000000E+02  0.51100000000E-03 0.  1.
    9900012    2    1    2    0    0 -0.72083749184E+00  0.74635716095E+00 -0.56207692494E+00  0.90007921117E+02  0.90000184875E+02 0.  0.
         12    1    1    2    0    0  0.72083749184E+00 -0.74635716095E+00  0.56207692494E+00  0.11800788833E+01  0.00000000000E+00 0. -1.
         11    1    3    3    0    0 -0.56815478663E+01  0.69423360256E+01  0.20146622309E+01  0.91942851715E+01  0.51100000000E-03 0. -1.
        -11    1    3    3    0    0 -0.35508793363E+02  0.97720080605E+01  0.30046576431E+01  0.36951245114E+02  0.51100000000E-03 0.  1.
         12    1    3    3    0    0  0.40469503738E+02 -0.15967986925E+02 -0.55813967989E+01  0.43862390831E+02  0.00000000000E+00 0. -1.
</event>
<event>
 7    1  0.2284751E-015  0.9000772E+02  0.7816164E-02  0.1186339E+00
        -11   -1    0    0    0    0  0.00000000000E+00  0.00000000000E+00  0.45593999997E+02  0.45594000000E+02  0.51100000000E-03 0. -1.
         11   -1    0    0    0    0 -0.00000000000E+00 -0.00000000000E+00 -0.45593999997E+02  0.45594000000E+02  0.51100000000E-03 0.  1.
    9900012    2    1    2    0    0 -0.50682585717E+00 -0.35271459613E+00 -0.10058682687E+01  0.90007724181E+02  0.89999985340E+02 0.  0.
         12    1    1    2    0    0  0.50682585717E+00  0.35271459613E+00  0.10058682687E+01  0.11802758194E+01  0.00000000000E+00 0. -1.
         11    1    3    3    0    0  0.37939091717E+01  0.41418421269E+01 -0.60600537598E+01  0.82627389429E+01  0.51100000000E-03 0. -1.
        -11    1    3    3    0    0  0.34124140850E+02  0.16019239994E+02  0.60291438434E+01  0.38176217917E+02  0.51100000000E-03 0.  1.
         12    1    3    3    0    0 -0.38424875878E+02 -0.20513796717E+02 -0.97495835231E+00  0.43568767320E+02  0.00000000000E+00 0. -1.
</event>
<event>
 7    1  0.2284751E-015  0.9000775E+02  0.7816164E-02  0.1186339E+00
        -11   -1    0    0    0    0  0.00000000000E+00  0.00000000000E+00  0.45593999997E+02  0.45594000000E+02  0.51100000000E-03 0. -1.
         11   -1    0    0    0    0 -0.00000000000E+00 -0.00000000000E+00 -0.45593999997E+02  0.45594000000E+02  0.51100000000E-03 0.  1.
    9900012    2    1    2    0    0  0.40266186366E+00  0.70686361260E+00 -0.85510302740E+00  0.90007748361E+02  0.90000009840E+02 0.  0.
         12    1    1    2    0    0 -0.40266186366E+00 -0.70686361260E+00  0.85510302740E+00  0.11802516387E+01  0.00000000000E+00 0. -1.
         11    1    3    3    0    0  0.26632413917E+01  0.10830178519E+02 -0.32028871104E+01  0.11603624760E+02  0.51100000000E-03 0. -1.
        -11    1    3    3    0    0 -0.28328139398E+01 -0.87044698059E+01 -0.37462404989E+02  0.38564548710E+02  0.51100000000E-03 0.  1.
         12    1    3    3    0    0  0.57223441171E+00 -0.14188451003E+01  0.39810189072E+02  0.39839574892E+02  0.00000000000E+00 0. -1.
</event>
<event>
 7    1  0.2284751E-015  0.9000786E+02  0.7816164E-02  0.1186339E+00
        -11   -1    0    0    0    0  0.00000000000E+00  0.00000000000E+00  0.45593999997E+02  0.45594000000E+02  0.51100000000E-03 0.  1.
         11   -1    0    0    0    0 -0.00000000000E+00 -0.00000000000E+00 -0.45593999997E+02  0.45594000000E+02  0.51100000000E-03 0. -1.
    9900012    2    1    2    0    0  0.50006584883E+00  0.76512491944E+00  0.74649403414E+00  0.90007857916E+02  0.90000120840E+02 0.  0.
         12    1    1    2    0    0 -0.50006584883E+00 -0.76512491944E+00 -0.74649403414E+00  0.11801420840E+01  0.00000000000E+00 0. -1.
         11    1    3    3    0    0 -0.94938963002E+01  0.21180073319E+01 -0.36375855071E+01  0.10385184187E+02  0.51100000000E-03 0. -1.
        -11    1    3    3    0    0  0.71944088912E+01 -0.11910468071E+02  0.40009697768E+02  0.42360296088E+02  0.51100000000E-03 0.  1.
         12    1    3    3    0    0  0.27995532579E+01  0.10557585658E+02 -0.35625618227E+02  0.37262377640E+02  0.00000000000E+00 0. -1.
</event>
<event>
 7    1  0.2284751E-015  0.9000770E+02  0.7816164E-02  0.1186339E+00
        -11   -1    0    0    0    0  0.00000000000E+00  0.00000000000E+00  0.45593999997E+02  0.45594000000E+02  0.51100000000E-03 0. -1.
         11   -1    0    0    0    0 -0.00000000000E+00 -0.00000000000E+00 -0.45593999997E+02  0.45594000000E+02  0.51100000000E-03 0.  1.
    9900012    2    1    2    0    0  0.66985574971E+00  0.96691862922E+00 -0.97349448830E-01  0.90007696956E+02  0.89999957756E+02 0.  0.
         12    1    1    2    0    0 -0.66985574971E+00 -0.96691862922E+00  0.97349448830E-01  0.11803030442E+01  0.00000000000E+00 0. -1.
         11    1    3    3    0    0  0.17089572318E+01 -0.95836352928E+01 -0.31425533608E+01  0.10229479074E+02  0.51100000000E-03 0. -1.
        -11    1    3    3    0    0  0.34822917438E+02 -0.10067125550E+02  0.10514302463E+02  0.37742988121E+02  0.51100000000E-03 0.  1.
         12    1    3    3    0    0 -0.35862018920E+02  0.20617679472E+02 -0.74690985511E+01  0.42035229761E+02  0.00000000000E+00 0. -1.
</event>
<event>
 7    1  0.2284751E-015  0.9000776E+02  0.7816164E-02  0.1186339E+00
        -11   -1    0    0    0    0  0.00000000000E+00  0.00000000000E+00  0.45593999997E+02  0.45594000000E+02  0.51100000000E-03 0.  1.
         11   -1    0    0    0    0 -0.00000000000E+00 -0.00000000000E+00 -0.45593999997E+02  0.45594000000E+02  0.51100000000E-03 0. -1.
    9900012    2    1    2    0    0  0.17411999035E+00 -0.35942718612E+00  0.11106108929E+01  0.90007761792E+02  0.90000023447E+02 0.  0.
         12    1    1    2    0    0 -0.17411999035E+00  0.35942718612E+00 -0.11106108929E+01  0.11802382084E+01  0.00000000000E+00 0. -1.
         11    1    3    3    0    0 -0.24818449935E+02  0.28319919636E+02 -0.79639243464E+00  0.37664406892E+02  0.51100000000E-03 0. -1.
        -11    1    3    3    0    0  0.51082960247E+01  0.85725451394E+01  0.16583754731E+01  0.10115998612E+02  0.51100000000E-03 0.  1.
        -12    1    3    3    0    0  0.19884273901E+02 -0.37251891961E+02  0.24862785445E+00  0.42227356288E+02  0.00000000000E+00 0.  1.
</event>
<event>
 7    1  0.2284751E-015  0.9000777E+02  0.7816164E-02  0.1186339E+00
        -11   -1    0    0    0    0  0.00000000000E+00  0.00000000000E+00  0.45593999997E+02  0.45594000000E+02  0.51100000000E-03 0. -1.
         11   -1    0    0    0    0 -0.00000000000E+00 -0.00000000000E+00 -0.45593999997E+02  0.45594000000E+02  0.51100000000E-03 0.  1.
    9900012    2    1    2    0    0  0.35355293757E+00 -0.81687477281E+00 -0.77502196764E+00  0.90007769885E+02  0.90000031647E+02 0.  0.
         12    1    1    2    0    0 -0.35355293757E+00  0.81687477281E+00  0.77502196764E+00  0.11802301150E+01  0.00000000000E+00 0. -1.
         11    1    3    3    0    0  0.85266988824E+01  0.36829694478E+01 -0.27068813600E+01  0.96745059172E+01  0.51100000000E-03 0. -1.
        -11    1    3    3    0    0  0.23658675975E+02  0.26266074500E+02  0.60813349883E+01  0.35869517059E+02  0.51100000000E-03 0.  1.
         12    1    3    3    0    0 -0.31831821920E+02 -0.30765918720E+02 -0.41494755959E+01  0.44463746909E+02  0.00000000000E+00 0. -1.
</event>
<event>
 7    1  0.2284751E-015  0.9000774E+02  0.7816164E-02  0.1186339E+00
        -11   -1    0    0    0    0  0.00000000000E+00  0.00000000000E+00  0.45593999997E+02  0.45594000000E+02  0.51100000000E-03 0.  1.
         11   -1    0    0    0    0 -0.00000000000E+00 -0.00000000000E+00 -0.45593999997E+02  0.45594000000E+02  0.51100000000E-03 0. -1.
    9900012    2    1    2    0    0 -0.67063155920E+00 -0.80897758271E+00  0.53741215562E+00  0.90007744416E+02  0.90000005843E+02 0.  0.
         12    1    1    2    0    0  0.67063155920E+00  0.80897758271E+00 -0.53741215562E+00  0.11802555836E+01  0.00000000000E+00 0. -1.
         11    1    3    3    0    0 -0.17443982180E+01 -0.11919303203E+02  0.31976031996E+01  0.12463441759E+02  0.51100000000E-03 0. -1.
        -11    1    3    3    0    0  0.36333437156E+02  0.39377869384E+01  0.12322563606E+02  0.38567737756E+02  0.51100000000E-03 0.  1.
         12    1    3    3    0    0 -0.35259670497E+02  0.71725386818E+01 -0.14982754650E+02  0.38976564902E+02  0.00000000000E+00 0. -1.
</event>
<event>
 7    1  0.2284751E-015  0.9000770E+02  0.7816164E-02  0.1186339E+00
        -11   -1    0    0    0    0  0.00000000000E+00  0.00000000000E+00  0.45593999997E+02  0.45594000000E+02  0.51100000000E-03 0.  1.
         11   -1    0    0    0    0 -0.00000000000E+00 -0.00000000000E+00 -0.45593999997E+02  0.45594000000E+02  0.51100000000E-03 0. -1.
    9900012    2    1    2    0    0 -0.10226579800E+00 -0.11016860248E+01  0.41101054762E+00  0.90007703401E+02  0.89999964286E+02 0.  0.
         12    1    1    2    0    0  0.10226579800E+00  0.11016860248E+01 -0.41101054762E+00  0.11802965987E+01  0.00000000000E+00 0. -1.
         11    1    3    3    0    0  0.17312046618E+02  0.15728643421E+00  0.90892404208E+01  0.19553669446E+02  0.51100000000E-03 0. -1.
        -11    1    3    3    0    0 -0.32734160272E+02  0.22639095688E+02  0.26544884841E+01  0.39888597514E+02  0.51100000000E-03 0.  1.
         12    1    3    3    0    0  0.15319847856E+02 -0.23898068147E+02 -0.11332718357E+02  0.30565436441E+02  0.00000000000E+00 0. -1.
</event>
<event>
 7    1  0.2284751E-015  0.9000778E+02  0.7816164E-02  0.1186339E+00
        -11   -1    0    0    0    0  0.00000000000E+00  0.00000000000E+00  0.45593999997E+02  0.45594000000E+02  0.51100000000E-03 0. -1.
         11   -1    0    0    0    0 -0.00000000000E+00 -0.00000000000E+00 -0.45593999997E+02  0.45594000000E+02  0.51100000000E-03 0.  1.
    9900012    2    1    2    0    0 -0.77993488994E+00  0.87630689399E+00  0.12929922227E+00  0.90007775236E+02  0.90000037069E+02 0.  0.
         12    1    1    2    0    0  0.77993488994E+00 -0.87630689399E+00 -0.12929922227E+00  0.11802247641E+01  0.00000000000E+00 0. -1.
         11    1    3    3    0    0 -0.25783924171E+02  0.12312725954E+02  0.24316689591E+02  0.37519533033E+02  0.51100000000E-03 0. -1.
        -11    1    3    3    0    0 -0.38316272505E+01  0.50596334591E+01  0.51457563034E+01  0.81706833448E+01  0.51100000000E-03 0.  1.
        -12    1    3    3    0    0  0.28835616532E+02 -0.16496052519E+02 -0.29333146672E+02  0.44317558858E+02  0.00000000000E+00 0.  1.
</event>
<event>
 7    1  0.2284751E-015  0.9000775E+02  0.7816164E-02  0.1186339E+00
        -11   -1    0    0    0    0  0.00000000000E+00  0.00000000000E+00  0.45593999997E+02  0.45594000000E+02  0.51100000000E-03 0.  1.
         11   -1    0    0    0    0 -0.00000000000E+00 -0.00000000000E+00 -0.45593999997E+02  0.45594000000E+02  0.51100000000E-03 0. -1.
    9900012    2    1    2    0    0 -0.76055213765E+00 -0.10563167085E+00  0.89631543978E+00  0.90007754699E+02  0.90000016261E+02 0.  0.
         12    1    1    2    0    0  0.76055213765E+00  0.10563167085E+00 -0.89631543978E+00  0.11802453014E+01  0.00000000000E+00 0. -1.
         11    1    3    3    0    0  0.26882467180E+01 -0.10827425148E+01  0.90301747349E+01  0.94838313868E+01  0.51100000000E-03 0. -1.
        -11    1    3    3    0    0  0.29420253258E+02  0.24699200240E+02  0.28728253680E+01  0.38520837479E+02  0.51100000000E-03 0.  1.
         12    1    3    3    0    0 -0.32869052114E+02 -0.23722089396E+02 -0.11006684663E+02  0.42003085832E+02  0.00000000000E+00 0. -1.
</event>
<event>
 7    1  0.2284751E-015  0.9000772E+02  0.7816164E-02  0.1186339E+00
        -11   -1    0    0    0    0  0.00000000000E+00  0.00000000000E+00  0.45593999997E+02  0.45594000000E+02  0.51100000000E-03 0.  1.
         11   -1    0    0    0    0 -0.00000000000E+00 -0.00000000000E+00 -0.45593999997E+02  0.45594000000E+02  0.51100000000E-03 0. -1.
    9900012    2    1    2    0    0  0.46572847798E+00  0.84519545028E+00  0.67956735925E+00  0.90007716068E+02  0.89999977120E+02 0.  0.
         12    1    1    2    0    0 -0.46572847798E+00 -0.84519545028E+00 -0.67956735925E+00  0.11802839320E+01  0.00000000000E+00 0. -1.
         11    1    3    3    0    0  0.52479685790E+01  0.44017796693E+01  0.18423567386E+01  0.70930329956E+01  0.51100000000E-03 0. -1.
        -11    1    3    3    0    0  0.14918511169E+02 -0.46821362569E+01  0.36880524506E+02  0.40058175989E+02  0.51100000000E-03 0.  1.
         12    1    3    3    0    0 -0.19700751270E+02  0.11255520378E+01 -0.38043313886E+02  0.42856507084E+02  0.00000000000E+00 0. -1.
</event>
<event>
 7    1  0.2985068E-015  0.9000781E+02  0.7816164E-02  0.1186339E+00
        -11   -1    0    0    0    0  0.00000000000E+00  0.00000000000E+00  0.45593999997E+02  0.45594000000E+02  0.51100000000E-03 0.  1.
         11   -1    0    0    0    0 -0.00000000000E+00 -0.00000000000E+00 -0.45593999997E+02  0.45594000000E+02  0.51100000000E-03 0. -1.
    9900012    2    1    2    0    0  0.89359123889E+00  0.59449904609E+00 -0.49082834492E+00  0.90007810658E+02  0.90000072959E+02 0.  0.
         12    1    1    2    0    0 -0.89359123889E+00 -0.59449904609E+00  0.49082834492E+00  0.11801893417E+01  0.00000000000E+00 0. -1.
         11    1    3    3    0    0  0.17154922182E+02 -0.13769978902E+02  0.29016997493E+02  0.36412769983E+02  0.51100000000E-03 0. -1.
        -11    1    3    3    0    0  0.43116269641E+01 -0.88958471480E+01  0.11569324216E+01  0.99531259636E+01  0.51100000000E-03 0.  1.
        -12    1    3    3    0    0 -0.20572957908E+02  0.23260325096E+02 -0.30664758259E+02  0.43641914712E+02  0.00000000000E+00 0.  1.
</event>
<event>
 7    1  0.2284751E-015  0.9000774E+02  0.7816164E-02  0.1186339E+00
        -11   -1    0    0    0    0  0.00000000000E+00  0.00000000000E+00  0.45593999997E+02  0.45594000000E+02  0.51100000000E-03 0. -1.
         11   -1    0    0    0    0 -0.00000000000E+00 -0.00000000000E+00 -0.45593999997E+02  0.45594000000E+02  0.51100000000E-03 0.  1.
    9900012    2    1    2    0    0  0.67342055537E+00 -0.91538737966E+00 -0.31874106363E+00  0.90007735129E+02  0.89999996433E+02 0.  0.
         12    1    1    2    0    0 -0.67342055537E+00  0.91538737966E+00  0.31874106363E+00  0.11802648706E+01  0.00000000000E+00 0. -1.
         11    1    3    3    0    0 -0.16171156436E+02  0.19641255436E+02  0.33886095854E+02  0.42373962619E+02  0.51100000000E-03 0. -1.
        -11    1    3    3    0    0  0.85045933628E+01  0.19116992347E+01 -0.58049227520E+01  0.10472813884E+02  0.51100000000E-03 0.  1.
        -12    1    3    3    0    0  0.83399836286E+01 -0.22468342050E+02 -0.28399914166E+02  0.37160958626E+02  0.00000000000E+00 0.  1.
</event>
<event>
 7    1  0.2284751E-015  0.9000772E+02  0.7816164E-02  0.1186339E+00
        -11   -1    0    0    0    0  0.00000000000E+00  0.00000000000E+00  0.45593999997E+02  0.45594000000E+02  0.51100000000E-03 0.  1.
         11   -1    0    0    0    0 -0.00000000000E+00 -0.00000000000E+00 -0.45593999997E+02  0.45594000000E+02  0.51100000000E-03 0. -1.
    9900012    2    1    2    0    0 -0.20566928709E+00 -0.10663204266E+01  0.46229010823E+00  0.90007724078E+02  0.89999985236E+02 0.  0.
         12    1    1    2    0    0  0.20566928709E+00  0.10663204266E+01 -0.46229010823E+00  0.11802759220E+01  0.00000000000E+00 0. -1.
         11    1    3    3    0    0 -0.10781081564E+02  0.10438674314E+01  0.10518023361E+01  0.10882447671E+02  0.51100000000E-03 0. -1.
        -11    1    3    3    0    0  0.13352477568E+02  0.37041834355E+02 -0.47258873019E+01  0.39657535988E+02  0.51100000000E-03 0.  1.
         12    1    3    3    0    0 -0.27770652917E+01 -0.39152022213E+02  0.41363750740E+01  0.39467740419E+02  0.00000000000E+00 0. -1.
</event>
<event>
 7    1  0.2284751E-015  0.9000772E+02  0.7816164E-02  0.1186339E+00
        -11   -1    0    0    0    0  0.00000000000E+00  0.00000000000E+00  0.45593999997E+02  0.45594000000E+02  0.51100000000E-03 0. -1.
         11   -1    0    0    0    0 -0.00000000000E+00 -0.00000000000E+00 -0.45593999997E+02  0.45594000000E+02  0.51100000000E-03 0.  1.
    9900012    2    1    2    0    0  0.84649627154E+00 -0.44571551608E+00 -0.69125403674E+00  0.90007724438E+02  0.89999985601E+02 0.  0.
         12    1    1    2    0    0 -0.84649627154E+00  0.44571551608E+00  0.69125403674E+00  0.11802755620E+01  0.00000000000E+00 0. -1.
         11    1    3    3    0    0  0.88740207889E+01 -0.39965716225E+01 -0.53414737474E+01  0.11101899466E+02  0.51100000000E-03 0. -1.
        -11    1    3    3    0    0  0.32577094227E+02  0.78959705880E+01 -0.10840997221E+02  0.35229826011E+02  0.51100000000E-03 0.  1.
         12    1    3    3    0    0 -0.40604618744E+02 -0.43451144815E+01  0.15491216932E+02  0.43675998961E+02  0.00000000000E+00 0. -1.
</event>
<event>
 7    1  0.2284751E-015  0.9000764E+02  0.7816164E-02  0.1186339E+00
        -11   -1    0    0    0    0  0.00000000000E+00  0.00000000000E+00  0.45593999997E+02  0.45594000000E+02  0.51100000000E-03 0.  1.
         11   -1    0    0    0    0 -0.00000000000E+00 -0.00000000000E+00 -0.45593999997E+02  0.45594000000E+02  0.51100000000E-03 0. -1.
    9900012    2    1    2    0    0 -0.78274835277E+00 -0.87804286962E+00 -0.97983737347E-01  0.90007637735E+02  0.89999897753E+02 0.  0.
         12    1    1    2    0    0  0.78274835277E+00  0.87804286962E+00  0.97983737347E-01  0.11803622653E+01  0.00000000000E+00 0. -1.
         11    1    3    3    0    0 -0.91961694715E+01  0.12859413881E+02  0.42513438443E+00  0.15815018110E+02  0.51100000000E-03 0. -1.
        -11    1    3    3    0    0  0.16657232703E+02  0.17502344922E+02 -0.24153502499E+02  0.34164120980E+02  0.51100000000E-03 0.  1.
         12    1    3    3    0    0 -0.82438115841E+01 -0.31239801673E+02  0.23630384377E+02  0.40028498645E+02  0.00000000000E+00 0. -1.
</event>
<event>
 7    1  0.2284751E-015  0.9000769E+02  0.7816164E-02  0.1186339E+00
        -11   -1    0    0    0    0  0.00000000000E+00  0.00000000000E+00  0.45593999997E+02  0.45594000000E+02  0.51100000000E-03 0.  1.
         11   -1    0    0    0    0 -0.00000000000E+00 -0.00000000000E+00 -0.45593999997E+02  0.45594000000E+02  0.51100000000E-03 0. -1.
    9900012    2    1    2    0    0 -0.86929810064E+00  0.30695453857E+00  0.73703989733E+00  0.90007691529E+02  0.89999952257E+02 0.  0.
         12    1    1    2    0    0  0.86929810064E+00 -0.30695453857E+00 -0.73703989733E+00  0.11803084710E+01  0.00000000000E+00 0. -1.
         11    1    3    3    0    0 -0.28931832782E+01  0.89840039374E+01 -0.10544620524E+01  0.94970904339E+01  0.51100000000E-03 0. -1.
        -11    1    3    3    0    0  0.14208047499E+02  0.12967814504E+02  0.34463772718E+02  0.39468778255E+02  0.51100000000E-03 0.  1.
         12    1    3    3    0    0 -0.12184162321E+02 -0.21644863903E+02 -0.32672270768E+02  0.41041822840E+02  0.00000000000E+00 0. -1.
</event>
<event>
 7    1  0.2284751E-015  0.9000756E+02  0.7816164E-02  0.1186339E+00
        -11   -1    0    0    0    0  0.00000000000E+00  0.00000000000E+00  0.45593999997E+02  0.45594000000E+02  0.51100000000E-03 0. -1.
         11   -1    0    0    0    0 -0.00000000000E+00 -0.00000000000E+00 -0.45593999997E+02  0.45594000000E+02  0.51100000000E-03 0.  1.
    9900012    2    1    2    0    0 -0.62184762778E+00  0.22218173712E+00 -0.97845271443E+00  0.90007564101E+02  0.89999823147E+02 0.  0.
         12    1    1    2    0    0  0.62184762778E+00 -0.22218173712E+00  0.97845271443E+00  0.11804358987E+01  0.00000000000E+00 0. -1.
         11    1    3    3    0    0  0.15506931716E+01  0.18828502007E+02 -0.11193791348E+02  0.21959464979E+02  0.51100000000E-03 0. -1.
        -11    1    3    3    0    0 -0.13434755992E+02  0.18448866433E+02 -0.93433121489E+01  0.24660714170E+02  0.51100000000E-03 0.  1.
         12    1    3    3    0    0  0.11262215192E+02 -0.37055186703E+02  0.19558650782E+02  0.43387384953E+02  0.00000000000E+00 0. -1.
</event>
<event>
 7    1  0.2284751E-015  0.9000773E+02  0.7816164E-02  0.1186339E+00
        -11   -1    0    0    0    0  0.00000000000E+00  0.00000000000E+00  0.45593999997E+02  0.45594000000E+02  0.51100000000E-03 0.  1.
         11   -1    0    0    0    0 -0.00000000000E+00 -0.00000000000E+00 -0.45593999997E+02  0.45594000000E+02  0.51100000000E-03 0. -1.
    9900012    2    1    2    0    0  0.25617112938E+00 -0.10895359402E+01  0.37458925567E+00  0.90007733368E+02  0.89999994648E+02 0.  0.
         12    1    1    2    0    0 -0.25617112938E+00  0.10895359402E+01 -0.37458925567E+00  0.11802666321E+01  0.00000000000E+00 0. -1.
         11    1    3    3    0    0  0.29316898558E+02 -0.27067214610E+01 -0.13751192341E+02  0.32494648378E+02  0.51100000000E-03 0. -1.
        -11    1    3    3    0    0  0.52328535136E+01  0.51173810330E+01 -0.12139512457E+02  0.14175263930E+02  0.51100000000E-03 0.  1.
        -12    1    3    3    0    0 -0.34293580943E+02 -0.35001955122E+01  0.26265294054E+02  0.43337821060E+02  0.00000000000E+00 0.  1.
</event>
<event>
 7    1  0.2284751E-015  0.9000770E+02  0.7816164E-02  0.1186339E+00
        -11   -1    0    0    0    0  0.00000000000E+00  0.00000000000E+00  0.45593999997E+02  0.45594000000E+02  0.51100000000E-03 0. -1.
         11   -1    0    0    0    0 -0.00000000000E+00 -0.00000000000E+00 -0.45593999997E+02  0.45594000000E+02  0.51100000000E-03 0.  1.
    9900012    2    1    2    0    0 -0.64240383720E+00  0.94925553132E+00 -0.28168668527E+00  0.90007696589E+02  0.89999957384E+02 0.  0.
         12    1    1    2    0    0  0.64240383720E+00 -0.94925553132E+00  0.28168668527E+00  0.11803034112E+01  0.00000000000E+00 0. -1.
         11    1    3    3    0    0  0.36254982157E+02 -0.14381152116E+02  0.28904496678E+01  0.39110049436E+02  0.51100000000E-03 0. -1.
        -11    1    3    3    0    0  0.82754991431E+00  0.35803053005E+01 -0.10131185231E+02  0.10777028318E+02  0.51100000000E-03 0.  1.
        -12    1    3    3    0    0 -0.37724935908E+02  0.11750102347E+02  0.69590488782E+01  0.40120618835E+02  0.00000000000E+00 0.  1.
</event>
<event>
 7    1  0.2284751E-015  0.9000780E+02  0.7816164E-02  0.1186339E+00
        -11   -1    0    0    0    0  0.00000000000E+00  0.00000000000E+00  0.45593999997E+02  0.45594000000E+02  0.51100000000E-03 0.  1.
         11   -1    0    0    0    0 -0.00000000000E+00 -0.00000000000E+00 -0.45593999997E+02  0.45594000000E+02  0.51100000000E-03 0. -1.
    9900012    2    1    2    0    0 -0.47342042367E+00  0.10512322470E+01 -0.25232207584E+00  0.90007795541E+02  0.90000057642E+02 0.  0.
         12    1    1    2    0    0  0.47342042367E+00 -0.10512322470E+01  0.25232207584E+00  0.11802044588E+01  0.00000000000E+00 0. -1.
         11    1    3    3    0    0  0.12526643035E+02  0.37979348529E+02 -0.45802904287E+01  0.40253282612E+02  0.51100000000E-03 0. -1.
        -11    1    3    3    0    0 -0.94052493950E+01  0.11222110107E+01 -0.45637266505E+01  0.10514070331E+02  0.51100000000E-03 0.  1.
        -12    1    3    3    0    0 -0.35948140634E+01 -0.38050327293E+02  0.88916950033E+01  0.39240442598E+02  0.00000000000E+00 0.  1.
</event>
<event>
 7    1  0.2284751E-015  0.9000773E+02  0.7816164E-02  0.1186339E+00
        -11   -1    0    0    0    0  0.00000000000E+00  0.00000000000E+00  0.45593999997E+02  0.45594000000E+02  0.51100000000E-03 0. -1.
         11   -1    0    0    0    0 -0.00000000000E+00 -0.00000000000E+00 -0.45593999997E+02  0.45594000000E+02  0.51100000000E-03 0.  1.
    9900012    2    1    2    0    0  0.40827405244E+00 -0.53278813428E-01 -0.11061215864E+01  0.90007732531E+02  0.89999993801E+02 0.  0.
         12    1    1    2    0    0 -0.40827405244E+00  0.53278813428E-01  0.11061215864E+01  0.11802674687E+01  0.00000000000E+00 0. -1.
         11    1    3    3    0    0 -0.17028407026E+01  0.69981626671E+01  0.64115441658E+01  0.96427094753E+01  0.51100000000E-03 0. -1.
        -11    1    3    3    0    0 -0.15333487691E+02  0.32862095393E+02 -0.66061408600E+00  0.36269402664E+02  0.51100000000E-03 0.  1.
         12    1    3    3    0    0  0.17444602446E+02 -0.39913536873E+02 -0.68570516662E+01  0.44095620392E+02  0.00000000000E+00 0. -1.
</event>
<event>
 7    1  0.2284751E-015  0.9000766E+02  0.7816164E-02  0.1186339E+00
        -11   -1    0    0    0    0  0.00000000000E+00  0.00000000000E+00  0.45593999997E+02  0.45594000000E+02  0.51100000000E-03 0. -1.
         11   -1    0    0    0    0 -0.00000000000E+00 -0.00000000000E+00 -0.45593999997E+02  0.45594000000E+02  0.51100000000E-03 0.  1.
    9900012    2    1    2    0    0 -0.91168225358E+00 -0.42003185156E+00 -0.62097412876E+00  0.90007660999E+02  0.89999921325E+02 0.  0.
         12    1    1    2    0    0  0.91168225358E+00  0.42003185156E+00  0.62097412876E+00  0.11803390006E+01  0.00000000000E+00 0. -1.
         11    1    3    3    0    0 -0.10435936687E+02  0.46699698007E+01  0.40754050588E+01  0.12137805367E+02  0.51100000000E-03 0. -1.
        -11    1    3    3    0    0 -0.26452790701E+02  0.19474771488E+02 -0.90967350082E+01  0.34084709893E+02  0.51100000000E-03 0.  1.
         12    1    3    3    0    0  0.35977045135E+02 -0.24564773140E+02  0.44003558207E+01  0.43785145739E+02  0.00000000000E+00 0. -1.
</event>
<event>
 7    1  0.2284751E-015  0.9000775E+02  0.7816164E-02  0.1186339E+00
        -11   -1    0    0    0    0  0.00000000000E+00  0.00000000000E+00  0.45593999997E+02  0.45594000000E+02  0.51100000000E-03 0.  1.
         11   -1    0    0    0    0 -0.00000000000E+00 -0.00000000000E+00 -0.45593999997E+02  0.45594000000E+02  0.51100000000E-03 0. -1.
    9900012    2    1    2    0    0  0.38890482853E+00 -0.84655984230E+00  0.72462394555E+00  0.90007749859E+02  0.90000011357E+02 0.  0.
         12    1    1    2    0    0 -0.38890482853E+00  0.84655984230E+00 -0.72462394555E+00  0.11802501407E+01  0.00000000000E+00 0. -1.
         11    1    3    3    0    0  0.92244573824E+01 -0.27883646576E+02  0.10034668810E+02  0.31036799750E+02  0.51100000000E-03 0. -1.
        -11    1    3    3    0    0 -0.26548161536E+02  0.78146978711E+00 -0.41971765176E+01  0.26889251885E+02  0.51100000000E-03 0.  1.
        -12    1    3    3    0    0  0.17712608982E+02  0.26255616946E+02 -0.51128683467E+01  0.32081698224E+02  0.00000000000E+00 0.  1.
</event>
<event>
 7    1  0.2284751E-015  0.9000779E+02  0.7816164E-02  0.1186339E+00
        -11   -1    0    0    0    0  0.00000000000E+00  0.00000000000E+00  0.45593999997E+02  0.45594000000E+02  0.51100000000E-03 0. -1.
         11   -1    0    0    0    0 -0.00000000000E+00 -0.00000000000E+00 -0.45593999997E+02  0.45594000000E+02  0.51100000000E-03 0.  1.
    9900012    2    1    2    0    0  0.64032626978E+00 -0.94616158978E+00 -0.29608685911E+00  0.90007785226E+02  0.90000047190E+02 0.  0.
         12    1    1    2    0    0 -0.64032626978E+00  0.94616158978E+00  0.29608685911E+00  0.11802147745E+01  0.00000000000E+00 0. -1.
         11    1    3    3    0    0 -0.37050929633E+02  0.14088172907E+02  0.13581023882E+02  0.41900981044E+02  0.51100000000E-03 0. -1.
        -11    1    3    3    0    0  0.60585099297E+01 -0.34230240463E+01  0.58234983095E+01  0.90739059402E+01  0.51100000000E-03 0.  1.
        -12    1    3    3    0    0  0.31632745973E+02 -0.11611310450E+02 -0.19700609051E+02  0.39032898241E+02  0.00000000000E+00 0.  1.
</event>
<event>
 7    1  0.2284751E-015  0.9000780E+02  0.7816164E-02  0.1186339E+00
        -11   -1    0    0    0    0  0.00000000000E+00  0.00000000000E+00  0.45593999997E+02  0.45594000000E+02  0.51100000000E-03 0.  1.
         11   -1    0    0    0    0 -0.00000000000E+00 -0.00000000000E+00 -0.45593999997E+02  0.45594000000E+02  0.51100000000E-03 0. -1.
    9900012    2    1    2    0    0  0.79828019349E+00  0.48951770122E+00  0.71833141939E+00  0.90007797104E+02  0.90000059226E+02 0.  0.
         12    1    1    2    0    0 -0.79828019349E+00 -0.48951770122E+00 -0.71833141939E+00  0.11802028958E+01  0.00000000000E+00 0. -1.
         11    1    3    3    0    0 -0.31035147667E+01 -0.28229299846E+02 -0.24610166239E+02  0.37579056086E+02  0.51100000000E-03 0. -1.
        -11    1    3    3    0    0 -0.13896551094E+02  0.67667680399E+01  0.16978363583E+02  0.22960141817E+02  0.51100000000E-03 0.  1.
        -12    1    3    3    0    0  0.17798346054E+02  0.21952049508E+02  0.83501340752E+01  0.29468599202E+02  0.00000000000E+00 0.  1.
</event>
<event>
 7    1  0.2284751E-015  0.9000772E+02  0.7816164E-02  0.1186339E+00
        -11   -1    0    0    0    0  0.00000000000E+00  0.00000000000E+00  0.45593999997E+02  0.45594000000E+02  0.51100000000E-03 0. -1.
         11   -1    0    0    0    0 -0.00000000000E+00 -0.00000000000E+00 -0.45593999997E+02  0.45594000000E+02  0.51100000000E-03 0.  1.
    9900012    2    1    2    0    0 -0.10295212402E+01 -0.54156410324E+00 -0.19964754701E+00  0.90007718337E+02  0.89999979419E+02 0.  0.
         12    1    1    2    0    0  0.10295212402E+01  0.54156410324E+00  0.19964754701E+00  0.11802816634E+01  0.00000000000E+00 0. -1.
         11    1    3    3    0    0  0.63545552570E+01  0.19846249035E+02  0.29404962559E+02  0.36040335690E+02  0.51100000000E-03 0. -1.
        -11    1    3    3    0    0  0.73748100930E+00  0.10787708733E+02 -0.95487222701E+00  0.10854967489E+02  0.51100000000E-03 0.  1.
        -12    1    3    3    0    0 -0.81215575065E+01 -0.31175521871E+02 -0.28649737879E+02  0.43112415159E+02  0.00000000000E+00 0.  1.
</event>
<event>
 7    1  0.2284751E-015  0.9000776E+02  0.7816164E-02  0.1186339E+00
        -11   -1    0    0    0    0  0.00000000000E+00  0.00000000000E+00  0.45593999997E+02  0.45594000000E+02  0.51100000000E-03 0.  1.
         11   -1    0    0    0    0 -0.00000000000E+00 -0.00000000000E+00 -0.45593999997E+02  0.45594000000E+02  0.51100000000E-03 0. -1.
    9900012    2    1    2    0    0 -0.38910002675E+00  0.11141290207E+01 -0.16778276323E-01  0.90007761119E+02  0.90000022766E+02 0.  0.
         12    1    1    2    0    0  0.38910002675E+00 -0.11141290207E+01  0.16778276323E-01  0.11802388810E+01  0.00000000000E+00 0. -1.
         11    1    3    3    0    0 -0.87581817468E+00 -0.85787267061E+01 -0.60525076723E+01  0.10535390774E+02  0.51100000000E-03 0. -1.
        -11    1    3    3    0    0  0.33685369518E+02  0.20398286139E+02 -0.10664614923E+02  0.40798629985E+02  0.51100000000E-03 0.  1.
         12    1    3    3    0    0 -0.33198651370E+02 -0.10705430412E+02  0.16700344319E+02  0.38673740360E+02  0.00000000000E+00 0. -1.
</event>
<event>
 7    1  0.2284751E-015  0.9000770E+02  0.7816164E-02  0.1186339E+00
        -11   -1    0    0    0    0  0.00000000000E+00  0.00000000000E+00  0.45593999997E+02  0.45594000000E+02  0.51100000000E-03 0.  1.
         11   -1    0    0    0    0 -0.00000000000E+00 -0.00000000000E+00 -0.45593999997E+02  0.45594000000E+02  0.51100000000E-03 0. -1.
    9900012    2    1    2    0    0  0.72799676686E+00 -0.87703614355E+00  0.30650742175E+00  0.90007695595E+02  0.89999956377E+02 0.  0.
         12    1    1    2    0    0 -0.72799676686E+00  0.87703614355E+00 -0.30650742175E+00  0.11803044053E+01  0.00000000000E+00 0. -1.
         11    1    3    3    0    0 -0.22218256103E+02 -0.25937851395E+02 -0.10527784436E+02  0.35738736472E+02  0.51100000000E-03 0. -1.
        -11    1    3    3    0    0 -0.97117237485E+01  0.14734165813E+00 -0.41269531122E+01  0.10553247367E+02  0.51100000000E-03 0.  1.
        -12    1    3    3    0    0  0.32657976618E+02  0.24913473593E+02  0.14961244970E+02  0.43715711756E+02  0.00000000000E+00 0.  1.
</event>
<event>
 7    1  0.2284751E-015  0.9000778E+02  0.7816164E-02  0.1186339E+00
        -11   -1    0    0    0    0  0.00000000000E+00  0.00000000000E+00  0.45593999997E+02  0.45594000000E+02  0.51100000000E-03 0.  1.
         11   -1    0    0    0    0 -0.00000000000E+00 -0.00000000000E+00 -0.45593999997E+02  0.45594000000E+02  0.51100000000E-03 0. -1.
    9900012    2    1    2    0    0  0.80721464409E+00 -0.31940418306E+00  0.79956009156E+00  0.90007783556E+02  0.90000045499E+02 0.  0.
         12    1    1    2    0    0 -0.80721464409E+00  0.31940418306E+00 -0.79956009156E+00  0.11802164436E+01  0.00000000000E+00 0. -1.
         11    1    3    3    0    0  0.83017102512E+01 -0.18727191161E+01  0.59927286297E+01  0.10408566985E+02  0.51100000000E-03 0. -1.
        -11    1    3    3    0    0 -0.15363358170E+02 -0.76298731200E+01  0.34270680550E+02  0.38323977921E+02  0.51100000000E-03 0.  1.
         12    1    3    3    0    0  0.78688625629E+01  0.91831880530E+01 -0.39463849088E+02  0.41275238651E+02  0.00000000000E+00 0. -1.
</event>
<event>
 7    1  0.2284751E-015  0.9000771E+02  0.7816164E-02  0.1186339E+00
        -11   -1    0    0    0    0  0.00000000000E+00  0.00000000000E+00  0.45593999997E+02  0.45594000000E+02  0.51100000000E-03 0. -1.
         11   -1    0    0    0    0 -0.00000000000E+00 -0.00000000000E+00 -0.45593999997E+02  0.45594000000E+02  0.51100000000E-03 0.  1.
    9900012    2    1    2    0    0 -0.23141535312E+00 -0.67260767563E+00 -0.94187281548E+00  0.90007712513E+02  0.89999973518E+02 0.  0.
         12    1    1    2    0    0  0.23141535312E+00  0.67260767563E+00  0.94187281548E+00  0.11802874868E+01  0.00000000000E+00 0. -1.
         11    1    3    3    0    0 -0.26790291742E+02 -0.19667069118E+02  0.17900150834E+02  0.37748228296E+02  0.51100000000E-03 0. -1.
        -11    1    3    3    0    0 -0.86286039656E+01  0.77512470389E+01 -0.65917703607E+01  0.13341142148E+02  0.51100000000E-03 0.  1.
        -12    1    3    3    0    0  0.35187480355E+02  0.11243214404E+02 -0.12250253288E+02  0.38918342070E+02  0.00000000000E+00 0.  1.
</event>
<event>
 7    1  0.2284751E-015  0.9000692E+02  0.7816164E-02  0.1186341E+00
        -11   -1    0    0    0    0  0.00000000000E+00  0.00000000000E+00  0.45593999997E+02  0.45594000000E+02  0.51100000000E-03 0. -1.
         11   -1    0    0    0    0 -0.00000000000E+00 -0.00000000000E+00 -0.45593999997E+02  0.45594000000E+02  0.51100000000E-03 0.  1.
    9900012    2    1    2    0    0  0.11635122067E+01 -0.15413399516E+00  0.13199897820E+00  0.90006923511E+02  0.89999174097E+02 0.  0.
         12    1    1    2    0    0 -0.11635122067E+01  0.15413399516E+00 -0.13199897820E+00  0.11810764894E+01  0.00000000000E+00 0. -1.
         11    1    3    3    0    0 -0.29703727339E+02 -0.19416945942E+02  0.16540868310E+02  0.39152644001E+02  0.51100000000E-03 0. -1.
        -11    1    3    3    0    0 -0.52622219380E+01  0.11855330704E+01 -0.79039721618E+01  0.95691820226E+01  0.51100000000E-03 0.  1.
        -12    1    3    3    0    0  0.36129461483E+02  0.18077278877E+02 -0.85048971702E+01  0.41285097487E+02  0.00000000000E+00 0.  1.
</event>
<event>
 7    1  0.2284751E-015  0.9000775E+02  0.7816164E-02  0.1186339E+00
        -11   -1    0    0    0    0  0.00000000000E+00  0.00000000000E+00  0.45593999997E+02  0.45594000000E+02  0.51100000000E-03 0.  1.
         11   -1    0    0    0    0 -0.00000000000E+00 -0.00000000000E+00 -0.45593999997E+02  0.45594000000E+02  0.51100000000E-03 0. -1.
    9900012    2    1    2    0    0 -0.10243991691E+01  0.27361501299E+00  0.51838240467E+00  0.90007754623E+02  0.90000016184E+02 0.  0.
         12    1    1    2    0    0  0.10243991691E+01 -0.27361501299E+00 -0.51838240467E+00  0.11802453772E+01  0.00000000000E+00 0. -1.
         11    1    3    3    0    0  0.76335431786E+01  0.35881873031E+02  0.69217791908E+01  0.37332168717E+02  0.51100000000E-03 0. -1.
        -11    1    3    3    0    0  0.10233836834E+02  0.13044704017E+01 -0.42369481507E+01  0.11152792891E+02  0.51100000000E-03 0.  1.
        -12    1    3    3    0    0 -0.18891779182E+02 -0.36912728420E+02 -0.21664486355E+01  0.41522793015E+02  0.00000000000E+00 0.  1.
</event>
<event>
 7    1  0.2284751E-015  0.9000770E+02  0.7816164E-02  0.1186339E+00
        -11   -1    0    0    0    0  0.00000000000E+00  0.00000000000E+00  0.45593999997E+02  0.45594000000E+02  0.51100000000E-03 0. -1.
         11   -1    0    0    0    0 -0.00000000000E+00 -0.00000000000E+00 -0.45593999997E+02  0.45594000000E+02  0.51100000000E-03 0.  1.
    9900012    2    1    2    0    0 -0.73843639906E+00 -0.38594836522E-01 -0.91995602553E+00  0.90007704712E+02  0.89999965615E+02 0.  0.
         12    1    1    2    0    0  0.73843639906E+00  0.38594836522E-01  0.91995602553E+00  0.11802952875E+01  0.00000000000E+00 0. -1.
         11    1    3    3    0    0 -0.24817823422E+02 -0.18704423852E+02  0.59443958380E+00  0.31082683117E+02  0.51100000000E-03 0. -1.
        -11    1    3    3    0    0  0.15594688336E+02  0.90341096264E+01 -0.25790919444E+02  0.31463962991E+02  0.51100000000E-03 0.  1.
        -12    1    3    3    0    0  0.84846986869E+01  0.96317193892E+01  0.24276523835E+02  0.27461058605E+02  0.00000000000E+00 0.  1.
</event>
<event>
 7    1  0.2284751E-015  0.9000776E+02  0.7816164E-02  0.1186339E+00
        -11   -1    0    0    0    0  0.00000000000E+00  0.00000000000E+00  0.45593999997E+02  0.45594000000E+02  0.51100000000E-03 0.  1.
         11   -1    0    0    0    0 -0.00000000000E+00 -0.00000000000E+00 -0.45593999997E+02  0.45594000000E+02  0.51100000000E-03 0. -1.
    9900012    2    1    2    0    0  0.76796983678E+00 -0.57151965845E-01  0.89438407361E+00  0.90007759817E+02  0.90000021447E+02 0.  0.
         12    1    1    2    0    0 -0.76796983678E+00  0.57151965845E-01 -0.89438407361E+00  0.11802401826E+01  0.00000000000E+00 0. -1.
         11    1    3    3    0    0 -0.72928398796E+01 -0.49038306333E+01 -0.44244504919E+01  0.98391478699E+01  0.51100000000E-03 0. -1.
        -11    1    3    3    0    0  0.96385152915E+01 -0.36022306006E+02  0.10996162830E+02  0.38877025404E+02  0.51100000000E-03 0.  1.
         12    1    3    3    0    0 -0.15777055751E+01  0.40868984673E+02 -0.56773282647E+01  0.41291586544E+02  0.00000000000E+00 0. -1.
</event>
<event>
 7    1  0.2284751E-015  0.9000803E+02  0.7816164E-02  0.1186338E+00
        -11   -1    0    0    0    0  0.00000000000E+00  0.00000000000E+00  0.45593999997E+02  0.45594000000E+02  0.51100000000E-03 0. -1.
         11   -1    0    0    0    0 -0.00000000000E+00 -0.00000000000E+00 -0.45593999997E+02  0.45594000000E+02  0.51100000000E-03 0.  1.
    9900012    2    1    2    0    0 -0.10536461050E+01  0.15599246242E+00  0.50776469122E+00  0.90008030193E+02  0.90000295391E+02 0.  0.
         12    1    1    2    0    0  0.10536461050E+01 -0.15599246242E+00 -0.50776469122E+00  0.11799698067E+01  0.00000000000E+00 0. -1.
         11    1    3    3    0    0  0.32988374839E+01  0.14090708487E+00 -0.95151595636E+01  0.10071764758E+02  0.51100000000E-03 0. -1.
        -11    1    3    3    0    0 -0.27814730188E+02 -0.10195221350E+01 -0.25236828140E+02  0.37571214189E+02  0.51100000000E-03 0.  1.
         12    1    3    3    0    0  0.23462246599E+02  0.10346075125E+01  0.35259752395E+02  0.42365051247E+02  0.00000000000E+00 0. -1.
</event>
<event>
 7    1  0.2284751E-015  0.9000772E+02  0.7816164E-02  0.1186339E+00
        -11   -1    0    0    0    0  0.00000000000E+00  0.00000000000E+00  0.45593999997E+02  0.45594000000E+02  0.51100000000E-03 0. -1.
         11   -1    0    0    0    0 -0.00000000000E+00 -0.00000000000E+00 -0.45593999997E+02  0.45594000000E+02  0.51100000000E-03 0.  1.
    9900012    2    1    2    0    0 -0.58526246139E+00  0.70400064703E+00  0.74491983634E+00  0.90007722650E+02  0.89999983789E+02 0.  0.
         12    1    1    2    0    0  0.58526246139E+00 -0.70400064703E+00 -0.74491983634E+00  0.11802773497E+01  0.00000000000E+00 0. -1.
         11    1    3    3    0    0  0.33632909361E+01 -0.63695167742E+01 -0.61827134867E+01  0.94925452950E+01  0.51100000000E-03 0. -1.
        -11    1    3    3    0    0  0.38625231413E+01 -0.32159111068E+02 -0.14095826469E+02  0.35324493398E+02  0.51100000000E-03 0.  1.
         12    1    3    3    0    0 -0.78110765388E+01  0.39232628490E+02  0.21023459792E+02  0.45190683957E+02  0.00000000000E+00 0. -1.
</event>
<event>
 7    1  0.2284751E-015  0.9000775E+02  0.7816164E-02  0.1186339E+00
        -11   -1    0    0    0    0  0.00000000000E+00  0.00000000000E+00  0.45593999997E+02  0.45594000000E+02  0.51100000000E-03 0.  1.
         11   -1    0    0    0    0 -0.00000000000E+00 -0.00000000000E+00 -0.45593999997E+02  0.45594000000E+02  0.51100000000E-03 0. -1.
    9900012    2    1    2    0    0  0.23178902525E+00  0.28960356544E+00  0.11204461312E+01  0.90007747523E+02  0.90000008990E+02 0.  0.
         12    1    1    2    0    0 -0.23178902525E+00 -0.28960356544E+00 -0.11204461312E+01  0.11802524774E+01  0.00000000000E+00 0. -1.
         11    1    3    3    0    0  0.61297065816E+01 -0.72281086371E+01 -0.96797740819E+00  0.95265858401E+01  0.51100000000E-03 0. -1.
        -11    1    3    3    0    0  0.21970018591E+02  0.29158600529E+02  0.19218991109E+02  0.41258639352E+02  0.51100000000E-03 0.  1.
         12    1    3    3    0    0 -0.27867936147E+02 -0.21640888326E+02 -0.17130567570E+02  0.39222522330E+02  0.00000000000E+00 0. -1.
</event>
<event>
 7    1  0.2284751E-015  0.9000783E+02  0.7816164E-02  0.1186339E+00
        -11   -1    0    0    0    0  0.00000000000E+00  0.00000000000E+00  0.45593999997E+02  0.45594000000E+02  0.51100000000E-03 0.  1.
         11   -1    0    0    0    0 -0.00000000000E+00 -0.00000000000E+00 -0.45593999997E+02  0.45594000000E+02  0.51100000000E-03 0. -1.
    9900012    2    1    2    0    0  0.69977919888E-01 -0.64039514576E+00  0.98883855725E+00  0.90007828595E+02  0.90000091133E+02 0.  0.
         12    1    1    2    0    0 -0.69977919888E-01  0.64039514576E+00 -0.98883855725E+00  0.11801714046E+01  0.00000000000E+00 0. -1.
         11    1    3    3    0    0 -0.42350308378E+01  0.81802990483E+01  0.10125696766E+02  0.13688773282E+02  0.51100000000E-03 0. -1.
        -11    1    3    3    0    0 -0.17910634233E+02  0.15229204561E+02  0.21220332682E+02  0.31670522724E+02  0.51100000000E-03 0.  1.
         12    1    3    3    0    0  0.22215642991E+02 -0.24049898755E+02 -0.30357190890E+02  0.44648532589E+02  0.00000000000E+00 0. -1.
</event>
<event>
 7    1  0.2284751E-015  0.9000697E+02  0.7816164E-02  0.1186341E+00
        -11   -1    0    0    0    0  0.00000000000E+00  0.00000000000E+00  0.45593999997E+02  0.45594000000E+02  0.51100000000E-03 0. -1.
         11   -1    0    0    0    0 -0.00000000000E+00 -0.00000000000E+00 -0.45593999997E+02  0.45594000000E+02  0.51100000000E-03 0.  1.
    9900012    2    1    2    0    0 -0.88448310343E+00 -0.78229508243E+00  0.23220191718E-01  0.90006968614E+02  0.89999219797E+02 0.  0.
         12    1    1    2    0    0  0.88448310343E+00  0.78229508243E+00 -0.23220191718E-01  0.11810313855E+01  0.00000000000E+00 0. -1.
         11    1    3    3    0    0 -0.10998483791E+02  0.29374322052E+02  0.21793231299E+02  0.38193747819E+02  0.51100000000E-03 0. -1.
        -11    1    3    3    0    0  0.90327523669E+01 -0.69060052377E+00  0.63541730122E+01  0.11065399195E+02  0.51100000000E-03 0.  1.
        -12    1    3    3    0    0  0.10812483202E+01 -0.29466016611E+02 -0.28124184120E+02  0.40747821601E+02  0.00000000000E+00 0.  1.
</event>
<event>
 7    1  0.2284751E-015  0.9000770E+02  0.7816164E-02  0.1186339E+00
        -11   -1    0    0    0    0  0.00000000000E+00  0.00000000000E+00  0.45593999997E+02  0.45594000000E+02  0.51100000000E-03 0. -1.
         11   -1    0    0    0    0 -0.00000000000E+00 -0.00000000000E+00 -0.45593999997E+02  0.45594000000E+02  0.51100000000E-03 0.  1.
    9900012    2    1    2    0    0 -0.76255294880E+00  0.87947095975E+00 -0.19531497063E+00  0.90007701687E+02  0.89999962550E+02 0.  0.
         12    1    1    2    0    0  0.76255294880E+00 -0.87947095975E+00  0.19531497063E+00  0.11802983125E+01  0.00000000000E+00 0. -1.
         11    1    3    3    0    0 -0.34920304179E+02 -0.15922051946E+02  0.60252542280E+01  0.38848977733E+02  0.51100000000E-03 0. -1.
        -11    1    3    3    0    0 -0.38956519634E+01  0.92754626927E+01  0.43397426441E+01  0.10956444627E+02  0.51100000000E-03 0.  1.
        -12    1    3    3    0    0  0.38053403194E+02  0.75260602126E+01 -0.10560311843E+02  0.40202279328E+02  0.00000000000E+00 0.  1.
</event>
<event>
 7    1  0.2284751E-015  0.9000775E+02  0.7816164E-02  0.1186339E+00
        -11   -1    0    0    0    0  0.00000000000E+00  0.00000000000E+00  0.45593999997E+02  0.45594000000E+02  0.51100000000E-03 0.  1.
         11   -1    0    0    0    0 -0.00000000000E+00 -0.00000000000E+00 -0.45593999997E+02  0.45594000000E+02  0.51100000000E-03 0. -1.
    9900012    2    1    2    0    0  0.19553584915E+00  0.58968854585E+00  0.10035050313E+01  0.90007750367E+02  0.90000011871E+02 0.  0.
         12    1    1    2    0    0 -0.19553584915E+00 -0.58968854585E+00 -0.10035050313E+01  0.11802496334E+01  0.00000000000E+00 0. -1.
         11    1    3    3    0    0  0.21197415320E+02 -0.17574451593E+02 -0.27308457593E+02  0.38780711977E+02  0.51100000000E-03 0. -1.
        -11    1    3    3    0    0 -0.21062047119E+01  0.16945952567E+01 -0.72394292845E+01  0.77276832233E+01  0.51100000000E-03 0.  1.
        -12    1    3    3    0    0 -0.18895674759E+02  0.16469544882E+02  0.35551391909E+02  0.43499355166E+02  0.00000000000E+00 0.  1.
</event>
<event>
 7    1  0.2284751E-015  0.9000768E+02  0.7816164E-02  0.1186339E+00
        -11   -1    0    0    0    0  0.00000000000E+00  0.00000000000E+00  0.45593999997E+02  0.45594000000E+02  0.51100000000E-03 0. -1.
         11   -1    0    0    0    0 -0.00000000000E+00 -0.00000000000E+00 -0.45593999997E+02  0.45594000000E+02  0.51100000000E-03 0.  1.
    9900012    2    1    2    0    0 -0.11761033292E+01 -0.31961639932E-01  0.94405057882E-01  0.90007681017E+02  0.89999941606E+02 0.  0.
         12    1    1    2    0    0  0.11761033292E+01  0.31961639932E-01 -0.94405057882E-01  0.11803189833E+01  0.00000000000E+00 0. -1.
         11    1    3    3    0    0  0.14660856747E+02 -0.10860060391E+01 -0.27891316971E+01  0.14963267877E+02  0.51100000000E-03 0. -1.
        -11    1    3    3    0    0 -0.53620762702E+01  0.33242392825E+02 -0.14883879801E+02  0.36814921171E+02  0.51100000000E-03 0.  1.
         12    1    3    3    0    0 -0.10474883806E+02 -0.32188348426E+02  0.17767416556E+02  0.38229491969E+02  0.00000000000E+00 0. -1.
</event>
<event>
 7    1  0.2284751E-015  0.9000815E+02  0.7816164E-02  0.1186338E+00
        -11   -1    0    0    0    0  0.00000000000E+00  0.00000000000E+00  0.45593999997E+02  0.45594000000E+02  0.51100000000E-03 0.  1.
         11   -1    0    0    0    0 -0.00000000000E+00 -0.00000000000E+00 -0.45593999997E+02  0.45594000000E+02  0.51100000000E-03 0. -1.
    9900012    2    1    2    0    0 -0.23559586052E+00 -0.22548305874E+00  0.11338836650E+01  0.90008152474E+02  0.90000419286E+02 0.  0.
         12    1    1    2    0    0  0.23559586052E+00  0.22548305874E+00 -0.11338836650E+01  0.11798475262E+01  0.00000000000E+00 0. -1.
         11    1    3    3    0    0  0.15293628917E+02  0.43259993513E+01 -0.35567553211E+02  0.38957158489E+02  0.51100000000E-03 0. -1.
        -11    1    3    3    0    0 -0.68764885578E+01  0.29238566528E+01 -0.42065399436E+01  0.85749642081E+01  0.51100000000E-03 0.  1.
        -12    1    3    3    0    0 -0.86527362202E+01 -0.74753390629E+01  0.40907976819E+02  0.42476029777E+02  0.00000000000E+00 0.  1.
</event>
<event>
 7    1  0.2284751E-015  0.9000765E+02  0.7816164E-02  0.1186339E+00
        -11   -1    0    0    0    0  0.00000000000E+00  0.00000000000E+00  0.45593999997E+02  0.45594000000E+02  0.51100000000E-03 0.  1.
         11   -1    0    0    0    0 -0.00000000000E+00 -0.00000000000E+00 -0.45593999997E+02  0.45594000000E+02  0.51100000000E-03 0. -1.
    9900012    2    1    2    0    0 -0.63369582806E+00 -0.21837205074E+00  0.97158320301E+00  0.90007648071E+02  0.89999908226E+02 0.  0.
         12    1    1    2    0    0  0.63369582806E+00  0.21837205074E+00 -0.97158320301E+00  0.11803519286E+01  0.00000000000E+00 0. -1.
         11    1    3    3    0    0  0.69036153857E+01 -0.20939994551E+02 -0.31734946853E+02  0.38642594753E+02  0.51100000000E-03 0. -1.
        -11    1    3    3    0    0  0.11231485068E+00  0.51057106056E+01 -0.66227557207E+01  0.83631207698E+01  0.51100000000E-03 0.  1.
        -12    1    3    3    0    0 -0.76496260645E+01  0.15615911895E+02  0.39329285777E+02  0.43001932549E+02  0.00000000000E+00 0.  1.
</event>
<event>
 7    1  0.2284751E-015  0.9000771E+02  0.7816164E-02  0.1186339E+00
        -11   -1    0    0    0    0  0.00000000000E+00  0.00000000000E+00  0.45593999997E+02  0.45594000000E+02  0.51100000000E-03 0. -1.
         11   -1    0    0    0    0 -0.00000000000E+00 -0.00000000000E+00 -0.45593999997E+02  0.45594000000E+02  0.51100000000E-03 0.  1.
    9900012    2    1    2    0    0  0.34801074153E+00 -0.11092243785E+01 -0.20396443552E+00  0.90007706948E+02  0.89999967880E+02 0.  0.
         12    1    1    2    0    0 -0.34801074153E+00  0.11092243785E+01  0.20396443552E+00  0.11802930522E+01  0.00000000000E+00 0. -1.
         11    1    3    3    0    0  0.12245403705E+02  0.73802740213E+01  0.58305465285E+01  0.15440648614E+02  0.51100000000E-03 0. -1.
        -11    1    3    3    0    0  0.28240653100E+02 -0.16603623025E+02 -0.74352391282E+01  0.33593117840E+02  0.51100000000E-03 0.  1.
         12    1    3    3    0    0 -0.40138046064E+02  0.81141246249E+01  0.14007281642E+01  0.40973940494E+02  0.00000000000E+00 0. -1.
</event>
<event>
 7    1  0.2284751E-015  0.9000780E+02  0.7816164E-02  0.1186339E+00
        -11   -1    0    0    0    0  0.00000000000E+00  0.00000000000E+00  0.45593999997E+02  0.45594000000E+02  0.51100000000E-03 0.  1.
         11   -1    0    0    0    0 -0.00000000000E+00 -0.00000000000E+00 -0.45593999997E+02  0.45594000000E+02  0.51100000000E-03 0. -1.
    9900012    2    1    2    0    0 -0.41158236590E+00  0.77587549681E-01  0.11033778729E+01  0.90007803998E+02  0.90000066211E+02 0.  0.
         12    1    1    2    0    0  0.41158236590E+00 -0.77587549681E-01 -0.11033778729E+01  0.11801960016E+01  0.00000000000E+00 0. -1.
         11    1    3    3    0    0  0.10484418256E+02 -0.30071405437E+01 -0.36540240099E+01  0.11502947976E+02  0.51100000000E-03 0. -1.
        -11    1    3    3    0    0  0.10698826335E+02 -0.20757765409E+02  0.29712813024E+02  0.37791546247E+02  0.51100000000E-03 0.  1.
         12    1    3    3    0    0 -0.21594826956E+02  0.23842493502E+02 -0.24955411141E+02  0.40713309776E+02  0.00000000000E+00 0. -1.
</event>
<event>
 7    1  0.2284751E-015  0.9000780E+02  0.7816164E-02  0.1186339E+00
        -11   -1    0    0    0    0  0.00000000000E+00  0.00000000000E+00  0.45593999997E+02  0.45594000000E+02  0.51100000000E-03 0.  1.
         11   -1    0    0    0    0 -0.00000000000E+00 -0.00000000000E+00 -0.45593999997E+02  0.45594000000E+02  0.51100000000E-03 0. -1.
    9900012    2    1    2    0    0 -0.20305995539E+00 -0.10597277999E+01 -0.47812630272E+00  0.90007804628E+02  0.90000066849E+02 0.  0.
         12    1    1    2    0    0  0.20305995539E+00  0.10597277999E+01  0.47812630272E+00  0.11801953723E+01  0.00000000000E+00 0. -1.
         11    1    3    3    0    0 -0.34720328098E+02 -0.14249215956E+02 -0.17795345626E+01  0.37572703950E+02  0.51100000000E-03 0. -1.
        -11    1    3    3    0    0 -0.69970801180E+01  0.77654950515E+01 -0.10272910940E+01  0.10503207645E+02  0.51100000000E-03 0.  1.
        -12    1    3    3    0    0  0.41514348260E+02  0.54239931042E+01  0.23286993539E+01  0.41931893033E+02  0.00000000000E+00 0.  1.
</event>
<event>
 7    1  0.2284751E-015  0.9000781E+02  0.7816164E-02  0.1186339E+00
        -11   -1    0    0    0    0  0.00000000000E+00  0.00000000000E+00  0.45593999997E+02  0.45594000000E+02  0.51100000000E-03 0.  1.
         11   -1    0    0    0    0 -0.00000000000E+00 -0.00000000000E+00 -0.45593999997E+02  0.45594000000E+02  0.51100000000E-03 0. -1.
    9900012    2    1    2    0    0  0.44710251833E-01 -0.94816344608E+00 -0.70130265541E+00  0.90007814277E+02  0.90000076625E+02 0.  0.
         12    1    1    2    0    0 -0.44710251833E-01  0.94816344608E+00  0.70130265541E+00  0.11801857234E+01  0.00000000000E+00 0. -1.
         11    1    3    3    0    0  0.13174512194E+02  0.60676549527E+01 -0.81227476835E+01  0.16624176321E+02  0.51100000000E-03 0. -1.
        -11    1    3    3    0    0 -0.17117600869E+02  0.28623737866E+02  0.15256925750E+02  0.36675665127E+02  0.51100000000E-03 0.  1.
         12    1    3    3    0    0  0.39877989266E+01 -0.35639556265E+02 -0.78354807216E+01  0.36707972828E+02  0.00000000000E+00 0. -1.
</event>
<event>
 7    1  0.2284751E-015  0.9000799E+02  0.7816164E-02  0.1186339E+00
        -11   -1    0    0    0    0  0.00000000000E+00  0.00000000000E+00  0.45593999997E+02  0.45594000000E+02  0.51100000000E-03 0. -1.
         11   -1    0    0    0    0 -0.00000000000E+00 -0.00000000000E+00 -0.45593999997E+02  0.45594000000E+02  0.51100000000E-03 0.  1.
    9900012    2    1    2    0    0  0.10073487501E+00  0.11756955674E+01 -0.43015296602E-02  0.90007988947E+02  0.90000253601E+02 0.  0.
         12    1    1    2    0    0 -0.10073487501E+00 -0.11756955674E+01  0.43015296602E-02  0.11800110531E+01  0.00000000000E+00 0. -1.
         11    1    3    3    0    0 -0.20208416196E+01 -0.86712897405E+01 -0.46409845097E+01  0.10040607755E+02  0.51100000000E-03 0. -1.
        -11    1    3    3    0    0 -0.23366776024E+02 -0.21110892525E+01 -0.28219411590E+02  0.36698748076E+02  0.51100000000E-03 0.  1.
         12    1    3    3    0    0  0.25488352519E+02  0.11958074560E+02  0.32856094570E+02  0.43268633116E+02  0.00000000000E+00 0. -1.
</event>
<event>
 7    1  0.2284751E-015  0.9000783E+02  0.7816164E-02  0.1186339E+00
        -11   -1    0    0    0    0  0.00000000000E+00  0.00000000000E+00  0.45593999997E+02  0.45594000000E+02  0.51100000000E-03 0.  1.
         11   -1    0    0    0    0 -0.00000000000E+00 -0.00000000000E+00 -0.45593999997E+02  0.45594000000E+02  0.51100000000E-03 0. -1.
    9900012    2    1    2    0    0  0.37779553323E+00  0.33595355503E+00  0.10663963142E+01  0.90007832489E+02  0.90000095077E+02 0.  0.
         12    1    1    2    0    0 -0.37779553323E+00 -0.33595355503E+00 -0.10663963142E+01  0.11801675114E+01  0.00000000000E+00 0. -1.
         11    1    3    3    0    0 -0.21499446227E+02 -0.13598849686E+02 -0.17499183745E+02  0.30876792788E+02  0.51100000000E-03 0. -1.
        -11    1    3    3    0    0 -0.67684363365E+01  0.12057184064E+02 -0.11187973237E+02  0.17786460115E+02  0.51100000000E-03 0.  1.
        -12    1    3    3    0    0  0.28645678097E+02  0.18776191767E+01  0.29753553296E+02  0.41344579586E+02  0.00000000000E+00 0.  1.
</event>
<event>
 7    1  0.2417137E-015  0.9000764E+02  0.7816164E-02  0.1186339E+00
        -11   -1    0    0    0    0  0.00000000000E+00  0.00000000000E+00  0.45593999997E+02  0.45594000000E+02  0.51100000000E-03 0. -1.
         11   -1    0    0    0    0 -0.00000000000E+00 -0.00000000000E+00 -0.45593999997E+02  0.45594000000E+02  0.51100000000E-03 0.  1.
    9900012    2    1    2    0    0 -0.28717664326E+00 -0.10755307391E+01  0.39243848973E+00  0.90007642104E+02  0.89999902179E+02 0.  0.
         12    1    1    2    0    0  0.28717664326E+00  0.10755307391E+01 -0.39243848973E+00  0.11803578963E+01  0.00000000000E+00 0. -1.
         11    1    3    3    0    0 -0.10351617040E+02  0.31396234739E+02 -0.13841630942E+02  0.35839507231E+02  0.51100000000E-03 0. -1.
        -11    1    3    3    0    0  0.21231248170E+01  0.93112728733E+01  0.88388069055E+00  0.95910743322E+01  0.51100000000E-03 0.  1.
        -12    1    3    3    0    0  0.79413155799E+01 -0.41783038352E+02  0.13350188741E+02  0.44577060541E+02  0.00000000000E+00 0.  1.
</event>
<event>
 7    1  0.2284751E-015  0.9000782E+02  0.7816164E-02  0.1186339E+00
        -11   -1    0    0    0    0  0.00000000000E+00  0.00000000000E+00  0.45593999997E+02  0.45594000000E+02  0.51100000000E-03 0.  1.
         11   -1    0    0    0    0 -0.00000000000E+00 -0.00000000000E+00 -0.45593999997E+02  0.45594000000E+02  0.51100000000E-03 0. -1.
    9900012    2    1    2    0    0  0.27426663940E+00  0.76498239453E+00  0.85580947367E+00  0.90007817765E+02  0.90000080159E+02 0.  0.
         12    1    1    2    0    0 -0.27426663940E+00 -0.76498239453E+00 -0.85580947367E+00  0.11801822354E+01  0.00000000000E+00 0. -1.
         11    1    3    3    0    0 -0.94516904276E+01  0.19800867724E+01 -0.30953083440E+01  0.10140815035E+02  0.51100000000E-03 0. -1.
        -11    1    3    3    0    0 -0.13672331090E+01  0.78448449330E+01  0.40152885170E+02  0.40934888618E+02  0.51100000000E-03 0.  1.
         12    1    3    3    0    0  0.11093190176E+02 -0.90599493109E+01 -0.36201767352E+02  0.38932114112E+02  0.00000000000E+00 0. -1.
</event>
<event>
 7    1  0.2284751E-015  0.9000769E+02  0.7816164E-02  0.1186339E+00
        -11   -1    0    0    0    0  0.00000000000E+00  0.00000000000E+00  0.45593999997E+02  0.45594000000E+02  0.51100000000E-03 0.  1.
         11   -1    0    0    0    0 -0.00000000000E+00 -0.00000000000E+00 -0.45593999997E+02  0.45594000000E+02  0.51100000000E-03 0. -1.
    9900012    2    1    2    0    0  0.75135078142E+00 -0.42345213810E-01  0.90929221836E+00  0.90007689256E+02  0.89999949954E+02 0.  0.
         12    1    1    2    0    0 -0.75135078142E+00  0.42345213810E-01 -0.90929221836E+00  0.11803107439E+01  0.00000000000E+00 0. -1.
         11    1    3    3    0    0 -0.16104471072E+02 -0.11969112069E+02 -0.32718011937E+02  0.38380749571E+02  0.51100000000E-03 0. -1.
        -11    1    3    3    0    0 -0.34958940711E+01 -0.85254814085E+01  0.33525929582E+01  0.98053550883E+01  0.51100000000E-03 0.  1.
        -12    1    3    3    0    0  0.20351715924E+02  0.20452248264E+02  0.30274711198E+02  0.41821584597E+02  0.00000000000E+00 0.  1.
</event>
<event>
 7    1  0.2284751E-015  0.9000778E+02  0.7816164E-02  0.1186339E+00
        -11   -1    0    0    0    0  0.00000000000E+00  0.00000000000E+00  0.45593999997E+02  0.45594000000E+02  0.51100000000E-03 0. -1.
         11   -1    0    0    0    0 -0.00000000000E+00 -0.00000000000E+00 -0.45593999997E+02  0.45594000000E+02  0.51100000000E-03 0.  1.
    9900012    2    1    2    0    0  0.33791976884E+00 -0.99542690372E+00 -0.53653100438E+00  0.90007775441E+02  0.90000037277E+02 0.  0.
         12    1    1    2    0    0 -0.33791976884E+00  0.99542690372E+00  0.53653100438E+00  0.11802245589E+01  0.00000000000E+00 0. -1.
         11    1    3    3    0    0  0.35468650649E+02 -0.76156793398E+01 -0.10304342918E+02  0.37712109911E+02  0.51100000000E-03 0.  1.
        -11    1    3    3    0    0 -0.15602382237E+02 -0.13752848898E+02 -0.35347305100E+01  0.21096670456E+02  0.51100000000E-03 0. -1.
        -12    1    3    3    0    0 -0.19528348643E+02  0.20373101334E+02  0.13302542424E+02  0.31198995074E+02  0.00000000000E+00 0.  1.
</event>
<event>
 7    1  0.2284751E-015  0.9000776E+02  0.7816164E-02  0.1186339E+00
        -11   -1    0    0    0    0  0.00000000000E+00  0.00000000000E+00  0.45593999997E+02  0.45594000000E+02  0.51100000000E-03 0. -1.
         11   -1    0    0    0    0 -0.00000000000E+00 -0.00000000000E+00 -0.45593999997E+02  0.45594000000E+02  0.51100000000E-03 0.  1.
    9900012    2    1    2    0    0 -0.10391668547E+01 -0.24708684113E+00 -0.50203724997E+00  0.90007762287E+02  0.90000023949E+02 0.  0.
         12    1    1    2    0    0  0.10391668547E+01  0.24708684113E+00  0.50203724997E+00  0.11802377130E+01  0.00000000000E+00 0. -1.
         11    1    3    3    0    0 -0.45737126918E+01 -0.69482805685E+01  0.44502302997E+01  0.94340871645E+01  0.51100000000E-03 0. -1.
        -11    1    3    3    0    0 -0.32456057063E+01 -0.36281560088E+02  0.21218253134E+01  0.36488185783E+02  0.51100000000E-03 0.  1.
         12    1    3    3    0    0  0.67801515435E+01  0.42982753815E+02 -0.70740928630E+01  0.44085489340E+02  0.00000000000E+00 0. -1.
</event>
<event>
 7    1  0.2284751E-015  0.9000770E+02  0.7816164E-02  0.1186339E+00
        -11   -1    0    0    0    0  0.00000000000E+00  0.00000000000E+00  0.45593999997E+02  0.45594000000E+02  0.51100000000E-03 0.  1.
         11   -1    0    0    0    0 -0.00000000000E+00 -0.00000000000E+00 -0.45593999997E+02  0.45594000000E+02  0.51100000000E-03 0. -1.
    9900012    2    1    2    0    0 -0.68519484593E+00  0.59375775497E+00  0.75568359591E+00  0.90007704297E+02  0.89999965194E+02 0.  0.
         12    1    1    2    0    0  0.68519484593E+00 -0.59375775497E+00 -0.75568359591E+00  0.11802957026E+01  0.00000000000E+00 0. -1.
         11    1    3    3    0    0  0.66394084320E+00  0.97074905886E+01  0.16804771505E+01  0.98742186873E+01  0.51100000000E-03 0. -1.
        -11    1    3    3    0    0  0.23618764224E+02 -0.14620319805E+02  0.29414410104E+02  0.40457475165E+02  0.51100000000E-03 0.  1.
         12    1    3    3    0    0 -0.24967899913E+02  0.55065869719E+01 -0.30339203659E+02  0.39676010445E+02  0.00000000000E+00 0. -1.
</event>
<event>
 7    1  0.2284751E-015  0.9000767E+02  0.7816164E-02  0.1186339E+00
        -11   -1    0    0    0    0  0.00000000000E+00  0.00000000000E+00  0.45593999997E+02  0.45594000000E+02  0.51100000000E-03 0. -1.
         11   -1    0    0    0    0 -0.00000000000E+00 -0.00000000000E+00 -0.45593999997E+02  0.45594000000E+02  0.51100000000E-03 0.  1.
    9900012    2    1    2    0    0  0.52302814759E+00  0.23364791845E+00 -0.10320016477E+01  0.90007670727E+02  0.89999931180E+02 0.  0.
         12    1    1    2    0    0 -0.52302814759E+00 -0.23364791845E+00  0.10320016477E+01  0.11803292735E+01  0.00000000000E+00 0. -1.
         11    1    3    3    0    0 -0.18326940290E+01  0.62619400950E+01  0.65200919570E+01  0.92240045830E+01  0.51100000000E-03 0. -1.
        -11    1    3    3    0    0 -0.69949836555E+01  0.35364343776E+02  0.53171439492E+01  0.36439520127E+02  0.51100000000E-03 0.  1.
         12    1    3    3    0    0  0.93507058321E+01 -0.41392635953E+02 -0.12869237554E+02  0.44344146016E+02  0.00000000000E+00 0. -1.
</event>
<event>
 7    1  0.2284751E-015  0.9000763E+02  0.7816164E-02  0.1186339E+00
        -11   -1    0    0    0    0  0.00000000000E+00  0.00000000000E+00  0.45593999997E+02  0.45594000000E+02  0.51100000000E-03 0. -1.
         11   -1    0    0    0    0 -0.00000000000E+00 -0.00000000000E+00 -0.45593999997E+02  0.45594000000E+02  0.51100000000E-03 0.  1.
    9900012    2    1    2    0    0  0.62652228331E+00  0.95118055529E+00  0.30983771379E+00  0.90007629707E+02  0.89999889619E+02 0.  0.
         12    1    1    2    0    0 -0.62652228331E+00 -0.95118055529E+00 -0.30983771379E+00  0.11803702932E+01  0.00000000000E+00 0. -1.
         11    1    3    3    0    0  0.42488185843E+01 -0.85105742151E+01 -0.35314043440E+01  0.10146583156E+02  0.51100000000E-03 0. -1.
        -11    1    3    3    0    0  0.15214749257E+02  0.16869509148E+02 -0.31676574532E+02  0.38980434941E+02  0.51100000000E-03 0.  1.
         12    1    3    3    0    0 -0.18837045558E+02 -0.74077543779E+01  0.35517816590E+02  0.40880611610E+02  0.00000000000E+00 0. -1.
</event>
<event>
 7    1  0.2284751E-015  0.9000752E+02  0.7816164E-02  0.1186339E+00
        -11   -1    0    0    0    0  0.00000000000E+00  0.00000000000E+00  0.45593999997E+02  0.45594000000E+02  0.51100000000E-03 0. -1.
         11   -1    0    0    0    0 -0.00000000000E+00 -0.00000000000E+00 -0.45593999997E+02  0.45594000000E+02  0.51100000000E-03 0.  1.
    9900012    2    1    2    0    0  0.10792748473E+01  0.47573153469E+00  0.48800965570E-01  0.90007518648E+02  0.89999777093E+02 0.  0.
         12    1    1    2    0    0 -0.10792748473E+01 -0.47573153469E+00 -0.48800965570E-01  0.11804813524E+01  0.00000000000E+00 0. -1.
         11    1    3    3    0    0  0.85650752892E+01 -0.17734520871E+02  0.36150774124E+02  0.41167368330E+02  0.51100000000E-03 0. -1.
        -11    1    3    3    0    0 -0.25966111086E+01 -0.67604320093E+01 -0.58458802998E+01  0.93069945171E+01  0.51100000000E-03 0.  1.
        -12    1    3    3    0    0 -0.48891893333E+01  0.24970684415E+02 -0.30256092858E+02  0.39533155800E+02  0.00000000000E+00 0.  1.
</event>
<event>
 7    1  0.2284751E-015  0.9000771E+02  0.7816164E-02  0.1186339E+00
        -11   -1    0    0    0    0  0.00000000000E+00  0.00000000000E+00  0.45593999997E+02  0.45594000000E+02  0.51100000000E-03 0. -1.
         11   -1    0    0    0    0 -0.00000000000E+00 -0.00000000000E+00 -0.45593999997E+02  0.45594000000E+02  0.51100000000E-03 0.  1.
    9900012    2    1    2    0    0  0.11724493194E+01 -0.13115893841E+00  0.35404961545E-01  0.90007706145E+02  0.89999967066E+02 0.  0.
         12    1    1    2    0    0 -0.11724493194E+01  0.13115893841E+00 -0.35404961545E-01  0.11802938553E+01  0.00000000000E+00 0. -1.
         11    1    3    3    0    0  0.13467220138E+02  0.94499412755E+01 -0.21460319446E+02  0.27040945238E+02  0.51100000000E-03 0. -1.
        -11    1    3    3    0    0  0.17966638208E+02 -0.17299063789E+02 -0.19697197940E+00  0.24941862294E+02  0.51100000000E-03 0.  1.
         12    1    3    3    0    0 -0.30261409026E+02  0.77179635745E+01  0.21692696387E+02  0.38024898613E+02  0.00000000000E+00 0. -1.
</event>
<event>
 7    1  0.2284751E-015  0.9000770E+02  0.7816164E-02  0.1186339E+00
        -11   -1    0    0    0    0  0.00000000000E+00  0.00000000000E+00  0.45593999997E+02  0.45594000000E+02  0.51100000000E-03 0.  1.
         11   -1    0    0    0    0 -0.00000000000E+00 -0.00000000000E+00 -0.45593999997E+02  0.45594000000E+02  0.51100000000E-03 0. -1.
    9900012    2    1    2    0    0  0.21299425050E+00  0.97057048966E+00 -0.63696966165E+00  0.90007701743E+02  0.89999962606E+02 0.  0.
         12    1    1    2    0    0 -0.21299425050E+00 -0.97057048966E+00  0.63696966165E+00  0.11802982572E+01  0.00000000000E+00 0. -1.
         11    1    3    3    0    0 -0.73827445693E+01 -0.36182739957E+02 -0.13379661158E+02  0.39277358887E+02  0.51100000000E-03 0. -1.
        -11    1    3    3    0    0 -0.78778850884E+01 -0.43928986193E+00  0.50170585447E+01  0.93501297183E+01  0.51100000000E-03 0.  1.
        -12    1    3    3    0    0  0.15473623908E+02  0.37592600309E+02  0.77256329512E+01  0.41380213138E+02  0.00000000000E+00 0.  1.
</event>
<event>
 7    1  0.2284751E-015  0.9000790E+02  0.7816164E-02  0.1186339E+00
        -11   -1    0    0    0    0  0.00000000000E+00  0.00000000000E+00  0.45593999997E+02  0.45594000000E+02  0.51100000000E-03 0.  1.
         11   -1    0    0    0    0 -0.00000000000E+00 -0.00000000000E+00 -0.45593999997E+02  0.45594000000E+02  0.51100000000E-03 0. -1.
    9900012    2    1    2    0    0  0.29733273013E+00 -0.24769572106E+00  0.11148393528E+01  0.90007903942E+02  0.90000167474E+02 0.  0.
         12    1    1    2    0    0 -0.29733273013E+00  0.24769572106E+00 -0.11148393528E+01  0.11800960576E+01  0.00000000000E+00 0. -1.
         11    1    3    3    0    0 -0.43575572955E+01  0.22117437231E+02 -0.29757517383E+02  0.37332012755E+02  0.51100000000E-03 0. -1.
        -11    1    3    3    0    0 -0.15665191090E+01  0.87800515308E+01  0.82906467368E+00  0.89571555472E+01  0.51100000000E-03 0.  1.
        -12    1    3    3    0    0  0.62214091347E+01 -0.31145184482E+02  0.30043292062E+02  0.43718735641E+02  0.00000000000E+00 0.  1.
</event>
<event>
 7    1  0.2284751E-015  0.9000775E+02  0.7816164E-02  0.1186339E+00
        -11   -1    0    0    0    0  0.00000000000E+00  0.00000000000E+00  0.45593999997E+02  0.45594000000E+02  0.51100000000E-03 0. -1.
         11   -1    0    0    0    0 -0.00000000000E+00 -0.00000000000E+00 -0.45593999997E+02  0.45594000000E+02  0.51100000000E-03 0.  1.
    9900012    2    1    2    0    0 -0.93178147718E+00  0.29224265481E+00 -0.66285390029E+00  0.90007746729E+02  0.90000008186E+02 0.  0.
         12    1    1    2    0    0  0.93178147718E+00 -0.29224265481E+00  0.66285390029E+00  0.11802532710E+01  0.00000000000E+00 0. -1.
         11    1    3    3    0    0  0.39866205150E+01  0.16423897057E+01 -0.89508268702E+01  0.99351843968E+01  0.51100000000E-03 0. -1.
        -11    1    3    3    0    0 -0.11216886523E+02 -0.92778417723E+01 -0.33790736753E+02  0.36792808833E+02  0.51100000000E-03 0.  1.
         12    1    3    3    0    0  0.62984845305E+01  0.79276947215E+01  0.42078709723E+02  0.43279753499E+02  0.00000000000E+00 0. -1.
</event>
<event>
 7    1  0.2284751E-015  0.9000731E+02  0.7816164E-02  0.1186340E+00
        -11   -1    0    0    0    0  0.00000000000E+00  0.00000000000E+00  0.45593999997E+02  0.45594000000E+02  0.51100000000E-03 0.  1.
         11   -1    0    0    0    0 -0.00000000000E+00 -0.00000000000E+00 -0.45593999997E+02  0.45594000000E+02  0.51100000000E-03 0. -1.
    9900012    2    1    2    0    0  0.99517975363E+00 -0.57897773706E+00  0.26160609789E+00  0.90007307105E+02  0.89999562758E+02 0.  0.
         12    1    1    2    0    0 -0.99517975363E+00  0.57897773706E+00 -0.26160609789E+00  0.11806928951E+01  0.00000000000E+00 0. -1.
         11    1    3    3    0    0  0.43636014624E+01  0.68998853823E+01 -0.39758200666E+00  0.81735859771E+01  0.51100000000E-03 0. -1.
        -11    1    3    3    0    0 -0.21238691703E+02  0.29084853348E+01  0.35414045930E+02  0.41396811008E+02  0.51100000000E-03 0.  1.
         12    1    3    3    0    0  0.17870269995E+02 -0.10387348454E+02 -0.34754857826E+02  0.40436910120E+02  0.00000000000E+00 0. -1.
</event>
<event>
 7    1  0.2284751E-015  0.9000776E+02  0.7816164E-02  0.1186339E+00
        -11   -1    0    0    0    0  0.00000000000E+00  0.00000000000E+00  0.45593999997E+02  0.45594000000E+02  0.51100000000E-03 0.  1.
         11   -1    0    0    0    0 -0.00000000000E+00 -0.00000000000E+00 -0.45593999997E+02  0.45594000000E+02  0.51100000000E-03 0. -1.
    9900012    2    1    2    0    0  0.75211102055E+00  0.15521340598E+00  0.89621237658E+00  0.90007763239E+02  0.90000024914E+02 0.  0.
         12    1    1    2    0    0 -0.75211102055E+00 -0.15521340598E+00 -0.89621237658E+00  0.11802367612E+01  0.00000000000E+00 0. -1.
         11    1    3    3    0    0  0.15428735983E+01 -0.10077421564E+02  0.45765984541E+01  0.11174978210E+02  0.51100000000E-03 0. -1.
        -11    1    3    3    0    0 -0.24987414794E+02  0.23125763981E+02  0.22591522160E+02  0.40860111742E+02  0.51100000000E-03 0.  1.
         12    1    3    3    0    0  0.24196652216E+02 -0.12893129011E+02 -0.26271908237E+02  0.37972673287E+02  0.00000000000E+00 0. -1.
</event>
<event>
 7    1  0.2284751E-015  0.9000776E+02  0.7816164E-02  0.1186339E+00
        -11   -1    0    0    0    0  0.00000000000E+00  0.00000000000E+00  0.45593999997E+02  0.45594000000E+02  0.51100000000E-03 0. -1.
         11   -1    0    0    0    0 -0.00000000000E+00 -0.00000000000E+00 -0.45593999997E+02  0.45594000000E+02  0.51100000000E-03 0.  1.
    9900012    2    1    2    0    0  0.19361774461E+00  0.11304855921E+01 -0.27836372048E+00  0.90007757709E+02  0.90000019311E+02 0.  0.
         12    1    1    2    0    0 -0.19361774461E+00 -0.11304855921E+01  0.27836372048E+00  0.11802422912E+01  0.00000000000E+00 0. -1.
         11    1    3    3    0    0  0.83812107961E+01 -0.64364557686E+01  0.51241046920E+01  0.11744322306E+02  0.51100000000E-03 0. -1.
        -11    1    3    3    0    0  0.16808858539E+02 -0.29147759847E+02 -0.16082091201E+01  0.33685545362E+02  0.51100000000E-03 0.  1.
         12    1    3    3    0    0 -0.24996451591E+02  0.36714701208E+02 -0.37942592924E+01  0.44577890041E+02  0.00000000000E+00 0. -1.
</event>
<event>
 7    1  0.2284751E-015  0.9000774E+02  0.7816164E-02  0.1186339E+00
        -11   -1    0    0    0    0  0.00000000000E+00  0.00000000000E+00  0.45593999997E+02  0.45594000000E+02  0.51100000000E-03 0.  1.
         11   -1    0    0    0    0 -0.00000000000E+00 -0.00000000000E+00 -0.45593999997E+02  0.45594000000E+02  0.51100000000E-03 0. -1.
    9900012    2    1    2    0    0 -0.11490668555E+01 -0.60475859434E-01  0.26267701122E+00  0.90007741054E+02  0.90000002436E+02 0.  0.
         12    1    1    2    0    0  0.11490668555E+01  0.60475859434E-01 -0.26267701122E+00  0.11802589463E+01  0.00000000000E+00 0. -1.
         11    1    3    3    0    0 -0.42856234550E+01 -0.95279357418E+01 -0.18557593803E+01  0.10610936388E+02  0.51100000000E-03 0. -1.
        -11    1    3    3    0    0 -0.15983145053E+02 -0.22571448067E+02  0.23588280643E+02  0.36350215647E+02  0.51100000000E-03 0.  1.
         12    1    3    3    0    0  0.19119701653E+02  0.32038907950E+02 -0.21469844252E+02  0.43046589018E+02  0.00000000000E+00 0. -1.
</event>
<event>
 7    1  0.2284751E-015  0.9000826E+02  0.7816164E-02  0.1186338E+00
        -11   -1    0    0    0    0  0.00000000000E+00  0.00000000000E+00  0.45593999997E+02  0.45594000000E+02  0.51100000000E-03 0. -1.
         11   -1    0    0    0    0 -0.00000000000E+00 -0.00000000000E+00 -0.45593999997E+02  0.45594000000E+02  0.51100000000E-03 0.  1.
    9900012    2    1    2    0    0  0.82303488713E-01 -0.97953506473E+00 -0.65232096930E+00  0.90008260429E+02  0.90000528666E+02 0.  0.
         12    1    1    2    0    0 -0.82303488713E-01  0.97953506473E+00  0.65232096930E+00  0.11797395705E+01  0.00000000000E+00 0. -1.
         11    1    3    3    0    0 -0.24700957177E+02 -0.45993991207E+00  0.26487768441E+02  0.36220860114E+02  0.51100000000E-03 0. -1.
        -11    1    3    3    0    0  0.44587533977E+00  0.70657344343E+01  0.78015560660E+01  0.10535069303E+02  0.51100000000E-03 0.  1.
        -12    1    3    3    0    0  0.24337385326E+02 -0.75853295870E+01 -0.34941645476E+02  0.43252331012E+02  0.00000000000E+00 0.  1.
</event>
<event>
 7    1  0.2284751E-015  0.9000779E+02  0.7816164E-02  0.1186339E+00
        -11   -1    0    0    0    0  0.00000000000E+00  0.00000000000E+00  0.45593999997E+02  0.45594000000E+02  0.51100000000E-03 0.  1.
         11   -1    0    0    0    0 -0.00000000000E+00 -0.00000000000E+00 -0.45593999997E+02  0.45594000000E+02  0.51100000000E-03 0. -1.
    9900012    2    1    2    0    0 -0.78162450239E+00 -0.44648849016E+00  0.76328424481E+00  0.90007791682E+02  0.90000053733E+02 0.  0.
         12    1    1    2    0    0  0.78162450239E+00  0.44648849016E+00 -0.76328424481E+00  0.11802083176E+01  0.00000000000E+00 0. -1.
         11    1    3    3    0    0  0.37068611542E+02 -0.46093522140E+01 -0.12690652574E+02  0.39450991781E+02  0.51100000000E-03 0. -1.
        -11    1    3    3    0    0  0.37257484263E+01  0.59311691338E+01  0.31878492380E+01  0.76956059966E+01  0.51100000000E-03 0.  1.
        -12    1    3    3    0    0 -0.41575984471E+02 -0.17683054100E+01  0.10266087581E+02  0.42861193905E+02  0.00000000000E+00 0.  1.
</event>
<event>
 7    1  0.2284751E-015  0.9000777E+02  0.7816164E-02  0.1186339E+00
        -11   -1    0    0    0    0  0.00000000000E+00  0.00000000000E+00  0.45593999997E+02  0.45594000000E+02  0.51100000000E-03 0. -1.
         11   -1    0    0    0    0 -0.00000000000E+00 -0.00000000000E+00 -0.45593999997E+02  0.45594000000E+02  0.51100000000E-03 0.  1.
    9900012    2    1    2    0    0  0.66175531037E+00  0.68404703852E+00 -0.69792621799E+00  0.90007770595E+02  0.90000032367E+02 0.  0.
         12    1    1    2    0    0 -0.66175531037E+00 -0.68404703852E+00  0.69792621799E+00  0.11802294046E+01  0.00000000000E+00 0. -1.
         11    1    3    3    0    0  0.79139831333E+01  0.26890705822E+01  0.49206324236E+01  0.96992192129E+01  0.51100000000E-03 0. -1.
        -11    1    3    3    0    0  0.21047362212E+02 -0.29981835200E+02 -0.14733534323E+02  0.39483907253E+02  0.51100000000E-03 0.  1.
         12    1    3    3    0    0 -0.28299590035E+02  0.27976811657E+02  0.91149756817E+01  0.40824644129E+02  0.00000000000E+00 0. -1.
</event>
<event>
 7    1  0.2284751E-015  0.9000762E+02  0.7816164E-02  0.1186339E+00
        -11   -1    0    0    0    0  0.00000000000E+00  0.00000000000E+00  0.45593999997E+02  0.45594000000E+02  0.51100000000E-03 0. -1.
         11   -1    0    0    0    0 -0.00000000000E+00 -0.00000000000E+00 -0.45593999997E+02  0.45594000000E+02  0.51100000000E-03 0.  1.
    9900012    2    1    2    0    0  0.13447084645E+00 -0.99417665591E+00 -0.62195280273E+00  0.90007620857E+02  0.89999880653E+02 0.  0.
         12    1    1    2    0    0 -0.13447084645E+00  0.99417665591E+00  0.62195280273E+00  0.11803791427E+01  0.00000000000E+00 0. -1.
         11    1    3    3    0    0 -0.38718101630E+01 -0.95927721752E+01  0.12832643028E+00  0.10345465668E+02  0.51100000000E-03 0. -1.
        -11    1    3    3    0    0 -0.16415811720E+02  0.79823708160E+01 -0.35175930576E+02  0.39630079616E+02  0.51100000000E-03 0.  1.
         12    1    3    3    0    0  0.20422092729E+02  0.61622470335E+00  0.34425651343E+02  0.40032075573E+02  0.00000000000E+00 0. -1.
</event>
<event>
 7    1  0.2284751E-015  0.9000784E+02  0.7816164E-02  0.1186339E+00
        -11   -1    0    0    0    0  0.00000000000E+00  0.00000000000E+00  0.45593999997E+02  0.45594000000E+02  0.51100000000E-03 0.  1.
         11   -1    0    0    0    0 -0.00000000000E+00 -0.00000000000E+00 -0.45593999997E+02  0.45594000000E+02  0.51100000000E-03 0. -1.
    9900012    2    1    2    0    0  0.56519338603E+00 -0.92655713205E+00 -0.46349679323E+00  0.90007838587E+02  0.90000101257E+02 0.  0.
         12    1    1    2    0    0 -0.56519338603E+00  0.92655713205E+00  0.46349679323E+00  0.11801614127E+01  0.00000000000E+00 0. -1.
         11    1    3    3    0    0  0.71874538892E+01 -0.20724838107E+01 -0.41839890778E+01  0.85709070359E+01  0.51100000000E-03 0. -1.
        -11    1    3    3    0    0  0.35789514430E+00 -0.35150509160E+02  0.20664931887E+02  0.40776534837E+02  0.51100000000E-03 0.  1.
         12    1    3    3    0    0 -0.69801556475E+01  0.36296435839E+02 -0.16944439603E+02  0.40660396714E+02  0.00000000000E+00 0. -1.
</event>
<event>
 7    1  0.2284751E-015  0.9000776E+02  0.7816164E-02  0.1186339E+00
        -11   -1    0    0    0    0  0.00000000000E+00  0.00000000000E+00  0.45593999997E+02  0.45594000000E+02  0.51100000000E-03 0. -1.
         11   -1    0    0    0    0 -0.00000000000E+00 -0.00000000000E+00 -0.45593999997E+02  0.45594000000E+02  0.51100000000E-03 0.  1.
    9900012    2    1    2    0    0  0.11462736685E+01  0.26124213708E+00 -0.10382490934E+00  0.90007758334E+02  0.90000019944E+02 0.  0.
         12    1    1    2    0    0 -0.11462736685E+01 -0.26124213708E+00  0.10382490934E+00  0.11802416656E+01  0.00000000000E+00 0. -1.
         11    1    3    3    0    0  0.20381796471E+02 -0.66612118735E+01  0.33499417564E+01  0.21702798922E+02  0.51100000000E-03 0. -1.
        -11    1    3    3    0    0  0.21681727203E+02  0.12037583568E+02 -0.96415915362E+01  0.26607536531E+02  0.51100000000E-03 0.  1.
        -12    1    3    3    0    0 -0.40917250005E+02 -0.51151295577E+01  0.61878248705E+01  0.41697422882E+02  0.00000000000E+00 0.  1.
</event>
<event>
 7    1  0.2284751E-015  0.9000770E+02  0.7816164E-02  0.1186339E+00
        -11   -1    0    0    0    0  0.00000000000E+00  0.00000000000E+00  0.45593999997E+02  0.45594000000E+02  0.51100000000E-03 0.  1.
         11   -1    0    0    0    0 -0.00000000000E+00 -0.00000000000E+00 -0.45593999997E+02  0.45594000000E+02  0.51100000000E-03 0. -1.
    9900012    2    1    2    0    0 -0.94531382730E+00  0.50355061837E+00  0.49591228521E+00  0.90007698999E+02  0.89999959826E+02 0.  0.
         12    1    1    2    0    0  0.94531382730E+00 -0.50355061837E+00 -0.49591228521E+00  0.11803010006E+01  0.00000000000E+00 0. -1.
         11    1    3    3    0    0  0.92233234968E+01  0.20875842483E+01 -0.28661133447E+02  0.30180925682E+02  0.51100000000E-03 0. -1.
        -11    1    3    3    0    0  0.80757660189E+01  0.16868649178E+02 -0.25276612947E+01  0.18872159224E+02  0.51100000000E-03 0.  1.
        -12    1    3    3    0    0 -0.18244403343E+02 -0.18452682808E+02  0.31684707027E+02  0.40954614093E+02  0.00000000000E+00 0.  1.
</event>
<event>
 7    1  0.2284751E-015  0.9000772E+02  0.7816164E-02  0.1186339E+00
        -11   -1    0    0    0    0  0.00000000000E+00  0.00000000000E+00  0.45593999997E+02  0.45594000000E+02  0.51100000000E-03 0. -1.
         11   -1    0    0    0    0 -0.00000000000E+00 -0.00000000000E+00 -0.45593999997E+02  0.45594000000E+02  0.51100000000E-03 0.  1.
    9900012    2    1    2    0    0  0.11478393198E+01  0.54152060703E-01  0.26944781115E+00  0.90007716275E+02  0.89999977329E+02 0.  0.
         12    1    1    2    0    0 -0.11478393198E+01 -0.54152060703E-01 -0.26944781115E+00  0.11802837255E+01  0.00000000000E+00 0. -1.
         11    1    3    3    0    0 -0.10417792563E+02 -0.15771129057E+02  0.25889610035E+02  0.32055121613E+02  0.51100000000E-03 0. -1.
        -11    1    3    3    0    0  0.41893033333E+01 -0.16396187757E+02 -0.14133516461E+01  0.16981837313E+02  0.51100000000E-03 0.  1.
        -12    1    3    3    0    0  0.73763285493E+01  0.32221468875E+02 -0.24206810578E+02  0.40970757348E+02  0.00000000000E+00 0.  1.
</event>
<event>
 7    1  0.2284751E-015  0.9000763E+02  0.7816164E-02  0.1186339E+00
        -11   -1    0    0    0    0  0.00000000000E+00  0.00000000000E+00  0.45593999997E+02  0.45594000000E+02  0.51100000000E-03 0. -1.
         11   -1    0    0    0    0 -0.00000000000E+00 -0.00000000000E+00 -0.45593999997E+02  0.45594000000E+02  0.51100000000E-03 0.  1.
    9900012    2    1    2    0    0 -0.10625336057E+01 -0.14977998604E+00 -0.49178678785E+00  0.90007633128E+02  0.89999893085E+02 0.  0.
         12    1    1    2    0    0  0.10625336057E+01  0.14977998604E+00  0.49178678785E+00  0.11803668719E+01  0.00000000000E+00 0. -1.
         11    1    3    3    0    0 -0.88511672805E+01 -0.70642291327E-01  0.45213462354E+01  0.99393523231E+01  0.51100000000E-03 0. -1.
        -11    1    3    3    0    0  0.97403354612E+01  0.10346941847E+02 -0.40557519660E+02  0.42974943184E+02  0.51100000000E-03 0.  1.
         12    1    3    3    0    0 -0.19517017864E+01 -0.10426079541E+02  0.35544386637E+02  0.37093337621E+02  0.00000000000E+00 0. -1.
</event>
<event>
 7    1  0.2284751E-015  0.9000782E+02  0.7816164E-02  0.1186339E+00
        -11   -1    0    0    0    0  0.00000000000E+00  0.00000000000E+00  0.45593999997E+02  0.45594000000E+02  0.51100000000E-03 0. -1.
         11   -1    0    0    0    0 -0.00000000000E+00 -0.00000000000E+00 -0.45593999997E+02  0.45594000000E+02  0.51100000000E-03 0.  1.
    9900012    2    1    2    0    0 -0.80696917003E+00  0.46500803952E+00 -0.72483670194E+00  0.90007822063E+02  0.90000084514E+02 0.  0.
         12    1    1    2    0    0  0.80696917003E+00 -0.46500803952E+00  0.72483670194E+00  0.11801779369E+01  0.00000000000E+00 0. -1.
         11    1    3    3    0    0  0.72496167904E+01 -0.87429011646E+00 -0.79026019432E+01  0.10759760432E+02  0.51100000000E-03 0. -1.
        -11    1    3    3    0    0  0.30140313910E+02  0.20041150855E+02  0.50790287613E+00  0.36198676989E+02  0.51100000000E-03 0.  1.
         12    1    3    3    0    0 -0.38196899870E+02 -0.18701852699E+02  0.66698623651E+01  0.43049384642E+02  0.00000000000E+00 0. -1.
</event>
<event>
 7    1  0.2284751E-015  0.9000776E+02  0.7816164E-02  0.1186339E+00
        -11   -1    0    0    0    0  0.00000000000E+00  0.00000000000E+00  0.45593999997E+02  0.45594000000E+02  0.51100000000E-03 0.  1.
         11   -1    0    0    0    0 -0.00000000000E+00 -0.00000000000E+00 -0.45593999997E+02  0.45594000000E+02  0.51100000000E-03 0. -1.
    9900012    2    1    2    0    0 -0.10056408911E+01  0.59461611576E+00  0.16760905840E+00  0.90007756498E+02  0.90000018084E+02 0.  0.
         12    1    1    2    0    0  0.10056408911E+01 -0.59461611576E+00 -0.16760905840E+00  0.11802435018E+01  0.00000000000E+00 0. -1.
         11    1    3    3    0    0  0.33600121333E+02  0.10424955817E+02 -0.51928553775E+01  0.35561406111E+02  0.51100000000E-03 0. -1.
        -11    1    3    3    0    0  0.90479628802E+01 -0.47810848937E+01  0.76825206419E+00  0.10262290998E+02  0.51100000000E-03 0.  1.
        -12    1    3    3    0    0 -0.43653725104E+02 -0.50492548074E+01  0.45922123717E+01  0.44184059389E+02  0.00000000000E+00 0.  1.
</event>
<event>
 7    1  0.2284751E-015  0.9000775E+02  0.7816164E-02  0.1186339E+00
        -11   -1    0    0    0    0  0.00000000000E+00  0.00000000000E+00  0.45593999997E+02  0.45594000000E+02  0.51100000000E-03 0. -1.
         11   -1    0    0    0    0 -0.00000000000E+00 -0.00000000000E+00 -0.45593999997E+02  0.45594000000E+02  0.51100000000E-03 0.  1.
    9900012    2    1    2    0    0 -0.66599822359E+00 -0.17424844655E+00 -0.95868749635E+00  0.90007746692E+02  0.90000008149E+02 0.  0.
         12    1    1    2    0    0  0.66599822359E+00  0.17424844655E+00  0.95868749635E+00  0.11802533078E+01  0.00000000000E+00 0. -1.
         11    1    3    3    0    0 -0.67706381762E+01 -0.44521127723E+01 -0.12817691434E+01  0.82040101077E+01  0.51100000000E-03 0. -1.
        -11    1    3    3    0    0 -0.76295473685E+01 -0.35876909251E+02 -0.10217554923E+02  0.38075727692E+02  0.51100000000E-03 0.  1.
         12    1    3    3    0    0  0.13734187321E+02  0.40154773577E+02  0.10540636570E+02  0.43728008892E+02  0.00000000000E+00 0. -1.
</event>
<event>
 7    1  0.2284751E-015  0.9000779E+02  0.7816164E-02  0.1186339E+00
        -11   -1    0    0    0    0  0.00000000000E+00  0.00000000000E+00  0.45593999997E+02  0.45594000000E+02  0.51100000000E-03 0. -1.
         11   -1    0    0    0    0 -0.00000000000E+00 -0.00000000000E+00 -0.45593999997E+02  0.45594000000E+02  0.51100000000E-03 0.  1.
    9900012    2    1    2    0    0  0.29783090194E+00 -0.24481431182E+00  0.11154675896E+01  0.90007785936E+02  0.90000047910E+02 0.  0.
         12    1    1    2    0    0 -0.29783090194E+00  0.24481431182E+00 -0.11154675896E+01  0.11802140640E+01  0.00000000000E+00 0. -1.
         11    1    3    3    0    0 -0.56018183818E+01 -0.36254874233E+02 -0.88864972121E+01  0.37746074072E+02  0.51100000000E-03 0. -1.
        -11    1    3    3    0    0 -0.59612787852E+01 -0.48418159984E+01  0.55813118354E+01  0.94937384092E+01  0.51100000000E-03 0.  1.
        -12    1    3    3    0    0  0.11860928069E+02  0.40851875920E+02  0.44206529663E+01  0.42767973455E+02  0.00000000000E+00 0.  1.
</event>
<event>
 7    1  0.2284751E-015  0.9000780E+02  0.7816164E-02  0.1186339E+00
        -11   -1    0    0    0    0  0.00000000000E+00  0.00000000000E+00  0.45593999997E+02  0.45594000000E+02  0.51100000000E-03 0. -1.
         11   -1    0    0    0    0 -0.00000000000E+00 -0.00000000000E+00 -0.45593999997E+02  0.45594000000E+02  0.51100000000E-03 0.  1.
    9900012    2    1    2    0    0  0.16561953989E+00  0.58954767084E+00 -0.10088978391E+01  0.90007800382E+02  0.90000062547E+02 0.  0.
         12    1    1    2    0    0 -0.16561953989E+00 -0.58954767084E+00  0.10088978391E+01  0.11801996178E+01  0.00000000000E+00 0. -1.
         11    1    3    3    0    0 -0.22942646006E+01 -0.76501108500E+01 -0.13855168164E+02  0.15992295995E+02  0.51100000000E-03 0. -1.
        -11    1    3    3    0    0  0.25190700840E+02 -0.22394278765E+02 -0.18108074998E+00  0.33706200033E+02  0.51100000000E-03 0.  1.
         12    1    3    3    0    0 -0.22730816699E+02  0.30633937286E+02  0.13027351075E+02  0.40309304354E+02  0.00000000000E+00 0. -1.
</event>
<event>
 7    1  0.2284751E-015  0.9000764E+02  0.7816164E-02  0.1186339E+00
        -11   -1    0    0    0    0  0.00000000000E+00  0.00000000000E+00  0.45593999997E+02  0.45594000000E+02  0.51100000000E-03 0. -1.
         11   -1    0    0    0    0 -0.00000000000E+00 -0.00000000000E+00 -0.45593999997E+02  0.45594000000E+02  0.51100000000E-03 0.  1.
    9900012    2    1    2    0    0  0.75515256666E+00 -0.36559901868E+00 -0.83025565426E+00  0.90007643066E+02  0.89999903154E+02 0.  0.
         12    1    1    2    0    0 -0.75515256666E+00  0.36559901868E+00  0.83025565426E+00  0.11803569345E+01  0.00000000000E+00 0. -1.
         11    1    3    3    0    0  0.12153107357E+02 -0.31217662946E+02  0.10646276080E+02  0.35150870442E+02  0.51100000000E-03 0. -1.
        -11    1    3    3    0    0  0.11402194787E+02 -0.38946515666E+01 -0.34046081715E+01  0.12520771296E+02  0.51100000000E-03 0.  1.
        -12    1    3    3    0    0 -0.22800149577E+02  0.34746715494E+02 -0.80719235629E+01  0.42336001327E+02  0.00000000000E+00 0.  1.
</event>
<event>
 7    1  0.2284751E-015  0.9000773E+02  0.7816164E-02  0.1186339E+00
        -11   -1    0    0    0    0  0.00000000000E+00  0.00000000000E+00  0.45593999997E+02  0.45594000000E+02  0.51100000000E-03 0.  1.
         11   -1    0    0    0    0 -0.00000000000E+00 -0.00000000000E+00 -0.45593999997E+02  0.45594000000E+02  0.51100000000E-03 0. -1.
    9900012    2    1    2    0    0  0.64949913017E+00 -0.98529688861E+00 -0.19165346591E-01  0.90007734611E+02  0.89999995908E+02 0.  0.
         12    1    1    2    0    0 -0.64949913017E+00  0.98529688861E+00  0.19165346591E-01  0.11802653894E+01  0.00000000000E+00 0. -1.
         11    1    3    3    0    0 -0.60956483548E+01 -0.39604428553E+02  0.17861411064E+02  0.43871376721E+02  0.51100000000E-03 0. -1.
        -11    1    3    3    0    0  0.33208203599E+00  0.19040790732E+01 -0.70697331468E+01  0.73291829438E+01  0.51100000000E-03 0.  1.
        -12    1    3    3    0    0  0.64130654490E+01  0.36715052591E+02 -0.10810843264E+02  0.38807174946E+02  0.00000000000E+00 0.  1.
</event>
<event>
 7    1  0.2284751E-015  0.9000769E+02  0.7816164E-02  0.1186339E+00
        -11   -1    0    0    0    0  0.00000000000E+00  0.00000000000E+00  0.45593999997E+02  0.45594000000E+02  0.51100000000E-03 0.  1.
         11   -1    0    0    0    0 -0.00000000000E+00 -0.00000000000E+00 -0.45593999997E+02  0.45594000000E+02  0.51100000000E-03 0. -1.
    9900012    2    1    2    0    0  0.70907358619E-01  0.11390283469E+01 -0.30121423831E+00  0.90007685023E+02  0.89999945665E+02 0.  0.
         12    1    1    2    0    0 -0.70907358619E-01 -0.11390283469E+01  0.30121423831E+00  0.11803149774E+01  0.00000000000E+00 0. -1.
         11    1    3    3    0    0  0.31893997265E+01  0.81897293312E+01  0.37136703575E+00  0.87966954517E+01  0.51100000000E-03 0. -1.
        -11    1    3    3    0    0  0.54377493742E+00 -0.93031497825E+01  0.39614131249E+02  0.40695499529E+02  0.51100000000E-03 0.  1.
         12    1    3    3    0    0 -0.36622673053E+01  0.22524487982E+01 -0.40286712523E+02  0.40515490042E+02  0.00000000000E+00 0. -1.
</event>
<event>
 7    1  0.2284751E-015  0.9000773E+02  0.7816164E-02  0.1186339E+00
        -11   -1    0    0    0    0  0.00000000000E+00  0.00000000000E+00  0.45593999997E+02  0.45594000000E+02  0.51100000000E-03 0.  1.
         11   -1    0    0    0    0 -0.00000000000E+00 -0.00000000000E+00 -0.45593999997E+02  0.45594000000E+02  0.51100000000E-03 0. -1.
    9900012    2    1    2    0    0 -0.23098235101E+00  0.22228598304E+00  0.11358989223E+01  0.90007732968E+02  0.89999994243E+02 0.  0.
         12    1    1    2    0    0  0.23098235101E+00 -0.22228598304E+00 -0.11358989223E+01  0.11802670318E+01  0.00000000000E+00 0. -1.
         11    1    3    3    0    0  0.79644512534E+00  0.72636224523E+01 -0.69795188926E+01  0.10104861216E+02  0.51100000000E-03 0. -1.
        -11    1    3    3    0    0 -0.23876069887E+02  0.22750873596E+02  0.22251868917E+02  0.39784602966E+02  0.51100000000E-03 0.  1.
         12    1    3    3    0    0  0.22848642411E+02 -0.29792210065E+02 -0.14136451102E+02  0.40118268785E+02  0.00000000000E+00 0. -1.
</event>
<event>
 7    1  0.2284751E-015  0.9000774E+02  0.7816164E-02  0.1186339E+00
        -11   -1    0    0    0    0  0.00000000000E+00  0.00000000000E+00  0.45593999997E+02  0.45594000000E+02  0.51100000000E-03 0. -1.
         11   -1    0    0    0    0 -0.00000000000E+00 -0.00000000000E+00 -0.45593999997E+02  0.45594000000E+02  0.51100000000E-03 0.  1.
    9900012    2    1    2    0    0  0.25027288708E+00 -0.83270227926E+00 -0.79810994914E+00  0.90007741937E+02  0.90000003331E+02 0.  0.
         12    1    1    2    0    0 -0.25027288708E+00  0.83270227926E+00  0.79810994914E+00  0.11802580628E+01  0.00000000000E+00 0. -1.
         11    1    3    3    0    0  0.77512191198E+01  0.29791484741E+01  0.49392839659E+01  0.96619485525E+01  0.51100000000E-03 0. -1.
        -11    1    3    3    0    0  0.16827545087E+02 -0.16368055770E+02 -0.33792356405E+02  0.41146116159E+02  0.51100000000E-03 0.  1.
         12    1    3    3    0    0 -0.24328491319E+02  0.12556205017E+02  0.28054962490E+02  0.39199677226E+02  0.00000000000E+00 0. -1.
</event>
<event>
 7    1  0.2284751E-015  0.9000780E+02  0.7816164E-02  0.1186339E+00
        -11   -1    0    0    0    0  0.00000000000E+00  0.00000000000E+00  0.45593999997E+02  0.45594000000E+02  0.51100000000E-03 0.  1.
         11   -1    0    0    0    0 -0.00000000000E+00 -0.00000000000E+00 -0.45593999997E+02  0.45594000000E+02  0.51100000000E-03 0. -1.
    9900012    2    1    2    0    0  0.15826011994E+00 -0.10574907174E+00  0.11647461614E+01  0.90007803935E+02  0.90000066147E+02 0.  0.
         12    1    1    2    0    0 -0.15826011994E+00  0.10574907174E+00 -0.11647461614E+01  0.11801960652E+01  0.00000000000E+00 0. -1.
         11    1    3    3    0    0  0.15011606841E+02  0.12011829360E+02 -0.37767063852E+02  0.42379045491E+02  0.51100000000E-03 0. -1.
        -11    1    3    3    0    0 -0.10116163010E+02  0.31721175175E+01  0.10051790881E+02  0.14609503200E+02  0.51100000000E-03 0.  1.
        -12    1    3    3    0    0 -0.47371837114E+01 -0.15289695949E+02  0.28880019132E+02  0.33019255243E+02  0.00000000000E+00 0.  1.
</event>
<event>
 7    1  0.2615173E-015  0.9000774E+02  0.7816164E-02  0.1186339E+00
        -11   -1    0    0    0    0  0.00000000000E+00  0.00000000000E+00  0.45593999997E+02  0.45594000000E+02  0.51100000000E-03 0.  1.
         11   -1    0    0    0    0 -0.00000000000E+00 -0.00000000000E+00 -0.45593999997E+02  0.45594000000E+02  0.51100000000E-03 0. -1.
    9900012    2    1    2    0    0  0.78361330893E+00  0.56460647697E-01  0.88078532530E+00  0.90007737143E+02  0.89999998473E+02 0.  0.
         12    1    1    2    0    0 -0.78361330893E+00 -0.56460647697E-01 -0.88078532530E+00  0.11802628571E+01  0.00000000000E+00 0. -1.
         11    1    3    3    0    0  0.39496250094E+01  0.40660556152E+01 -0.35804458370E+02  0.36250401175E+02  0.51100000000E-03 0. -1.
        -11    1    3    3    0    0  0.56631657604E+01 -0.51669313249E+01 -0.62608234839E+01  0.98978046406E+01  0.51100000000E-03 0.  1.
        -12    1    3    3    0    0 -0.88291774609E+01  0.11573363574E+01  0.42946067179E+02  0.43859531327E+02  0.00000000000E+00 0.  1.
</event>
<event>
 7    1  0.2284751E-015  0.9000776E+02  0.7816164E-02  0.1186339E+00
        -11   -1    0    0    0    0  0.00000000000E+00  0.00000000000E+00  0.45593999997E+02  0.45594000000E+02  0.51100000000E-03 0.  1.
         11   -1    0    0    0    0 -0.00000000000E+00 -0.00000000000E+00 -0.45593999997E+02  0.45594000000E+02  0.51100000000E-03 0. -1.
    9900012    2    1    2    0    0  0.10113471330E+01 -0.59005286425E+00 -0.14825400950E+00  0.90007760763E+02  0.90000022405E+02 0.  0.
         12    1    1    2    0    0 -0.10113471330E+01  0.59005286425E+00  0.14825400950E+00  0.11802392373E+01  0.00000000000E+00 0. -1.
         11    1    3    3    0    0  0.48662055689E+01  0.14953576071E+01 -0.11861478253E+02  0.12907777408E+02  0.51100000000E-03 0. -1.
        -11    1    3    3    0    0 -0.24751588960E+02 -0.15912480315E+02 -0.20812445754E+02  0.36041726988E+02  0.51100000000E-03 0.  1.
         12    1    3    3    0    0  0.20896730524E+02  0.13827069843E+02  0.32525669997E+02  0.41058256366E+02  0.00000000000E+00 0. -1.
</event>
<event>
 7    1  0.2284751E-015  0.9000771E+02  0.7816164E-02  0.1186339E+00
        -11   -1    0    0    0    0  0.00000000000E+00  0.00000000000E+00  0.45593999997E+02  0.45594000000E+02  0.51100000000E-03 0.  1.
         11   -1    0    0    0    0 -0.00000000000E+00 -0.00000000000E+00 -0.45593999997E+02  0.45594000000E+02  0.51100000000E-03 0. -1.
    9900012    2    1    2    0    0  0.11788452119E+01  0.41963980982E-01  0.40479163376E-01  0.90007713775E+02  0.89999974797E+02 0.  0.
         12    1    1    2    0    0 -0.11788452119E+01 -0.41963980982E-01 -0.40479163376E-01  0.11802862246E+01  0.00000000000E+00 0. -1.
         11    1    3    3    0    0 -0.28089482919E+02  0.20190215510E+02  0.30857560122E+01  0.34730184903E+02  0.51100000000E-03 0. -1.
        -11    1    3    3    0    0 -0.59293594133E+01  0.80257314164E+01 -0.20204498343E+01  0.10180957009E+02  0.51100000000E-03 0.  1.
        -12    1    3    3    0    0  0.35197687544E+02 -0.28173982945E+02 -0.10248270145E+01  0.45096571864E+02  0.00000000000E+00 0.  1.
</event>
<event>
 7    1  0.2284751E-015  0.9000791E+02  0.7816164E-02  0.1186339E+00
        -11   -1    0    0    0    0  0.00000000000E+00  0.00000000000E+00  0.45593999997E+02  0.45594000000E+02  0.51100000000E-03 0.  1.
         11   -1    0    0    0    0 -0.00000000000E+00 -0.00000000000E+00 -0.45593999997E+02  0.45594000000E+02  0.51100000000E-03 0. -1.
    9900012    2    1    2    0    0 -0.32561356536E+00 -0.10107298495E+01 -0.51480106509E+00  0.90007907140E+02  0.90000170714E+02 0.  0.
         12    1    1    2    0    0  0.32561356536E+00  0.10107298495E+01  0.51480106509E+00  0.11800928604E+01  0.00000000000E+00 0. -1.
         11    1    3    3    0    0 -0.16621709182E+01  0.15783481351E+02 -0.39256393736E+02  0.42343187706E+02  0.51100000000E-03 0. -1.
        -11    1    3    3    0    0  0.68183620765E+01 -0.65934065324E+01  0.27790606580E+01  0.98836354399E+01  0.51100000000E-03 0.  1.
        -12    1    3    3    0    0 -0.54818047237E+01 -0.10200804668E+02  0.35962532013E+02  0.37781083993E+02  0.00000000000E+00 0.  1.
</event>
<event>
 7    1  0.2284751E-015  0.9000772E+02  0.7816164E-02  0.1186339E+00
        -11   -1    0    0    0    0  0.00000000000E+00  0.00000000000E+00  0.45593999997E+02  0.45594000000E+02  0.51100000000E-03 0. -1.
         11   -1    0    0    0    0 -0.00000000000E+00 -0.00000000000E+00 -0.45593999997E+02  0.45594000000E+02  0.51100000000E-03 0.  1.
    9900012    2    1    2    0    0 -0.23743135190E+00 -0.10926345672E+01 -0.37794117590E+00  0.90007718899E+02  0.89999979989E+02 0.  0.
         12    1    1    2    0    0  0.23743135190E+00  0.10926345672E+01  0.37794117590E+00  0.11802811007E+01  0.00000000000E+00 0. -1.
         11    1    3    3    0    0 -0.44955386912E+01  0.73071188921E+01  0.60706934038E+01  0.10509860765E+02  0.51100000000E-03 0. -1.
        -11    1    3    3    0    0 -0.12027072226E+02 -0.39661514375E+02  0.64880055527E+01  0.41949736651E+02  0.51100000000E-03 0.  1.
         12    1    3    3    0    0  0.16285179565E+02  0.31261760915E+02 -0.12936640132E+02  0.37548121483E+02  0.00000000000E+00 0. -1.
</event>
<event>
 7    1  0.2284751E-015  0.9000774E+02  0.7816164E-02  0.1186339E+00
        -11   -1    0    0    0    0  0.00000000000E+00  0.00000000000E+00  0.45593999997E+02  0.45594000000E+02  0.51100000000E-03 0.  1.
         11   -1    0    0    0    0 -0.00000000000E+00 -0.00000000000E+00 -0.45593999997E+02  0.45594000000E+02  0.51100000000E-03 0. -1.
    9900012    2    1    2    0    0  0.26497949401E+00  0.32282398046E+00  0.11039002967E+01  0.90007735064E+02  0.89999996367E+02 0.  0.
         12    1    1    2    0    0 -0.26497949401E+00 -0.32282398046E+00 -0.11039002967E+01  0.11802649362E+01  0.00000000000E+00 0. -1.
         11    1    3    3    0    0  0.34880886752E+02  0.22837512359E+01  0.23543260339E+02  0.42144713642E+02  0.51100000000E-03 0. -1.
        -11    1    3    3    0    0 -0.21761468544E+01  0.80180461971E+01 -0.51264013467E+01  0.97624111252E+01  0.51100000000E-03 0.  1.
        -12    1    3    3    0    0 -0.32439760403E+02 -0.99789734525E+01 -0.17312958695E+02  0.38100610297E+02  0.00000000000E+00 0.  1.
</event>
<event>
 7    1  0.2284751E-015  0.9000742E+02  0.7816164E-02  0.1186340E+00
        -11   -1    0    0    0    0  0.00000000000E+00  0.00000000000E+00  0.45593999997E+02  0.45594000000E+02  0.51100000000E-03 0.  1.
         11   -1    0    0    0    0 -0.00000000000E+00 -0.00000000000E+00 -0.45593999997E+02  0.45594000000E+02  0.51100000000E-03 0. -1.
    9900012    2    1    2    0    0 -0.51517625274E+00 -0.74760492974E+00  0.75461424382E+00  0.90007422870E+02  0.89999680052E+02 0.  0.
         12    1    1    2    0    0  0.51517625274E+00  0.74760492974E+00 -0.75461424382E+00  0.11805771298E+01  0.00000000000E+00 0. -1.
         11    1    3    3    0    0 -0.10365954848E+02 -0.76278858147E-01 -0.19129058246E+01  0.10541254542E+02  0.51100000000E-03 0. -1.
        -11    1    3    3    0    0 -0.77334105004E+01 -0.25335051789E+02 -0.26461945482E+02  0.37442022463E+02  0.51100000000E-03 0.  1.
         12    1    3    3    0    0  0.17584189095E+02  0.24663725718E+02  0.29129465551E+02  0.42024145865E+02  0.00000000000E+00 0. -1.
</event>
<event>
 7    1  0.2284751E-015  0.9000775E+02  0.7816164E-02  0.1186339E+00
        -11   -1    0    0    0    0  0.00000000000E+00  0.00000000000E+00  0.45593999997E+02  0.45594000000E+02  0.51100000000E-03 0.  1.
         11   -1    0    0    0    0 -0.00000000000E+00 -0.00000000000E+00 -0.45593999997E+02  0.45594000000E+02  0.51100000000E-03 0. -1.
    9900012    2    1    2    0    0  0.12556665439E+00  0.65890549273E+00  0.97111915122E+00  0.90007747553E+02  0.90000009021E+02 0.  0.
         12    1    1    2    0    0 -0.12556665439E+00 -0.65890549273E+00 -0.97111915122E+00  0.11802524471E+01  0.00000000000E+00 0. -1.
         11    1    3    3    0    0  0.26649546809E+02 -0.17321432481E+02  0.69621962598E+01  0.32537709589E+02  0.51100000000E-03 0. -1.
        -11    1    3    3    0    0  0.98829911151E+01 -0.65736105628E+01 -0.65429041049E+01  0.13553429957E+02  0.51100000000E-03 0.  1.
        -12    1    3    3    0    0 -0.36406971270E+02  0.24553948536E+02  0.55182699636E+00  0.43916608006E+02  0.00000000000E+00 0.  1.
</event>
<event>
 7    1  0.2284751E-015  0.9000778E+02  0.7816164E-02  0.1186339E+00
        -11   -1    0    0    0    0  0.00000000000E+00  0.00000000000E+00  0.45593999997E+02  0.45594000000E+02  0.51100000000E-03 0.  1.
         11   -1    0    0    0    0 -0.00000000000E+00 -0.00000000000E+00 -0.45593999997E+02  0.45594000000E+02  0.51100000000E-03 0. -1.
    9900012    2    1    2    0    0 -0.39941660683E+00 -0.36232331496E+00  0.10498101897E+01  0.90007782543E+02  0.90000044473E+02 0.  0.
         12    1    1    2    0    0  0.39941660683E+00  0.36232331496E+00 -0.10498101897E+01  0.11802174565E+01  0.00000000000E+00 0. -1.
         11    1    3    3    0    0 -0.22967892986E+02 -0.24712813576E+02 -0.15222720603E+02  0.37013220420E+02  0.51100000000E-03 0. -1.
        -11    1    3    3    0    0 -0.81171858289E+01 -0.29704764145E+01 -0.40442661803E+00  0.86530917631E+01  0.51100000000E-03 0.  1.
        -12    1    3    3    0    0  0.30685662208E+02  0.27320966676E+02  0.16676957410E+02  0.44341470360E+02  0.00000000000E+00 0.  1.
</event>
<event>
 7    1  0.2284751E-015  0.9000773E+02  0.7816164E-02  0.1186339E+00
        -11   -1    0    0    0    0  0.00000000000E+00  0.00000000000E+00  0.45593999997E+02  0.45594000000E+02  0.51100000000E-03 0.  1.
         11   -1    0    0    0    0 -0.00000000000E+00 -0.00000000000E+00 -0.45593999997E+02  0.45594000000E+02  0.51100000000E-03 0. -1.
    9900012    2    1    2    0    0  0.36482194425E+00  0.52252010884E+00  0.99343111740E+00  0.90007734055E+02  0.89999995345E+02 0.  0.
         12    1    1    2    0    0 -0.36482194425E+00 -0.52252010884E+00 -0.99343111740E+00  0.11802659447E+01  0.00000000000E+00 0. -1.
         11    1    3    3    0    0 -0.44194718733E+01 -0.57420638036E+01  0.71608452122E+01  0.10187282895E+02  0.51100000000E-03 0. -1.
        -11    1    3    3    0    0  0.57926550420E+01 -0.18489357232E+02  0.30161179448E+02  0.35848402046E+02  0.51100000000E-03 0.  1.
         12    1    3    3    0    0 -0.10083612245E+01  0.24753941144E+02 -0.36328593543E+02  0.43972049115E+02  0.00000000000E+00 0. -1.
</event>
<event>
 7    1  0.2284751E-015  0.9000773E+02  0.7816164E-02  0.1186339E+00
        -11   -1    0    0    0    0  0.00000000000E+00  0.00000000000E+00  0.45593999997E+02  0.45594000000E+02  0.51100000000E-03 0. -1.
         11   -1    0    0    0    0 -0.00000000000E+00 -0.00000000000E+00 -0.45593999997E+02  0.45594000000E+02  0.51100000000E-03 0.  1.
    9900012    2    1    2    0    0  0.80310470581E+00  0.71431089028E+00 -0.48765784089E+00  0.90007734188E+02  0.89999995480E+02 0.  0.
         12    1    1    2    0    0 -0.80310470581E+00 -0.71431089028E+00  0.48765784089E+00  0.11802658117E+01  0.00000000000E+00 0. -1.
         11    1    3    3    0    0  0.68666787913E+00  0.71964128276E+01 -0.76132322199E+01  0.10498627313E+02  0.51100000000E-03 0. -1.
        -11    1    3    3    0    0 -0.27324120885E+02  0.44298925637E+01 -0.23976392745E+02  0.36621017730E+02  0.51100000000E-03 0.  1.
         12    1    3    3    0    0  0.27440557712E+02 -0.10911994501E+02  0.31101967124E+02  0.42888089145E+02  0.00000000000E+00 0. -1.
</event>
<event>
 7    1  0.2284751E-015  0.9000766E+02  0.7816164E-02  0.1186339E+00
        -11   -1    0    0    0    0  0.00000000000E+00  0.00000000000E+00  0.45593999997E+02  0.45594000000E+02  0.51100000000E-03 0. -1.
         11   -1    0    0    0    0 -0.00000000000E+00 -0.00000000000E+00 -0.45593999997E+02  0.45594000000E+02  0.51100000000E-03 0.  1.
    9900012    2    1    2    0    0 -0.97048974754E+00 -0.53325829253E+00  0.40864037012E+00  0.90007660342E+02  0.89999920658E+02 0.  0.
         12    1    1    2    0    0  0.97048974754E+00  0.53325829253E+00 -0.40864037012E+00  0.11803396582E+01  0.00000000000E+00 0. -1.
         11    1    3    3    0    0 -0.49255285975E+00  0.19349728815E+01 -0.12897137642E+02  0.13050781126E+02  0.51100000000E-03 0. -1.
        -11    1    3    3    0    0  0.29911499103E+02  0.90847267892E+01 -0.14234270319E+02  0.34348864482E+02  0.51100000000E-03 0.  1.
         12    1    3    3    0    0 -0.30389435991E+02 -0.11552957963E+02  0.27540048331E+02  0.42608014734E+02  0.00000000000E+00 0. -1.
</event>
<event>
 7    1  0.2284751E-015  0.9000778E+02  0.7816164E-02  0.1186339E+00
        -11   -1    0    0    0    0  0.00000000000E+00  0.00000000000E+00  0.45593999997E+02  0.45594000000E+02  0.51100000000E-03 0.  1.
         11   -1    0    0    0    0 -0.00000000000E+00 -0.00000000000E+00 -0.45593999997E+02  0.45594000000E+02  0.51100000000E-03 0. -1.
    9900012    2    1    2    0    0  0.84892932397E+00 -0.21168523686E+00  0.79210898235E+00  0.90007776175E+02  0.90000038021E+02 0.  0.
         12    1    1    2    0    0 -0.84892932397E+00  0.21168523686E+00 -0.79210898235E+00  0.11802238248E+01  0.00000000000E+00 0. -1.
         11    1    3    3    0    0 -0.10096683072E+02  0.26294866770E+02 -0.14492829479E+02  0.31676570743E+02  0.51100000000E-03 0. -1.
        -11    1    3    3    0    0  0.18823912552E+02  0.67059814526E+01 -0.19774124368E+01  0.20080339420E+02  0.51100000000E-03 0.  1.
        -12    1    3    3    0    0 -0.78783001568E+01 -0.33212533459E+02  0.17262350898E+02  0.38250866012E+02  0.00000000000E+00 0.  1.
</event>
<event>
 7    1  0.2284751E-015  0.9000774E+02  0.7816164E-02  0.1186339E+00
        -11   -1    0    0    0    0  0.00000000000E+00  0.00000000000E+00  0.45593999997E+02  0.45594000000E+02  0.51100000000E-03 0.  1.
         11   -1    0    0    0    0 -0.00000000000E+00 -0.00000000000E+00 -0.45593999997E+02  0.45594000000E+02  0.51100000000E-03 0. -1.
    9900012    2    1    2    0    0  0.91084314824E+00  0.48302018367E+00  0.57451278520E+00  0.90007742113E+02  0.90000003509E+02 0.  0.
         12    1    1    2    0    0 -0.91084314824E+00 -0.48302018367E+00 -0.57451278520E+00  0.11802578866E+01  0.00000000000E+00 0. -1.
         11    1    3    3    0    0  0.67767595794E+01  0.26216130223E+01  0.80098787476E+01  0.10814595834E+02  0.51100000000E-03 0. -1.
        -11    1    3    3    0    0  0.23617947078E+02 -0.22642048330E+02  0.15888114257E+02  0.36371719119E+02  0.51100000000E-03 0.  1.
         12    1    3    3    0    0 -0.29483863510E+02  0.20503455491E+02 -0.23323480220E+02  0.42821427161E+02  0.00000000000E+00 0. -1.
</event>
<event>
 7    1  0.2284751E-015  0.9000774E+02  0.7816164E-02  0.1186339E+00
        -11   -1    0    0    0    0  0.00000000000E+00  0.00000000000E+00  0.45593999997E+02  0.45594000000E+02  0.51100000000E-03 0. -1.
         11   -1    0    0    0    0 -0.00000000000E+00 -0.00000000000E+00 -0.45593999997E+02  0.45594000000E+02  0.51100000000E-03 0.  1.
    9900012    2    1    2    0    0  0.99355878951E+00 -0.62550308863E+00 -0.12084339661E+00  0.90007738881E+02  0.90000000234E+02 0.  0.
         12    1    1    2    0    0 -0.99355878951E+00  0.62550308863E+00  0.12084339661E+00  0.11802611188E+01  0.00000000000E+00 0. -1.
         11    1    3    3    0    0 -0.97666382275E+01 -0.41271702913E+02 -0.81499943116E+01  0.43187533979E+02  0.51100000000E-03 0. -1.
        -11    1    3    3    0    0  0.41846774223E+01  0.60697115825E+01 -0.54111263873E+01  0.91451196200E+01  0.51100000000E-03 0.  1.
        -12    1    3    3    0    0  0.65755195947E+01  0.34576488242E+02  0.13440277302E+02  0.37675085283E+02  0.00000000000E+00 0.  1.
</event>
<event>
 7    1  0.2284751E-015  0.9000771E+02  0.7816164E-02  0.1186339E+00
        -11   -1    0    0    0    0  0.00000000000E+00  0.00000000000E+00  0.45593999997E+02  0.45594000000E+02  0.51100000000E-03 0.  1.
         11   -1    0    0    0    0 -0.00000000000E+00 -0.00000000000E+00 -0.45593999997E+02  0.45594000000E+02  0.51100000000E-03 0. -1.
    9900012    2    1    2    0    0  0.14607238427E+00  0.11699196554E+01 -0.55111786182E-01  0.90007709167E+02  0.89999970128E+02 0.  0.
         12    1    1    2    0    0 -0.14607238427E+00 -0.11699196554E+01  0.55111786182E-01  0.11802908330E+01  0.00000000000E+00 0. -1.
         11    1    3    3    0    0 -0.14359276442E+02 -0.23995265816E+02 -0.21111090890E+02  0.35037690568E+02  0.51100000000E-03 0. -1.
        -11    1    3    3    0    0 -0.85041501116E+01 -0.28274868833E+01 -0.50712469261E+01  0.10297222773E+02  0.51100000000E-03 0.  1.
        -12    1    3    3    0    0  0.23009498938E+02  0.27992672354E+02  0.26127226030E+02  0.44672795826E+02  0.00000000000E+00 0.  1.
</event>
<event>
 7    1  0.2284751E-015  0.9000769E+02  0.7816164E-02  0.1186339E+00
        -11   -1    0    0    0    0  0.00000000000E+00  0.00000000000E+00  0.45593999997E+02  0.45594000000E+02  0.51100000000E-03 0. -1.
         11   -1    0    0    0    0 -0.00000000000E+00 -0.00000000000E+00 -0.45593999997E+02  0.45594000000E+02  0.51100000000E-03 0.  1.
    9900012    2    1    2    0    0 -0.98242696110E+00 -0.58322461800E+00 -0.29633978101E+00  0.90007690314E+02  0.89999951026E+02 0.  0.
         12    1    1    2    0    0  0.98242696110E+00  0.58322461800E+00  0.29633978101E+00  0.11803096859E+01  0.00000000000E+00 0. -1.
         11    1    3    3    0    0 -0.18351049021E+02  0.29936593756E+02  0.12043896043E+02  0.37121638946E+02  0.51100000000E-03 0. -1.
        -11    1    3    3    0    0 -0.28428881728E+01 -0.15304805018E+00  0.98065101728E+01  0.10211419044E+02  0.51100000000E-03 0.  1.
        -12    1    3    3    0    0  0.20211510233E+02 -0.30366770323E+02 -0.22146745996E+02  0.42674632324E+02  0.00000000000E+00 0.  1.
</event>
<event>
 7    1  0.2284751E-015  0.9000822E+02  0.7816164E-02  0.1186338E+00
        -11   -1    0    0    0    0  0.00000000000E+00  0.00000000000E+00  0.45593999997E+02  0.45594000000E+02  0.51100000000E-03 0.  1.
         11   -1    0    0    0    0 -0.00000000000E+00 -0.00000000000E+00 -0.45593999997E+02  0.45594000000E+02  0.51100000000E-03 0. -1.
    9900012    2    1    2    0    0  0.90698853271E+00 -0.47909297951E+00  0.58286240792E+00  0.90008217449E+02  0.90000485118E+02 0.  0.
         12    1    1    2    0    0 -0.90698853271E+00  0.47909297951E+00 -0.58286240792E+00  0.11797825512E+01  0.00000000000E+00 0. -1.
         11    1    3    3    0    0  0.10849154735E+02 -0.27635709010E+02 -0.25860070235E+02  0.39372322814E+02  0.51100000000E-03 0. -1.
        -11    1    3    3    0    0 -0.11191481832E+02 -0.28993697890E+01  0.16996037906E+01  0.11685215619E+02  0.51100000000E-03 0.  1.
        -12    1    3    3    0    0  0.12493156292E+01  0.30055985819E+02  0.24743328852E+02  0.38950679016E+02  0.00000000000E+00 0.  1.
</event>
<event>
 7    1  0.2284751E-015  0.9000774E+02  0.7816164E-02  0.1186339E+00
        -11   -1    0    0    0    0  0.00000000000E+00  0.00000000000E+00  0.45593999997E+02  0.45594000000E+02  0.51100000000E-03 0. -1.
         11   -1    0    0    0    0 -0.00000000000E+00 -0.00000000000E+00 -0.45593999997E+02  0.45594000000E+02  0.51100000000E-03 0.  1.
    9900012    2    1    2    0    0  0.36900013473E+00 -0.99309262475E+00 -0.52021819185E+00  0.90007736882E+02  0.89999998209E+02 0.  0.
         12    1    1    2    0    0 -0.36900013473E+00  0.99309262475E+00  0.52021819185E+00  0.11802631181E+01  0.00000000000E+00 0. -1.
         11    1    3    3    0    0 -0.27658878503E+02  0.27171093894E+02  0.98422922342E+01  0.40001907706E+02  0.51100000000E-03 0. -1.
        -11    1    3    3    0    0  0.68276065498E+01 -0.31643985381E+01  0.91593374429E+01  0.11854243627E+02  0.51100000000E-03 0.  1.
        -12    1    3    3    0    0  0.21200272088E+02 -0.24999787981E+02 -0.19521847869E+02  0.38151585549E+02  0.00000000000E+00 0.  1.
</event>
<event>
 7    1  0.2284751E-015  0.9000780E+02  0.7816164E-02  0.1186339E+00
        -11   -1    0    0    0    0  0.00000000000E+00  0.00000000000E+00  0.45593999997E+02  0.45594000000E+02  0.51100000000E-03 0. -1.
         11   -1    0    0    0    0 -0.00000000000E+00 -0.00000000000E+00 -0.45593999997E+02  0.45594000000E+02  0.51100000000E-03 0.  1.
    9900012    2    1    2    0    0 -0.56838435612E-01 -0.10989921018E+01  0.42643754195E+00  0.90007803735E+02  0.90000065944E+02 0.  0.
         12    1    1    2    0    0  0.56838435612E-01  0.10989921018E+01 -0.42643754195E+00  0.11801962653E+01  0.00000000000E+00 0. -1.
         11    1    3    3    0    0  0.19507088677E+01 -0.36344097429E+01 -0.12109365068E+02  0.12792612004E+02  0.51100000000E-03 0. -1.
        -11    1    3    3    0    0 -0.21514151076E+02  0.26264276368E+01 -0.26105014471E+02  0.33929759790E+02  0.51100000000E-03 0.  1.
         12    1    3    3    0    0  0.19506603772E+02 -0.91009995662E-01  0.38640817081E+02  0.43285431940E+02  0.00000000000E+00 0. -1.
</event>
<event>
 7    1  0.2284751E-015  0.9000775E+02  0.7816164E-02  0.1186339E+00
        -11   -1    0    0    0    0  0.00000000000E+00  0.00000000000E+00  0.45593999997E+02  0.45594000000E+02  0.51100000000E-03 0. -1.
         11   -1    0    0    0    0 -0.00000000000E+00 -0.00000000000E+00 -0.45593999997E+02  0.45594000000E+02  0.51100000000E-03 0.  1.
    9900012    2    1    2    0    0  0.57740094440E+00  0.94954952756E+00 -0.39742342428E+00  0.90007753613E+02  0.90000015161E+02 0.  0.
         12    1    1    2    0    0 -0.57740094440E+00 -0.94954952756E+00  0.39742342428E+00  0.11802463870E+01  0.00000000000E+00 0. -1.
         11    1    3    3    0    0  0.49186950609E+01 -0.57819979733E+01 -0.26795212950E+01  0.80501488369E+01  0.51100000000E-03 0. -1.
        -11    1    3    3    0    0  0.22351299497E+02  0.26253024379E+02 -0.22027294337E+02  0.40914588771E+02  0.51100000000E-03 0.  1.
         12    1    3    3    0    0 -0.26692593613E+02 -0.19521476878E+02  0.24309392207E+02  0.41043016005E+02  0.00000000000E+00 0. -1.
</event>
<event>
 7    1  0.2284751E-015  0.9000769E+02  0.7816164E-02  0.1186339E+00
        -11   -1    0    0    0    0  0.00000000000E+00  0.00000000000E+00  0.45593999997E+02  0.45594000000E+02  0.51100000000E-03 0. -1.
         11   -1    0    0    0    0 -0.00000000000E+00 -0.00000000000E+00 -0.45593999997E+02  0.45594000000E+02  0.51100000000E-03 0.  1.
    9900012    2    1    2    0    0  0.63953520568E+00 -0.87069315563E+00 -0.47541956608E+00  0.90007688340E+02  0.89999949026E+02 0.  0.
         12    1    1    2    0    0 -0.63953520568E+00  0.87069315563E+00  0.47541956608E+00  0.11803116598E+01  0.00000000000E+00 0. -1.
         11    1    3    3    0    0 -0.55552743200E+01 -0.70412740412E+00  0.42407595764E+02  0.42775706270E+02  0.51100000000E-03 0. -1.
        -11    1    3    3    0    0  0.77059480759E+01 -0.24628078450E+01 -0.55796897844E+01  0.98275122274E+01  0.51100000000E-03 0.  1.
        -12    1    3    3    0    0 -0.15111385503E+01  0.22962420935E+01 -0.37303325545E+02  0.37404469843E+02  0.00000000000E+00 0.  1.
</event>
<event>
 7    1  0.2284751E-015  0.9000773E+02  0.7816164E-02  0.1186339E+00
        -11   -1    0    0    0    0  0.00000000000E+00  0.00000000000E+00  0.45593999997E+02  0.45594000000E+02  0.51100000000E-03 0.  1.
         11   -1    0    0    0    0 -0.00000000000E+00 -0.00000000000E+00 -0.45593999997E+02  0.45594000000E+02  0.51100000000E-03 0. -1.
    9900012    2    1    2    0    0 -0.26879501372E+00  0.11434199349E+01  0.11569879797E+00  0.90007726253E+02  0.89999987439E+02 0.  0.
         12    1    1    2    0    0  0.26879501372E+00 -0.11434199349E+01 -0.11569879797E+00  0.11802737474E+01  0.00000000000E+00 0. -1.
         11    1    3    3    0    0  0.90802410919E+01  0.41586898518E+01  0.33441174669E+00  0.99928630056E+01  0.51100000000E-03 0. -1.
        -11    1    3    3    0    0  0.12370680194E+02  0.18401196654E+02  0.29849474329E+02  0.37183718006E+02  0.51100000000E-03 0.  1.
         12    1    3    3    0    0 -0.21719716300E+02 -0.21416466571E+02 -0.30068187277E+02  0.42831145241E+02  0.00000000000E+00 0. -1.
</event>
<event>
 7    1  0.3286477E-015  0.9000776E+02  0.7816164E-02  0.1186339E+00
        -11   -1    0    0    0    0  0.00000000000E+00  0.00000000000E+00  0.45593999997E+02  0.45594000000E+02  0.51100000000E-03 0.  1.
         11   -1    0    0    0    0 -0.00000000000E+00 -0.00000000000E+00 -0.45593999997E+02  0.45594000000E+02  0.51100000000E-03 0. -1.
    9900012    2    1    2    0    0 -0.58778560256E+00  0.37903970887E-01  0.10227580676E+01  0.90007761596E+02  0.90000023249E+02 0.  0.
         12    1    1    2    0    0  0.58778560256E+00 -0.37903970887E-01 -0.10227580676E+01  0.11802384041E+01  0.00000000000E+00 0. -1.
         11    1    3    3    0    0  0.11652347426E+02  0.20626020208E+02 -0.27940780454E+02  0.36631913993E+02  0.51100000000E-03 0. -1.
        -11    1    3    3    0    0 -0.35902746368E+01  0.70564011589E+01 -0.45081772021E+01  0.91107920199E+01  0.51100000000E-03 0.  1.
        -12    1    3    3    0    0 -0.86498583915E+01 -0.27644517396E+02  0.33471715724E+02  0.44265055583E+02  0.00000000000E+00 0.  1.
</event>
<event>
 7    1  0.2284751E-015  0.9000774E+02  0.7816164E-02  0.1186339E+00
        -11   -1    0    0    0    0  0.00000000000E+00  0.00000000000E+00  0.45593999997E+02  0.45594000000E+02  0.51100000000E-03 0. -1.
         11   -1    0    0    0    0 -0.00000000000E+00 -0.00000000000E+00 -0.45593999997E+02  0.45594000000E+02  0.51100000000E-03 0.  1.
    9900012    2    1    2    0    0 -0.20671026626E-01 -0.12113366715E+00 -0.11738465558E+01  0.90007738845E+02  0.90000000198E+02 0.  0.
         12    1    1    2    0    0  0.20671026626E-01  0.12113366715E+00  0.11738465558E+01  0.11802611547E+01  0.00000000000E+00 0. -1.
         11    1    3    3    0    0 -0.25438365998E+02  0.25417011367E+02 -0.22096280322E+02  0.42206403967E+02  0.51100000000E-03 0. -1.
        -11    1    3    3    0    0  0.72322118708E+01 -0.10233840146E+01 -0.40607413746E+01  0.83571421047E+01  0.51100000000E-03 0.  1.
        -12    1    3    3    0    0  0.18185483100E+02 -0.24514761020E+02  0.24983175141E+02  0.39444192774E+02  0.00000000000E+00 0.  1.
</event>
<event>
 7    1  0.2284751E-015  0.9000770E+02  0.7816164E-02  0.1186339E+00
        -11   -1    0    0    0    0  0.00000000000E+00  0.00000000000E+00  0.45593999997E+02  0.45594000000E+02  0.51100000000E-03 0.  1.
         11   -1    0    0    0    0 -0.00000000000E+00 -0.00000000000E+00 -0.45593999997E+02  0.45594000000E+02  0.51100000000E-03 0. -1.
    9900012    2    1    2    0    0 -0.78861451417E+00 -0.78800042705E+00 -0.38763393224E+00  0.90007695975E+02  0.89999956762E+02 0.  0.
         12    1    1    2    0    0  0.78861451417E+00  0.78800042705E+00  0.38763393224E+00  0.11803040246E+01  0.00000000000E+00 0. -1.
         11    1    3    3    0    0  0.20587973955E+02  0.25733380995E+02 -0.14730921013E+02  0.36098083095E+02  0.51100000000E-03 0. -1.
        -11    1    3    3    0    0  0.19430225591E+01  0.34036629216E+01 -0.86856443919E+01  0.95289389080E+01  0.51100000000E-03 0.  1.
        -12    1    3    3    0    0 -0.23319611028E+02 -0.29925044343E+02  0.23028931473E+02  0.44380673972E+02  0.00000000000E+00 0.  1.
</event>
<event>
 7    1  0.2284751E-015  0.9000785E+02  0.7816164E-02  0.1186339E+00
        -11   -1    0    0    0    0  0.00000000000E+00  0.00000000000E+00  0.45593999997E+02  0.45594000000E+02  0.51100000000E-03 0. -1.
         11   -1    0    0    0    0 -0.00000000000E+00 -0.00000000000E+00 -0.45593999997E+02  0.45594000000E+02  0.51100000000E-03 0.  1.
    9900012    2    1    2    0    0 -0.32937618197E+00 -0.10909229235E+01 -0.30683713429E+00  0.90007851483E+02  0.90000114323E+02 0.  0.
         12    1    1    2    0    0  0.32937618197E+00  0.10909229235E+01  0.30683713429E+00  0.11801485166E+01  0.00000000000E+00 0. -1.
         11    1    3    3    0    0  0.51947811934E+01 -0.25009949596E+00 -0.63343794900E+01  0.81958931905E+01  0.51100000000E-03 0. -1.
        -11    1    3    3    0    0  0.25300560554E+02 -0.29939823942E+02  0.31193985088E+01  0.39322284641E+02  0.51100000000E-03 0.  1.
         12    1    3    3    0    0 -0.30824717930E+02  0.29099000515E+02  0.29081438469E+01  0.42489673652E+02  0.00000000000E+00 0. -1.
</event>
<event>
 7    1  0.2284751E-015  0.9000776E+02  0.7816164E-02  0.1186339E+00
        -11   -1    0    0    0    0  0.00000000000E+00  0.00000000000E+00  0.45593999997E+02  0.45594000000E+02  0.51100000000E-03 0. -1.
         11   -1    0    0    0    0 -0.00000000000E+00 -0.00000000000E+00 -0.45593999997E+02  0.45594000000E+02  0.51100000000E-03 0.  1.
    9900012    2    1    2    0    0 -0.37552832567E+00  0.99684101277E+00 -0.50818785416E+00  0.90007759167E+02  0.90000020788E+02 0.  0.
         12    1    1    2    0    0  0.37552832567E+00 -0.99684101277E+00  0.50818785416E+00  0.11802408327E+01  0.00000000000E+00 0. -1.
         11    1    3    3    0    0  0.35223412078E+02  0.82196929143E+01  0.91916616163E+01  0.37319415236E+02  0.51100000000E-03 0. -1.
        -11    1    3    3    0    0  0.75852329734E+01 -0.15793871044E+01 -0.41367649959E+01  0.87831115090E+01  0.51100000000E-03 0.  1.
        -12    1    3    3    0    0 -0.43184173377E+02 -0.56434647971E+01 -0.55630844746E+01  0.43905232422E+02  0.00000000000E+00 0.  1.
</event>
<event>
 7    1  0.2284751E-015  0.9000775E+02  0.7816164E-02  0.1186339E+00
        -11   -1    0    0    0    0  0.00000000000E+00  0.00000000000E+00  0.45593999997E+02  0.45594000000E+02  0.51100000000E-03 0. -1.
         11   -1    0    0    0    0 -0.00000000000E+00 -0.00000000000E+00 -0.45593999997E+02  0.45594000000E+02  0.51100000000E-03 0.  1.
    9900012    2    1    2    0    0  0.83937773715E+00  0.80626671627E-01 -0.82579162968E+00  0.90007751102E+02  0.90000012616E+02 0.  0.
         12    1    1    2    0    0 -0.83937773715E+00 -0.80626671627E-01  0.82579162968E+00  0.11802488981E+01  0.00000000000E+00 0. -1.
         11    1    3    3    0    0  0.62957535669E+01  0.93079733663E+00 -0.76214684249E+01  0.99292334986E+01  0.51100000000E-03 0. -1.
        -11    1    3    3    0    0 -0.27565105162E+02  0.29102116739E+02 -0.63769701102E+01  0.40588594079E+02  0.51100000000E-03 0.  1.
         12    1    3    3    0    0  0.22108729332E+02 -0.29952287404E+02  0.13172646905E+02  0.39489923524E+02  0.00000000000E+00 0. -1.
</event>
<event>
 7    1  0.2284751E-015  0.9000778E+02  0.7816164E-02  0.1186339E+00
        -11   -1    0    0    0    0  0.00000000000E+00  0.00000000000E+00  0.45593999997E+02  0.45594000000E+02  0.51100000000E-03 0.  1.
         11   -1    0    0    0    0 -0.00000000000E+00 -0.00000000000E+00 -0.45593999997E+02  0.45594000000E+02  0.51100000000E-03 0. -1.
    9900012    2    1    2    0    0  0.64035233839E+00 -0.81627144598E+00 -0.56263621707E+00  0.90007784044E+02  0.90000045993E+02 0.  0.
         12    1    1    2    0    0 -0.64035233839E+00  0.81627144598E+00  0.56263621707E+00  0.11802159563E+01  0.00000000000E+00 0. -1.
         11    1    3    3    0    0 -0.69719732747E+01 -0.16135439792E+02  0.12400484483E+02  0.21511226006E+02  0.51100000000E-03 0. -1.
        -11    1    3    3    0    0  0.33297711344E+02  0.36765841935E+01  0.66398526293E+01  0.34151756841E+02  0.51100000000E-03 0.  1.
         12    1    3    3    0    0 -0.25685385731E+02  0.11642584152E+02 -0.19602973329E+02  0.34344801197E+02  0.00000000000E+00 0. -1.
</event>
<event>
 7    1  0.2284751E-015  0.9000773E+02  0.7816164E-02  0.1186339E+00
        -11   -1    0    0    0    0  0.00000000000E+00  0.00000000000E+00  0.45593999997E+02  0.45594000000E+02  0.51100000000E-03 0. -1.
         11   -1    0    0    0    0 -0.00000000000E+00 -0.00000000000E+00 -0.45593999997E+02  0.45594000000E+02  0.51100000000E-03 0.  1.
    9900012    2    1    2    0    0 -0.18224721489E+00  0.90582572405E+00 -0.73437484588E+00  0.90007728547E+02  0.89999989763E+02 0.  0.
         12    1    1    2    0    0  0.18224721489E+00 -0.90582572405E+00  0.73437484588E+00  0.11802714535E+01  0.00000000000E+00 0. -1.
         11    1    3    3    0    0  0.20389761081E+00  0.96517108140E+01 -0.16078803815E+00  0.96552032048E+01  0.51100000000E-03 0. -1.
        -11    1    3    3    0    0 -0.32155518696E+02 -0.47150744958E+01 -0.24230597841E+02  0.40538021437E+02  0.51100000000E-03 0.  1.
         12    1    3    3    0    0  0.31769373870E+02 -0.40308105941E+01  0.23657011033E+02  0.39814503904E+02  0.00000000000E+00 0. -1.
</event>
<event>
 7    1  0.2284751E-015  0.9000778E+02  0.7816164E-02  0.1186339E+00
        -11   -1    0    0    0    0  0.00000000000E+00  0.00000000000E+00  0.45593999997E+02  0.45594000000E+02  0.51100000000E-03 0.  1.
         11   -1    0    0    0    0 -0.00000000000E+00 -0.00000000000E+00 -0.45593999997E+02  0.45594000000E+02  0.51100000000E-03 0. -1.
    9900012    2    1    2    0    0  0.58082517483E+00 -0.91482710686E+00 -0.46761144434E+00  0.90007776724E+02  0.90000038576E+02 0.  0.
         12    1    1    2    0    0 -0.58082517483E+00  0.91482710686E+00  0.46761144434E+00  0.11802232764E+01  0.00000000000E+00 0. -1.
         11    1    3    3    0    0 -0.40282911281E+00  0.13695711983E+01  0.89192628919E+01  0.90327873526E+01  0.51100000000E-03 0. -1.
        -11    1    3    3    0    0 -0.42473029371E+01 -0.24471862347E+00  0.35492103369E+02  0.35746172820E+02  0.51100000000E-03 0.  1.
         12    1    3    3    0    0  0.52309572248E+01 -0.20396796817E+01 -0.44878977706E+02  0.45228816551E+02  0.00000000000E+00 0. -1.
</event>
<event>
 7    1  0.2284751E-015  0.9000763E+02  0.7816164E-02  0.1186339E+00
        -11   -1    0    0    0    0  0.00000000000E+00  0.00000000000E+00  0.45593999997E+02  0.45594000000E+02  0.51100000000E-03 0.  1.
         11   -1    0    0    0    0 -0.00000000000E+00 -0.00000000000E+00 -0.45593999997E+02  0.45594000000E+02  0.51100000000E-03 0. -1.
    9900012    2    1    2    0    0 -0.51263302684E+00 -0.59297649137E+00  0.88253547616E+00  0.90007626074E+02  0.89999885938E+02 0.  0.
         12    1    1    2    0    0  0.51263302684E+00  0.59297649137E+00 -0.88253547616E+00  0.11803739264E+01  0.00000000000E+00 0. -1.
         11    1    3    3    0    0 -0.99461838546E+01  0.23248018378E+02  0.23557095615E+02  0.34559133176E+02  0.51100000000E-03 0. -1.
        -11    1    3    3    0    0 -0.13706167716E+01  0.12183651775E+02 -0.16785812499E+01  0.12374877623E+02  0.51100000000E-03 0.  1.
        -12    1    3    3    0    0  0.10804167599E+02 -0.36024646644E+02 -0.20995978889E+02  0.43073615275E+02  0.00000000000E+00 0.  1.
</event>
<event>
 7    1  0.2284751E-015  0.9000766E+02  0.7816164E-02  0.1186339E+00
        -11   -1    0    0    0    0  0.00000000000E+00  0.00000000000E+00  0.45593999997E+02  0.45594000000E+02  0.51100000000E-03 0. -1.
         11   -1    0    0    0    0 -0.00000000000E+00 -0.00000000000E+00 -0.45593999997E+02  0.45594000000E+02  0.51100000000E-03 0.  1.
    9900012    2    1    2    0    0 -0.75644554893E+00 -0.55074897999E+00 -0.71949393597E+00  0.90007658595E+02  0.89999918889E+02 0.  0.
         12    1    1    2    0    0  0.75644554893E+00  0.55074897999E+00  0.71949393597E+00  0.11803414046E+01  0.00000000000E+00 0. -1.
         11    1    3    3    0    0  0.23019549257E+01  0.51358901948E+01  0.68553370415E+01  0.88697243918E+01  0.51100000000E-03 0. -1.
        -11    1    3    3    0    0  0.25679044247E+02 -0.30408043771E+02 -0.14957472285E+02  0.42518095169E+02  0.51100000000E-03 0.  1.
         12    1    3    3    0    0 -0.28737444722E+02  0.24721404596E+02  0.73826413077E+01  0.38619839034E+02  0.00000000000E+00 0. -1.
</event>
<event>
 7    1  0.2284751E-015  0.9000765E+02  0.7816164E-02  0.1186339E+00
        -11   -1    0    0    0    0  0.00000000000E+00  0.00000000000E+00  0.45593999997E+02  0.45594000000E+02  0.51100000000E-03 0.  1.
         11   -1    0    0    0    0 -0.00000000000E+00 -0.00000000000E+00 -0.45593999997E+02  0.45594000000E+02  0.51100000000E-03 0. -1.
    9900012    2    1    2    0    0  0.68419730281E-01 -0.85922022077E+00 -0.80640328000E+00  0.90007649672E+02  0.89999909847E+02 0.  0.
         12    1    1    2    0    0 -0.68419730281E-01  0.85922022077E+00  0.80640328000E+00  0.11803503282E+01  0.00000000000E+00 0. -1.
         11    1    3    3    0    0 -0.41063443908E+01  0.34033409877E+01  0.83628953779E+01  0.99188110930E+01  0.51100000000E-03 0. -1.
        -11    1    3    3    0    0  0.19969945097E+02 -0.26525579117E+02  0.21091643924E+02  0.39335257700E+02  0.51100000000E-03 0.  1.
         12    1    3    3    0    0 -0.15795180976E+02  0.22263017909E+02 -0.30260942582E+02  0.40753580878E+02  0.00000000000E+00 0. -1.
</event>
<event>
 7    1  0.2284751E-015  0.9000774E+02  0.7816164E-02  0.1186339E+00
        -11   -1    0    0    0    0  0.00000000000E+00  0.00000000000E+00  0.45593999997E+02  0.45594000000E+02  0.51100000000E-03 0.  1.
         11   -1    0    0    0    0 -0.00000000000E+00 -0.00000000000E+00 -0.45593999997E+02  0.45594000000E+02  0.51100000000E-03 0. -1.
    9900012    2    1    2    0    0  0.36170194294E+00 -0.11206402724E+01 -0.79720456525E-01  0.90007738052E+02  0.89999999394E+02 0.  0.
         12    1    1    2    0    0 -0.36170194294E+00  0.11206402724E+01  0.79720456525E-01  0.11802619484E+01  0.00000000000E+00 0. -1.
         11    1    3    3    0    0 -0.19879645501E+02  0.76787948823E+01  0.20634582370E+02  0.29663954321E+02  0.51100000000E-03 0. -1.
        -11    1    3    3    0    0 -0.13625516267E+02  0.43070523146E+01 -0.19283319237E+02  0.24001079022E+02  0.51100000000E-03 0.  1.
         12    1    3    3    0    0  0.33866863712E+02 -0.13106487469E+02 -0.14309835901E+01  0.36342704708E+02  0.00000000000E+00 0. -1.
</event>
<event>
 7    1  0.2284751E-015  0.9000774E+02  0.7816164E-02  0.1186339E+00
        -11   -1    0    0    0    0  0.00000000000E+00  0.00000000000E+00  0.45593999997E+02  0.45594000000E+02  0.51100000000E-03 0.  1.
         11   -1    0    0    0    0 -0.00000000000E+00 -0.00000000000E+00 -0.45593999997E+02  0.45594000000E+02  0.51100000000E-03 0. -1.
    9900012    2    1    2    0    0 -0.17692924467E+00 -0.39830458370E+00  0.10968399484E+01  0.90007742244E+02  0.90000003641E+02 0.  0.
         12    1    1    2    0    0  0.17692924467E+00  0.39830458370E+00 -0.10968399484E+01  0.11802577564E+01  0.00000000000E+00 0. -1.
         11    1    3    3    0    0  0.11091813514E+02 -0.76613168098E-01  0.23163115598E+01  0.11331350146E+02  0.51100000000E-03 0. -1.
        -11    1    3    3    0    0 -0.30428242987E+02  0.95210511365E+01  0.27961089190E+02  0.42406967529E+02  0.51100000000E-03 0.  1.
         12    1    3    3    0    0  0.19159500228E+02 -0.98427425521E+01 -0.29180560801E+02  0.36269424570E+02  0.00000000000E+00 0. -1.
</event>
<event>
 7    1  0.2284751E-015  0.9000775E+02  0.7816164E-02  0.1186339E+00
        -11   -1    0    0    0    0  0.00000000000E+00  0.00000000000E+00  0.45593999997E+02  0.45594000000E+02  0.51100000000E-03 0.  1.
         11   -1    0    0    0    0 -0.00000000000E+00 -0.00000000000E+00 -0.45593999997E+02  0.45594000000E+02  0.51100000000E-03 0. -1.
    9900012    2    1    2    0    0  0.51049083211E+00  0.10356540365E+01  0.24455963966E+00  0.90007750200E+02  0.90000011703E+02 0.  0.
         12    1    1    2    0    0 -0.51049083211E+00 -0.10356540365E+01 -0.24455963966E+00  0.11802498000E+01  0.00000000000E+00 0. -1.
         11    1    3    3    0    0 -0.25701582784E+01  0.84769582640E+01 -0.35592308910E+01  0.95463427438E+01  0.51100000000E-03 0. -1.
        -11    1    3    3    0    0  0.55125091932E+01 -0.24726671762E+02  0.35892301321E+02  0.43932372443E+02  0.51100000000E-03 0.  1.
         12    1    3    3    0    0 -0.24318600828E+01  0.17285367535E+02 -0.32088510791E+02  0.36529035014E+02  0.00000000000E+00 0. -1.
</event>
<event>
 7    1  0.2284751E-015  0.9000771E+02  0.7816164E-02  0.1186339E+00
        -11   -1    0    0    0    0  0.00000000000E+00  0.00000000000E+00  0.45593999997E+02  0.45594000000E+02  0.51100000000E-03 0.  1.
         11   -1    0    0    0    0 -0.00000000000E+00 -0.00000000000E+00 -0.45593999997E+02  0.45594000000E+02  0.51100000000E-03 0. -1.
    9900012    2    1    2    0    0  0.29404426325E+00 -0.11501851950E+00  0.11372719144E+01  0.90007712452E+02  0.89999973456E+02 0.  0.
         12    1    1    2    0    0 -0.29404426325E+00  0.11501851950E+00 -0.11372719144E+01  0.11802875480E+01  0.00000000000E+00 0. -1.
         11    1    3    3    0    0 -0.60271217231E+01 -0.64829690625E+01 -0.65958513662E+01  0.11039037079E+02  0.51100000000E-03 0. -1.
        -11    1    3    3    0    0  0.19102879523E+01 -0.34363139429E+02  0.14677120154E+02  0.37415136078E+02  0.51100000000E-03 0.  1.
         12    1    3    3    0    0  0.44108780341E+01  0.40731089972E+02 -0.69439968729E+01  0.41553539295E+02  0.00000000000E+00 0. -1.
</event>
<event>
 7    1  0.2284751E-015  0.9000774E+02  0.7816164E-02  0.1186339E+00
        -11   -1    0    0    0    0  0.00000000000E+00  0.00000000000E+00  0.45593999997E+02  0.45594000000E+02  0.51100000000E-03 0.  1.
         11   -1    0    0    0    0 -0.00000000000E+00 -0.00000000000E+00 -0.45593999997E+02  0.45594000000E+02  0.51100000000E-03 0. -1.
    9900012    2    1    2    0    0 -0.74874542129E+00 -0.77926365447E+00  0.47448031729E+00  0.90007744468E+02  0.90000005895E+02 0.  0.
         12    1    1    2    0    0  0.74874542129E+00  0.77926365447E+00 -0.47448031729E+00  0.11802555319E+01  0.00000000000E+00 0. -1.
         11    1    3    3    0    0 -0.34185945292E+02 -0.56764048448E+01 -0.27204807181E+02  0.44056803805E+02  0.51100000000E-03 0. -1.
        -11    1    3    3    0    0  0.27187132890E+01  0.33558516077E+00  0.96721979094E+01  0.10052633088E+02  0.51100000000E-03 0.  1.
        -12    1    3    3    0    0  0.30718486582E+02  0.45615560295E+01  0.18007089588E+02  0.35898307575E+02  0.00000000000E+00 0.  1.
</event>
<event>
 7    1  0.2284751E-015  0.9000739E+02  0.7816164E-02  0.1186340E+00
        -11   -1    0    0    0    0  0.00000000000E+00  0.00000000000E+00  0.45593999997E+02  0.45594000000E+02  0.51100000000E-03 0.  1.
         11   -1    0    0    0    0 -0.00000000000E+00 -0.00000000000E+00 -0.45593999997E+02  0.45594000000E+02  0.51100000000E-03 0. -1.
    9900012    2    1    2    0    0  0.10479257422E+00 -0.52156801492E+00  0.10539537969E+01  0.90007392833E+02  0.89999649617E+02 0.  0.
         12    1    1    2    0    0 -0.10479257422E+00  0.52156801492E+00 -0.10539537969E+01  0.11806071674E+01  0.00000000000E+00 0. -1.
         11    1    3    3    0    0  0.19966691548E+01 -0.46587595399E+01  0.85928717101E+01  0.99763807391E+01  0.51100000000E-03 0. -1.
        -11    1    3    3    0    0 -0.36365006592E+02 -0.12773300838E+02 -0.14169828617E+02  0.41065252490E+02  0.51100000000E-03 0.  1.
         12    1    3    3    0    0  0.34473130012E+02  0.16910492363E+02  0.66309107038E+01  0.38965759604E+02  0.00000000000E+00 0. -1.
</event>
<event>
 7    1  0.2284751E-015  0.9000786E+02  0.7816164E-02  0.1186339E+00
        -11   -1    0    0    0    0  0.00000000000E+00  0.00000000000E+00  0.45593999997E+02  0.45594000000E+02  0.51100000000E-03 0.  1.
         11   -1    0    0    0    0 -0.00000000000E+00 -0.00000000000E+00 -0.45593999997E+02  0.45594000000E+02  0.51100000000E-03 0. -1.
    9900012    2    1    2    0    0 -0.23318389349E+00 -0.97229716949E+00  0.62689998618E+00  0.90007855896E+02  0.90000118794E+02 0.  0.
         12    1    1    2    0    0  0.23318389349E+00  0.97229716949E+00 -0.62689998618E+00  0.11801441042E+01  0.00000000000E+00 0. -1.
         11    1    3    3    0    0 -0.13630008468E+01  0.38500737660E+02 -0.10886049404E+02  0.40033369126E+02  0.51100000000E-03 0. -1.
        -11    1    3    3    0    0 -0.11584271648E+01 -0.28619022430E+01 -0.78927827582E+01  0.84751671295E+01  0.51100000000E-03 0.  1.
        -12    1    3    3    0    0  0.22882441182E+01 -0.36611132586E+02  0.19405732149E+02  0.41499319641E+02  0.00000000000E+00 0.  1.
</event>
<event>
 7    1  0.2284751E-015  0.9000765E+02  0.7816164E-02  0.1186339E+00
        -11   -1    0    0    0    0  0.00000000000E+00  0.00000000000E+00  0.45593999997E+02  0.45594000000E+02  0.51100000000E-03 0. -1.
         11   -1    0    0    0    0 -0.00000000000E+00 -0.00000000000E+00 -0.45593999997E+02  0.45594000000E+02  0.51100000000E-03 0.  1.
    9900012    2    1    2    0    0  0.11131804049E+01 -0.36388963957E+00  0.14710708241E+00  0.90007649723E+02  0.89999909899E+02 0.  0.
         12    1    1    2    0    0 -0.11131804049E+01  0.36388963957E+00 -0.14710708241E+00  0.11803502774E+01  0.00000000000E+00 0. -1.
         11    1    3    3    0    0  0.22226316222E+02  0.32302061721E+01  0.30213736847E+02  0.37647221136E+02  0.51100000000E-03 0. -1.
        -11    1    3    3    0    0  0.11516512402E+01  0.44257850695E+01  0.70130942788E+01  0.83724169560E+01  0.51100000000E-03 0.  1.
        -12    1    3    3    0    0 -0.22264787057E+02 -0.80198808812E+01 -0.37079724044E+02  0.43988011631E+02  0.00000000000E+00 0.  1.
</event>
<event>
 7    1  0.2284751E-015  0.9000776E+02  0.7816164E-02  0.1186339E+00
        -11   -1    0    0    0    0  0.00000000000E+00  0.00000000000E+00  0.45593999997E+02  0.45594000000E+02  0.51100000000E-03 0.  1.
         11   -1    0    0    0    0 -0.00000000000E+00 -0.00000000000E+00 -0.45593999997E+02  0.45594000000E+02  0.51100000000E-03 0. -1.
    9900012    2    1    2    0    0 -0.11018163874E+01 -0.26318532001E+00  0.33120742494E+00  0.90007760947E+02  0.90000022591E+02 0.  0.
         12    1    1    2    0    0  0.11018163874E+01  0.26318532001E+00 -0.33120742494E+00  0.11802390531E+01  0.00000000000E+00 0. -1.
         11    1    3    3    0    0 -0.40354800180E+02  0.12436909934E+02 -0.26875523918E+01  0.42313231552E+02  0.51100000000E-03 0. -1.
        -11    1    3    3    0    0  0.48268491271E+01  0.34628788595E+01  0.73124445865E+01  0.94213506773E+01  0.51100000000E-03 0.  1.
        -12    1    3    3    0    0  0.34426134666E+02 -0.16162974114E+02 -0.42936847698E+01  0.38273178717E+02  0.00000000000E+00 0.  1.
</event>
<event>
 7    1  0.2284751E-015  0.9000776E+02  0.7816164E-02  0.1186339E+00
        -11   -1    0    0    0    0  0.00000000000E+00  0.00000000000E+00  0.45593999997E+02  0.45594000000E+02  0.51100000000E-03 0.  1.
         11   -1    0    0    0    0 -0.00000000000E+00 -0.00000000000E+00 -0.45593999997E+02  0.45594000000E+02  0.51100000000E-03 0. -1.
    9900012    2    1    2    0    0 -0.27599601951E+00 -0.22876827172E+00  0.11244764884E+01  0.90007764389E+02  0.90000026079E+02 0.  0.
         12    1    1    2    0    0  0.27599601951E+00  0.22876827172E+00 -0.11244764884E+01  0.11802356112E+01  0.00000000000E+00 0. -1.
         11    1    3    3    0    0  0.48474908869E+01 -0.31129867452E+02 -0.25157477979E+02  0.40317062319E+02  0.51100000000E-03 0. -1.
        -11    1    3    3    0    0 -0.10600913304E+02  0.18943140817E+01  0.98309859539E+00  0.10813615114E+02  0.51100000000E-03 0.  1.
        -12    1    3    3    0    0  0.54774263978E+01  0.29006785099E+02  0.25298855872E+02  0.38877086956E+02  0.00000000000E+00 0.  1.
</event>
<event>
 7    1  0.2284751E-015  0.9000781E+02  0.7816164E-02  0.1186339E+00
        -11   -1    0    0    0    0  0.00000000000E+00  0.00000000000E+00  0.45593999997E+02  0.45594000000E+02  0.51100000000E-03 0. -1.
         11   -1    0    0    0    0 -0.00000000000E+00 -0.00000000000E+00 -0.45593999997E+02  0.45594000000E+02  0.51100000000E-03 0.  1.
    9900012    2    1    2    0    0  0.14482110462E+00 -0.34684514116E+00 -0.11187366047E+01  0.90007810907E+02  0.90000073211E+02 0.  0.
         12    1    1    2    0    0 -0.14482110462E+00  0.34684514116E+00  0.11187366047E+01  0.11801890929E+01  0.00000000000E+00 0. -1.
         11    1    3    3    0    0 -0.33624699142E+01 -0.57200182008E+01 -0.69203223823E+01  0.95872662567E+01  0.51100000000E-03 0. -1.
        -11    1    3    3    0    0  0.33075284848E+02 -0.22112172380E+02  0.43735260241E+01  0.40025621360E+02  0.51100000000E-03 0.  1.
         12    1    3    3    0    0 -0.29567993829E+02  0.27485345439E+02  0.14280597534E+01  0.40394923290E+02  0.00000000000E+00 0. -1.
</event>
<event>
 7    1  0.2284751E-015  0.9000773E+02  0.7816164E-02  0.1186339E+00
        -11   -1    0    0    0    0  0.00000000000E+00  0.00000000000E+00  0.45593999997E+02  0.45594000000E+02  0.51100000000E-03 0. -1.
         11   -1    0    0    0    0 -0.00000000000E+00 -0.00000000000E+00 -0.45593999997E+02  0.45594000000E+02  0.51100000000E-03 0.  1.
    9900012    2    1    2    0    0 -0.63370699003E+00 -0.61028014274E+00 -0.78676951151E+00  0.90007731952E+02  0.89999993213E+02 0.  0.
         12    1    1    2    0    0  0.63370699003E+00  0.61028014274E+00  0.78676951151E+00  0.11802680484E+01  0.00000000000E+00 0. -1.
         11    1    3    3    0    0  0.83094711264E+01 -0.19483052486E+01  0.45633586964E+01  0.96781943871E+01  0.51100000000E-03 0. -1.
        -11    1    3    3    0    0  0.30162604303E+02  0.19759178201E+02 -0.83012402845E+01  0.37001600128E+02  0.51100000000E-03 0.  1.
         12    1    3    3    0    0 -0.39105782419E+02 -0.18421153095E+02  0.29511120766E+01  0.43327937436E+02  0.00000000000E+00 0. -1.
</event>
<event>
 7    1  0.2284751E-015  0.9000775E+02  0.7816164E-02  0.1186339E+00
        -11   -1    0    0    0    0  0.00000000000E+00  0.00000000000E+00  0.45593999997E+02  0.45594000000E+02  0.51100000000E-03 0. -1.
         11   -1    0    0    0    0 -0.00000000000E+00 -0.00000000000E+00 -0.45593999997E+02  0.45594000000E+02  0.51100000000E-03 0.  1.
    9900012    2    1    2    0    0  0.92411218271E+00  0.66303340168E+00 -0.31526349608E+00  0.90007751005E+02  0.90000012518E+02 0.  0.
         12    1    1    2    0    0 -0.92411218271E+00 -0.66303340168E+00  0.31526349608E+00  0.11802489949E+01  0.00000000000E+00 0. -1.
         11    1    3    3    0    0 -0.27458886676E+02 -0.79632982003E+00  0.24805263382E+02  0.37012507216E+02  0.51100000000E-03 0. -1.
        -11    1    3    3    0    0 -0.10147559185E+01 -0.58205724921E+01  0.67900865839E+01  0.90007816210E+01  0.51100000000E-03 0.  1.
        -12    1    3    3    0    0  0.29397754778E+02  0.72799357138E+01 -0.31910613462E+02  0.43994462168E+02  0.00000000000E+00 0.  1.
</event>
<event>
 7    1  0.2284751E-015  0.9000779E+02  0.7816164E-02  0.1186339E+00
        -11   -1    0    0    0    0  0.00000000000E+00  0.00000000000E+00  0.45593999997E+02  0.45594000000E+02  0.51100000000E-03 0. -1.
         11   -1    0    0    0    0 -0.00000000000E+00 -0.00000000000E+00 -0.45593999997E+02  0.45594000000E+02  0.51100000000E-03 0.  1.
    9900012    2    1    2    0    0 -0.11251122745E+01 -0.18576862344E+00  0.30414755399E+00  0.90007790973E+02  0.90000053014E+02 0.  0.
         12    1    1    2    0    0  0.11251122745E+01  0.18576862344E+00 -0.30414755399E+00  0.11802090266E+01  0.00000000000E+00 0. -1.
         11    1    3    3    0    0 -0.55860344921E+01  0.69596793586E+01  0.47507154584E+01  0.10109906812E+02  0.51100000000E-03 0. -1.
        -11    1    3    3    0    0  0.34574181882E+02  0.84910349248E+01 -0.21841977171E+02  0.41767735082E+02  0.51100000000E-03 0.  1.
         12    1    3    3    0    0 -0.30113259664E+02 -0.15636482907E+02  0.17395409266E+02  0.38130149080E+02  0.00000000000E+00 0. -1.
</event>
<event>
 7    1  0.2284751E-015  0.9000775E+02  0.7816164E-02  0.1186339E+00
        -11   -1    0    0    0    0  0.00000000000E+00  0.00000000000E+00  0.45593999997E+02  0.45594000000E+02  0.51100000000E-03 0.  1.
         11   -1    0    0    0    0 -0.00000000000E+00 -0.00000000000E+00 -0.45593999997E+02  0.45594000000E+02  0.51100000000E-03 0. -1.
    9900012    2    1    2    0    0 -0.52570747323E+00  0.26505507505E+00  0.10229186652E+01  0.90007752087E+02  0.90000013615E+02 0.  0.
         12    1    1    2    0    0  0.52570747323E+00 -0.26505507505E+00 -0.10229186652E+01  0.11802479129E+01  0.00000000000E+00 0. -1.
         11    1    3    3    0    0  0.12274651875E+01 -0.80119500016E+01 -0.63441032152E+01  0.10292990794E+02  0.51100000000E-03 0. -1.
        -11    1    3    3    0    0  0.73347251628E+01 -0.13287003400E+02  0.38143640658E+02  0.41052161642E+02  0.51100000000E-03 0.  1.
         12    1    3    3    0    0 -0.90878978236E+01  0.21564008477E+02 -0.30776618777E+02  0.38662599651E+02  0.00000000000E+00 0. -1.
</event>
<event>
 7    1  0.2284751E-015  0.9000780E+02  0.7816164E-02  0.1186339E+00
        -11   -1    0    0    0    0  0.00000000000E+00  0.00000000000E+00  0.45593999997E+02  0.45594000000E+02  0.51100000000E-03 0.  1.
         11   -1    0    0    0    0 -0.00000000000E+00 -0.00000000000E+00 -0.45593999997E+02  0.45594000000E+02  0.51100000000E-03 0. -1.
    9900012    2    1    2    0    0  0.16833167349E+00  0.10957263033E+01  0.40488181457E+00  0.90007796218E+02  0.90000058328E+02 0.  0.
         12    1    1    2    0    0 -0.16833167349E+00 -0.10957263033E+01 -0.40488181457E+00  0.11802037823E+01  0.00000000000E+00 0. -1.
         11    1    3    3    0    0 -0.93252901485E+01  0.97939518964E+01 -0.37124005581E+02  0.39510433062E+02  0.51100000000E-03 0. -1.
        -11    1    3    3    0    0 -0.56584239351E+01 -0.38404363796E+01 -0.26099365979E+01  0.73197323941E+01  0.51100000000E-03 0.  1.
        -12    1    3    3    0    0  0.15152045757E+02 -0.48577892135E+01  0.40138823993E+02  0.43177630762E+02  0.00000000000E+00 0.  1.
</event>
<event>
 7    1  0.2284751E-015  0.9000773E+02  0.7816164E-02  0.1186339E+00
        -11   -1    0    0    0    0  0.00000000000E+00  0.00000000000E+00  0.45593999997E+02  0.45594000000E+02  0.51100000000E-03 0. -1.
         11   -1    0    0    0    0 -0.00000000000E+00 -0.00000000000E+00 -0.45593999997E+02  0.45594000000E+02  0.51100000000E-03 0.  1.
    9900012    2    1    2    0    0  0.28020399500E+00 -0.74902797189E+00 -0.86803841754E+00  0.90007725508E+02  0.89999986685E+02 0.  0.
         12    1    1    2    0    0 -0.28020399500E+00  0.74902797189E+00  0.86803841754E+00  0.11802744917E+01  0.00000000000E+00 0. -1.
         11    1    3    3    0    0  0.19648227522E+01  0.75277467618E+00  0.87822924814E+01  0.90308282926E+01  0.51100000000E-03 0. -1.
        -11    1    3    3    0    0 -0.11098534902E+02 -0.39037050037E+02 -0.11663401675E+02  0.42226812471E+02  0.51100000000E-03 0.  1.
         12    1    3    3    0    0  0.94139161444E+01  0.37535247389E+02  0.20130707757E+01  0.38750084745E+02  0.00000000000E+00 0. -1.
</event>
<event>
 7    1  0.2284751E-015  0.9000773E+02  0.7816164E-02  0.1186339E+00
        -11   -1    0    0    0    0  0.00000000000E+00  0.00000000000E+00  0.45593999997E+02  0.45594000000E+02  0.51100000000E-03 0.  1.
         11   -1    0    0    0    0 -0.00000000000E+00 -0.00000000000E+00 -0.45593999997E+02  0.45594000000E+02  0.51100000000E-03 0. -1.
    9900012    2    1    2    0    0 -0.10376950194E+00 -0.49269689309E+00  0.10674879666E+01  0.90007725076E+02  0.89999986247E+02 0.  0.
         12    1    1    2    0    0  0.10376950194E+00  0.49269689309E+00 -0.10674879666E+01  0.11802749243E+01  0.00000000000E+00 0. -1.
         11    1    3    3    0    0  0.21264866320E+02  0.11222399032E+02  0.36265877934E+02  0.43512649680E+02  0.51100000000E-03 0. -1.
        -11    1    3    3    0    0 -0.38254013034E+01 -0.78027944678E+01 -0.22719970124E+01  0.89821638442E+01  0.51100000000E-03 0.  1.
        -12    1    3    3    0    0 -0.17543234519E+02 -0.39123014570E+01 -0.32926392955E+02  0.37512911551E+02  0.00000000000E+00 0.  1.
</event>
<event>
 7    1  0.2284751E-015  0.9000773E+02  0.7816164E-02  0.1186339E+00
        -11   -1    0    0    0    0  0.00000000000E+00  0.00000000000E+00  0.45593999997E+02  0.45594000000E+02  0.51100000000E-03 0.  1.
         11   -1    0    0    0    0 -0.00000000000E+00 -0.00000000000E+00 -0.45593999997E+02  0.45594000000E+02  0.51100000000E-03 0. -1.
    9900012    2    1    2    0    0  0.15998634632E+00  0.54670280594E+00 -0.10337152540E+01  0.90007725957E+02  0.89999987140E+02 0.  0.
         12    1    1    2    0    0 -0.15998634632E+00 -0.54670280594E+00  0.10337152540E+01  0.11802740425E+01  0.00000000000E+00 0. -1.
         11    1    3    3    0    0  0.49328270056E+01 -0.94891965032E+01  0.52767090468E+00  0.10707757440E+02  0.51100000000E-03 0. -1.
        -11    1    3    3    0    0  0.34753469304E+01 -0.15979104145E+02  0.32063981005E+02  0.35993175516E+02  0.51100000000E-03 0.  1.
         12    1    3    3    0    0 -0.82481875897E+01  0.26015003454E+02 -0.33625367164E+02  0.43306793002E+02  0.00000000000E+00 0. -1.
</event>
<event>
 7    1  0.2284751E-015  0.9000775E+02  0.7816164E-02  0.1186339E+00
        -11   -1    0    0    0    0  0.00000000000E+00  0.00000000000E+00  0.45593999997E+02  0.45594000000E+02  0.51100000000E-03 0.  1.
         11   -1    0    0    0    0 -0.00000000000E+00 -0.00000000000E+00 -0.45593999997E+02  0.45594000000E+02  0.51100000000E-03 0. -1.
    9900012    2    1    2    0    0 -0.65160593374E+00 -0.93322544524E+00 -0.31222710031E+00  0.90007751811E+02  0.90000013335E+02 0.  0.
         12    1    1    2    0    0  0.65160593374E+00  0.93322544524E+00  0.31222710031E+00  0.11802481886E+01  0.00000000000E+00 0. -1.
         11    1    3    3    0    0  0.98053037239E+01 -0.42003597048E+00  0.92044749191E+00  0.98573645150E+01  0.51100000000E-03 0. -1.
        -11    1    3    3    0    0 -0.27621700576E+01  0.20239283111E+02  0.33339902124E+02  0.39099964683E+02  0.51100000000E-03 0.  1.
         12    1    3    3    0    0 -0.76947396001E+01 -0.20752472586E+02 -0.34572576717E+02  0.41050422614E+02  0.00000000000E+00 0. -1.
</event>
<event>
 7    1  0.2284751E-015  0.9000761E+02  0.7816164E-02  0.1186339E+00
        -11   -1    0    0    0    0  0.00000000000E+00  0.00000000000E+00  0.45593999997E+02  0.45594000000E+02  0.51100000000E-03 0. -1.
         11   -1    0    0    0    0 -0.00000000000E+00 -0.00000000000E+00 -0.45593999997E+02  0.45594000000E+02  0.51100000000E-03 0.  1.
    9900012    2    1    2    0    0 -0.19433762418E+00  0.20978544713E+00 -0.11452257944E+01  0.90007610587E+02  0.89999870247E+02 0.  0.
         12    1    1    2    0    0  0.19433762418E+00 -0.20978544713E+00  0.11452257944E+01  0.11803894130E+01  0.00000000000E+00 0. -1.
         11    1    3    3    0    0  0.16273891952E+02 -0.25130028329E+01  0.35369586526E+02  0.39014899638E+02  0.51100000000E-03 0. -1.
        -11    1    3    3    0    0  0.41593814098E+01 -0.73723669385E+01 -0.76134369428E+00  0.84989347844E+01  0.51100000000E-03 0.  1.
        -12    1    3    3    0    0 -0.20627610986E+02  0.10095155219E+02 -0.35753468626E+02  0.42493776164E+02  0.00000000000E+00 0.  1.
</event>
<event>
 7    1  0.2284751E-015  0.9000773E+02  0.7816164E-02  0.1186339E+00
        -11   -1    0    0    0    0  0.00000000000E+00  0.00000000000E+00  0.45593999997E+02  0.45594000000E+02  0.51100000000E-03 0.  1.
         11   -1    0    0    0    0 -0.00000000000E+00 -0.00000000000E+00 -0.45593999997E+02  0.45594000000E+02  0.51100000000E-03 0. -1.
    9900012    2    1    2    0    0 -0.70869143613E+00 -0.59271214989E+00  0.73450159152E+00  0.90007727221E+02  0.89999988421E+02 0.  0.
         12    1    1    2    0    0  0.70869143613E+00  0.59271214989E+00 -0.73450159152E+00  0.11802727787E+01  0.00000000000E+00 0. -1.
         11    1    3    3    0    0 -0.56678206293E+01  0.83606676815E+01 -0.20023018806E+01  0.10297289345E+02  0.51100000000E-03 0. -1.
        -11    1    3    3    0    0  0.41209331065E+02 -0.11022717158E+02  0.67172696308E+01  0.43183688725E+02  0.51100000000E-03 0.  1.
         12    1    3    3    0    0 -0.36250201872E+02  0.20693373266E+01 -0.39804661587E+01  0.36526749151E+02  0.00000000000E+00 0. -1.
</event>
<event>
 7    1  0.2284751E-015  0.9000765E+02  0.7816164E-02  0.1186339E+00
        -11   -1    0    0    0    0  0.00000000000E+00  0.00000000000E+00  0.45593999997E+02  0.45594000000E+02  0.51100000000E-03 0. -1.
         11   -1    0    0    0    0 -0.00000000000E+00 -0.00000000000E+00 -0.45593999997E+02  0.45594000000E+02  0.51100000000E-03 0.  1.
    9900012    2    1    2    0    0 -0.91828407805E+00  0.55257970777E+00  0.49461366183E+00  0.90007647232E+02  0.89999907376E+02 0.  0.
         12    1    1    2    0    0  0.91828407805E+00 -0.55257970777E+00 -0.49461366183E+00  0.11803527676E+01  0.00000000000E+00 0. -1.
         11    1    3    3    0    0  0.36101336289E+01 -0.81960611634E+01  0.47828696850E+01  0.10153045164E+02  0.51100000000E-03 0. -1.
        -11    1    3    3    0    0 -0.21766979385E+02 -0.51510399543E+01  0.30979672539E+02  0.38210924027E+02  0.51100000000E-03 0.  1.
         12    1    3    3    0    0  0.17238561678E+02  0.13899680825E+02 -0.35267928562E+02  0.41643678041E+02  0.00000000000E+00 0. -1.
</event>
<event>
 7    1  0.2284751E-015  0.9000776E+02  0.7816164E-02  0.1186339E+00
        -11   -1    0    0    0    0  0.00000000000E+00  0.00000000000E+00  0.45593999997E+02  0.45594000000E+02  0.51100000000E-03 0.  1.
         11   -1    0    0    0    0 -0.00000000000E+00 -0.00000000000E+00 -0.45593999997E+02  0.45594000000E+02  0.51100000000E-03 0. -1.
    9900012    2    1    2    0    0 -0.97611511261E+00 -0.48475837710E+00  0.45296053359E+00  0.90007760769E+02  0.90000022411E+02 0.  0.
         12    1    1    2    0    0  0.97611511261E+00  0.48475837710E+00 -0.45296053359E+00  0.11802392309E+01  0.00000000000E+00 0. -1.
         11    1    3    3    0    0 -0.16604131839E+02 -0.23334912065E+00  0.18330404240E+02  0.24733688884E+02  0.51100000000E-03 0. -1.
        -11    1    3    3    0    0  0.12282503468E+01  0.28685204730E+02 -0.80972692055E+00  0.28722904228E+02  0.51100000000E-03 0.  1.
         12    1    3    3    0    0  0.14399766380E+02 -0.28936613987E+02 -0.17067716786E+02  0.36551167657E+02  0.00000000000E+00 0. -1.
</event>
<event>
 7    1  0.2284751E-015  0.9000768E+02  0.7816164E-02  0.1186339E+00
        -11   -1    0    0    0    0  0.00000000000E+00  0.00000000000E+00  0.45593999997E+02  0.45594000000E+02  0.51100000000E-03 0. -1.
         11   -1    0    0    0    0 -0.00000000000E+00 -0.00000000000E+00 -0.45593999997E+02  0.45594000000E+02  0.51100000000E-03 0.  1.
    9900012    2    1    2    0    0  0.44236020090E+00 -0.66942583463E+00 -0.86564962004E+00  0.90007676841E+02  0.89999937375E+02 0.  0.
         12    1    1    2    0    0 -0.44236020090E+00  0.66942583463E+00  0.86564962004E+00  0.11803231592E+01  0.00000000000E+00 0. -1.
         11    1    3    3    0    0 -0.10557815137E+00 -0.36792517139E+02  0.15953096302E+02  0.40102390777E+02  0.51100000000E-03 0. -1.
        -11    1    3    3    0    0 -0.12584756528E+02  0.56463315976E+01 -0.45581648286E+01  0.14527010162E+02  0.51100000000E-03 0.  1.
        -12    1    3    3    0    0  0.13132694880E+02  0.30476759707E+02 -0.12260581093E+02  0.35378275902E+02  0.00000000000E+00 0.  1.
</event>
<event>
 7    1  0.2284751E-015  0.9000801E+02  0.7816164E-02  0.1186339E+00
        -11   -1    0    0    0    0  0.00000000000E+00  0.00000000000E+00  0.45593999997E+02  0.45594000000E+02  0.51100000000E-03 0. -1.
         11   -1    0    0    0    0 -0.00000000000E+00 -0.00000000000E+00 -0.45593999997E+02  0.45594000000E+02  0.51100000000E-03 0.  1.
    9900012    2    1    2    0    0 -0.31061667430E+00  0.54395820438E+00 -0.10000028533E+01  0.90008008918E+02  0.90000273835E+02 0.  0.
         12    1    1    2    0    0  0.31061667430E+00 -0.54395820438E+00  0.10000028533E+01  0.11799910818E+01  0.00000000000E+00 0. -1.
         11    1    3    3    0    0  0.15866285315E+02  0.37599580465E+02  0.31915741246E+01  0.40934748154E+02  0.51100000000E-03 0. -1.
        -11    1    3    3    0    0 -0.31895757947E+01  0.18586154226E+00 -0.88017182907E+01  0.93636629261E+01  0.51100000000E-03 0.  1.
        -12    1    3    3    0    0 -0.12987326194E+02 -0.37241483803E+02  0.46101413127E+01  0.39709597838E+02  0.00000000000E+00 0.  1.
</event>
<event>
 7    1  0.2284751E-015  0.9000773E+02  0.7816164E-02  0.1186339E+00
        -11   -1    0    0    0    0  0.00000000000E+00  0.00000000000E+00  0.45593999997E+02  0.45594000000E+02  0.51100000000E-03 0. -1.
         11   -1    0    0    0    0 -0.00000000000E+00 -0.00000000000E+00 -0.45593999997E+02  0.45594000000E+02  0.51100000000E-03 0.  1.
    9900012    2    1    2    0    0  0.26613628187E+00  0.11491406943E+01 -0.41134406945E-01  0.90007726771E+02  0.89999987964E+02 0.  0.
         12    1    1    2    0    0 -0.26613628187E+00 -0.11491406943E+01  0.41134406945E-01  0.11802732291E+01  0.00000000000E+00 0. -1.
         11    1    3    3    0    0 -0.37206606141E+01 -0.59105098096E+00 -0.10589819773E+02  0.11239970630E+02  0.51100000000E-03 0. -1.
        -11    1    3    3    0    0  0.21199987103E+02  0.30107541299E+02 -0.11909544677E+02  0.38700655691E+02  0.51100000000E-03 0.  1.
         12    1    3    3    0    0 -0.17213190208E+02 -0.28367349624E+02  0.22458230043E+02  0.40067100450E+02  0.00000000000E+00 0. -1.
</event>
<event>
 7    1  0.2284751E-015  0.9000772E+02  0.7816164E-02  0.1186339E+00
        -11   -1    0    0    0    0  0.00000000000E+00  0.00000000000E+00  0.45593999997E+02  0.45594000000E+02  0.51100000000E-03 0.  1.
         11   -1    0    0    0    0 -0.00000000000E+00 -0.00000000000E+00 -0.45593999997E+02  0.45594000000E+02  0.51100000000E-03 0. -1.
    9900012    2    1    2    0    0  0.49034984878E+00 -0.57165941580E+00  0.90874953056E+00  0.90007719029E+02  0.89999980120E+02 0.  0.
         12    1    1    2    0    0 -0.49034984878E+00  0.57165941580E+00 -0.90874953056E+00  0.11802809713E+01  0.00000000000E+00 0. -1.
         11    1    3    3    0    0 -0.16167345687E+01 -0.21847677499E+01  0.89073317838E+01  0.93127654623E+01  0.51100000000E-03 0. -1.
        -11    1    3    3    0    0  0.63053557705E+01  0.40129750976E+02  0.20318450687E+01  0.40672875721E+02  0.51100000000E-03 0.  1.
         12    1    3    3    0    0 -0.41982713530E+01 -0.38516642642E+02 -0.10030427322E+02  0.40022077845E+02  0.00000000000E+00 0. -1.
</event>
<event>
 7    1  0.2284751E-015  0.9000770E+02  0.7816164E-02  0.1186339E+00
        -11   -1    0    0    0    0  0.00000000000E+00  0.00000000000E+00  0.45593999997E+02  0.45594000000E+02  0.51100000000E-03 0. -1.
         11   -1    0    0    0    0 -0.00000000000E+00 -0.00000000000E+00 -0.45593999997E+02  0.45594000000E+02  0.51100000000E-03 0.  1.
    9900012    2    1    2    0    0 -0.20840750104E+00  0.32893338244E+00 -0.11142118478E+01  0.90007703894E+02  0.89999964785E+02 0.  0.
         12    1    1    2    0    0  0.20840750104E+00 -0.32893338244E+00  0.11142118478E+01  0.11802961063E+01  0.00000000000E+00 0. -1.
         11    1    3    3    0    0  0.38282336585E+02 -0.10511555325E+02  0.91168865599E+01  0.40732636922E+02  0.51100000000E-03 0. -1.
        -11    1    3    3    0    0 -0.79884614008E+00  0.23527553122E+01 -0.10344949993E+02  0.10639154259E+02  0.51100000000E-03 0.  1.
        -12    1    3    3    0    0 -0.37691897946E+02  0.84877333955E+01  0.11385158573E+00  0.38635912713E+02  0.00000000000E+00 0.  1.
</event>
<event>
 7    1  0.2284751E-015  0.9000773E+02  0.7816164E-02  0.1186339E+00
        -11   -1    0    0    0    0  0.00000000000E+00  0.00000000000E+00  0.45593999997E+02  0.45594000000E+02  0.51100000000E-03 0. -1.
         11   -1    0    0    0    0 -0.00000000000E+00 -0.00000000000E+00 -0.45593999997E+02  0.45594000000E+02  0.51100000000E-03 0.  1.
    9900012    2    1    2    0    0 -0.56402834861E-01 -0.87666537076E+00 -0.78823046041E+00  0.90007732780E+02  0.89999994053E+02 0.  0.
         12    1    1    2    0    0  0.56402834861E-01  0.87666537076E+00  0.78823046041E+00  0.11802672201E+01  0.00000000000E+00 0. -1.
         11    1    3    3    0    0  0.27436447503E+02  0.24752683435E+02 -0.10685980851E+02  0.38466143241E+02  0.51100000000E-03 0. -1.
        -11    1    3    3    0    0  0.22000336109E+01 -0.35395525189E+01 -0.90508364704E+01  0.99642471366E+01  0.51100000000E-03 0.  1.
        -12    1    3    3    0    0 -0.29692883949E+02 -0.22089796287E+02  0.18948586861E+02  0.41577342402E+02  0.00000000000E+00 0.  1.
</event>
<event>
 7    1  0.2284751E-015  0.9000765E+02  0.7816164E-02  0.1186339E+00
        -11   -1    0    0    0    0  0.00000000000E+00  0.00000000000E+00  0.45593999997E+02  0.45594000000E+02  0.51100000000E-03 0. -1.
         11   -1    0    0    0    0 -0.00000000000E+00 -0.00000000000E+00 -0.45593999997E+02  0.45594000000E+02  0.51100000000E-03 0.  1.
    9900012    2    1    2    0    0  0.11101977591E+01 -0.38368906928E+00  0.11607677342E+00  0.90007648280E+02  0.89999908437E+02 0.  0.
         12    1    1    2    0    0 -0.11101977591E+01  0.38368906928E+00 -0.11607677342E+00  0.11803517203E+01  0.00000000000E+00 0. -1.
         11    1    3    3    0    0 -0.16463459958E+01  0.32921521199E+00 -0.93118144342E+01  0.94619620646E+01  0.51100000000E-03 0. -1.
        -11    1    3    3    0    0  0.26918915189E+02 -0.93188915770E+01 -0.24803202308E+02  0.37771266594E+02  0.51100000000E-03 0.  1.
         12    1    3    3    0    0 -0.24162371434E+02  0.86059872958E+01  0.34231093515E+02  0.42774419621E+02  0.00000000000E+00 0. -1.
</event>
<event>
 7    1  0.2284751E-015  0.9000751E+02  0.7816164E-02  0.1186340E+00
        -11   -1    0    0    0    0  0.00000000000E+00  0.00000000000E+00  0.45593999997E+02  0.45594000000E+02  0.51100000000E-03 0.  1.
         11   -1    0    0    0    0 -0.00000000000E+00 -0.00000000000E+00 -0.45593999997E+02  0.45594000000E+02  0.51100000000E-03 0. -1.
    9900012    2    1    2    0    0 -0.15535545806E-01 -0.10780846109E+01  0.48068174021E+00  0.90007507426E+02  0.89999765724E+02 0.  0.
         12    1    1    2    0    0  0.15535545806E-01  0.10780846109E+01 -0.48068174021E+00  0.11804925738E+01  0.00000000000E+00 0. -1.
         11    1    3    3    0    0  0.63164799137E+00 -0.59745305957E+01  0.65404973213E+01  0.88809965936E+01  0.51100000000E-03 0. -1.
        -11    1    3    3    0    0  0.10872226668E+02 -0.23225676637E+02 -0.32114062979E+02  0.41096841840E+02  0.51100000000E-03 0.  1.
         12    1    3    3    0    0 -0.11519410205E+02  0.28122122622E+02  0.26054247397E+02  0.40029668993E+02  0.00000000000E+00 0. -1.
</event>
<event>
 7    1  0.2284751E-015  0.9000788E+02  0.7816164E-02  0.1186339E+00
        -11   -1    0    0    0    0  0.00000000000E+00  0.00000000000E+00  0.45593999997E+02  0.45594000000E+02  0.51100000000E-03 0. -1.
         11   -1    0    0    0    0 -0.00000000000E+00 -0.00000000000E+00 -0.45593999997E+02  0.45594000000E+02  0.51100000000E-03 0.  1.
    9900012    2    1    2    0    0 -0.41412041976E-01 -0.52949493924E+00  0.10538477471E+01  0.90007883513E+02  0.90000146776E+02 0.  0.
         12    1    1    2    0    0  0.41412041976E-01  0.52949493924E+00 -0.10538477471E+01  0.11801164866E+01  0.00000000000E+00 0. -1.
         11    1    3    3    0    0  0.70536194956E+01  0.23781086281E+01 -0.51843618693E+01  0.90711937962E+01  0.51100000000E-03 0. -1.
        -11    1    3    3    0    0  0.11288010242E+02 -0.67333380756E+01 -0.34043988848E+02  0.36493152698E+02  0.51100000000E-03 0.  1.
         12    1    3    3    0    0 -0.18383041780E+02  0.38257345083E+01  0.40282198465E+02  0.44443537019E+02  0.00000000000E+00 0. -1.
</event>
<event>
 7    1  0.2284751E-015  0.9000757E+02  0.7816164E-02  0.1186339E+00
        -11   -1    0    0    0    0  0.00000000000E+00  0.00000000000E+00  0.45593999997E+02  0.45594000000E+02  0.51100000000E-03 0.  1.
         11   -1    0    0    0    0 -0.00000000000E+00 -0.00000000000E+00 -0.45593999997E+02  0.45594000000E+02  0.51100000000E-03 0. -1.
    9900012    2    1    2    0    0  0.11003801980E+01 -0.14304979640E+00  0.40264895700E+00  0.90007565331E+02  0.89999824394E+02 0.  0.
         12    1    1    2    0    0 -0.11003801980E+01  0.14304979640E+00 -0.40264895700E+00  0.11804346687E+01  0.00000000000E+00 0. -1.
         11    1    3    3    0    0 -0.10113769656E+02  0.19706063006E+01 -0.55422541662E+01  0.11699923391E+02  0.51100000000E-03 0. -1.
        -11    1    3    3    0    0 -0.23379052074E+02 -0.12916177832E+02  0.25671186684E+02  0.37046154344E+02  0.51100000000E-03 0.  1.
         12    1    3    3    0    0  0.34593201929E+02  0.10802521735E+02 -0.19726283561E+02  0.41261487596E+02  0.00000000000E+00 0. -1.
</event>
<event>
 7    1  0.2284751E-015  0.9000762E+02  0.7816164E-02  0.1186339E+00
        -11   -1    0    0    0    0  0.00000000000E+00  0.00000000000E+00  0.45593999997E+02  0.45594000000E+02  0.51100000000E-03 0.  1.
         11   -1    0    0    0    0 -0.00000000000E+00 -0.00000000000E+00 -0.45593999997E+02  0.45594000000E+02  0.51100000000E-03 0. -1.
    9900012    2    1    2    0    0  0.11380994536E+01 -0.94113125081E-01  0.29861354123E+00  0.90007619683E+02  0.89999879462E+02 0.  0.
         12    1    1    2    0    0 -0.11380994536E+01  0.94113125081E-01 -0.29861354123E+00  0.11803803174E+01  0.00000000000E+00 0. -1.
         11    1    3    3    0    0  0.20130563082E+02 -0.30836159938E+02  0.89497806743E+01  0.37897320539E+02  0.51100000000E-03 0. -1.
        -11    1    3    3    0    0  0.10719850018E+01 -0.68025377382E+01 -0.65261862463E+01  0.94876118547E+01  0.51100000000E-03 0.  1.
        -12    1    3    3    0    0 -0.20064448630E+02  0.37544584551E+02 -0.21249808868E+01  0.42622687288E+02  0.00000000000E+00 0.  1.
</event>
<event>
 7    1  0.2284751E-015  0.9000771E+02  0.7816164E-02  0.1186339E+00
        -11   -1    0    0    0    0  0.00000000000E+00  0.00000000000E+00  0.45593999997E+02  0.45594000000E+02  0.51100000000E-03 0.  1.
         11   -1    0    0    0    0 -0.00000000000E+00 -0.00000000000E+00 -0.45593999997E+02  0.45594000000E+02  0.51100000000E-03 0. -1.
    9900012    2    1    2    0    0 -0.75382435378E+00  0.68584607712E+00  0.59536551175E+00  0.90007705083E+02  0.89999965990E+02 0.  0.
         12    1    1    2    0    0  0.75382435378E+00 -0.68584607712E+00 -0.59536551175E+00  0.11802949167E+01  0.00000000000E+00 0. -1.
         11    1    3    3    0    0 -0.23068669901E+01 -0.82625444771E+00  0.89177055470E+01  0.92482324909E+01  0.51100000000E-03 0. -1.
        -11    1    3    3    0    0  0.22669026533E+02  0.26097117294E+02  0.18031576500E+02  0.38988229587E+02  0.51100000000E-03 0.  1.
         12    1    3    3    0    0 -0.21115983897E+02 -0.24585016769E+02 -0.26353916535E+02  0.41771243005E+02  0.00000000000E+00 0. -1.
</event>
<event>
 7    1  0.2284751E-015  0.9000772E+02  0.7816164E-02  0.1186339E+00
        -11   -1    0    0    0    0  0.00000000000E+00  0.00000000000E+00  0.45593999997E+02  0.45594000000E+02  0.51100000000E-03 0. -1.
         11   -1    0    0    0    0 -0.00000000000E+00 -0.00000000000E+00 -0.45593999997E+02  0.45594000000E+02  0.51100000000E-03 0.  1.
    9900012    2    1    2    0    0 -0.99036541278E+00 -0.60028523689E+00 -0.22778661387E+00  0.90007723440E+02  0.89999984589E+02 0.  0.
         12    1    1    2    0    0  0.99036541278E+00  0.60028523689E+00  0.22778661387E+00  0.11802765599E+01  0.00000000000E+00 0. -1.
         11    1    3    3    0    0 -0.41264343079E+01  0.63978994201E+01 -0.50531601560E+01  0.91375601180E+01  0.51100000000E-03 0. -1.
        -11    1    3    3    0    0 -0.28773397393E+02 -0.33020166146E+01 -0.24073658077E+02  0.37661023947E+02  0.51100000000E-03 0.  1.
         12    1    3    3    0    0  0.31909466288E+02 -0.36961680424E+01  0.28899031620E+02  0.43209139375E+02  0.00000000000E+00 0. -1.
</event>
<event>
 7    1  0.2284751E-015  0.9000790E+02  0.7816164E-02  0.1186339E+00
        -11   -1    0    0    0    0  0.00000000000E+00  0.00000000000E+00  0.45593999997E+02  0.45594000000E+02  0.51100000000E-03 0. -1.
         11   -1    0    0    0    0 -0.00000000000E+00 -0.00000000000E+00 -0.45593999997E+02  0.45594000000E+02  0.51100000000E-03 0.  1.
    9900012    2    1    2    0    0  0.95656497457E-01 -0.93401522252E+00 -0.71491721546E+00  0.90007897790E+02  0.90000161241E+02 0.  0.
         12    1    1    2    0    0 -0.95656497457E-01  0.93401522252E+00  0.71491721546E+00  0.11801022101E+01  0.00000000000E+00 0. -1.
         11    1    3    3    0    0  0.48115218439E+00 -0.71576621698E+01 -0.37605784172E+01  0.80997274926E+01  0.51100000000E-03 0. -1.
        -11    1    3    3    0    0  0.39830211618E+02 -0.12355618842E+01 -0.51891495296E+01  0.40185813962E+02  0.51100000000E-03 0.  1.
         12    1    3    3    0    0 -0.40215707305E+02  0.74592088315E+01  0.82348107313E+01  0.41722356335E+02  0.00000000000E+00 0. -1.
</event>
<event>
 7    1  0.2284751E-015  0.9000778E+02  0.7816164E-02  0.1186339E+00
        -11   -1    0    0    0    0  0.00000000000E+00  0.00000000000E+00  0.45593999997E+02  0.45594000000E+02  0.51100000000E-03 0. -1.
         11   -1    0    0    0    0 -0.00000000000E+00 -0.00000000000E+00 -0.45593999997E+02  0.45594000000E+02  0.51100000000E-03 0.  1.
    9900012    2    1    2    0    0  0.70500896983E+00 -0.24041735249E+00 -0.91546986514E+00  0.90007778315E+02  0.90000040189E+02 0.  0.
         12    1    1    2    0    0 -0.70500896983E+00  0.24041735249E+00  0.91546986514E+00  0.11802216846E+01  0.00000000000E+00 0. -1.
         11    1    3    3    0    0 -0.58655650917E+01  0.20192647686E+02  0.14758899332E+02  0.25689939357E+02  0.51100000000E-03 0. -1.
        -11    1    3    3    0    0 -0.14781343963E+02  0.72620211794E+01  0.11452580817E+02  0.20059578475E+02  0.51100000000E-03 0.  1.
        -12    1    3    3    0    0  0.21351918024E+02 -0.27695086218E+02 -0.27126950014E+02  0.44258260483E+02  0.00000000000E+00 0.  1.
</event>
<event>
 7    1  0.2284751E-015  0.9000777E+02  0.7816164E-02  0.1186339E+00
        -11   -1    0    0    0    0  0.00000000000E+00  0.00000000000E+00  0.45593999997E+02  0.45594000000E+02  0.51100000000E-03 0. -1.
         11   -1    0    0    0    0 -0.00000000000E+00 -0.00000000000E+00 -0.45593999997E+02  0.45594000000E+02  0.51100000000E-03 0.  1.
    9900012    2    1    2    0    0  0.26219337867E+00 -0.11154077376E+01 -0.28294647388E+00  0.90007771846E+02  0.90000033634E+02 0.  0.
         12    1    1    2    0    0 -0.26219337867E+00  0.11154077376E+01  0.28294647388E+00  0.11802281542E+01  0.00000000000E+00 0. -1.
         11    1    3    3    0    0  0.29687238316E+01  0.29931547027E+01  0.75446282179E+01  0.86425523701E+01  0.51100000000E-03 0. -1.
        -11    1    3    3    0    0  0.36718000681E+01  0.38110129578E+02 -0.33265300745E+01  0.38430845617E+02  0.51100000000E-03 0.  1.
         12    1    3    3    0    0 -0.63783305210E+01 -0.42218692019E+02 -0.45010446173E+01  0.42934373859E+02  0.00000000000E+00 0. -1.
</event>
<event>
 7    1  0.2284751E-015  0.9000831E+02  0.7816164E-02  0.1186338E+00
        -11   -1    0    0    0    0  0.00000000000E+00  0.00000000000E+00  0.45593999997E+02  0.45594000000E+02  0.51100000000E-03 0.  1.
         11   -1    0    0    0    0 -0.00000000000E+00 -0.00000000000E+00 -0.45593999997E+02  0.45594000000E+02  0.51100000000E-03 0. -1.
    9900012    2    1    2    0    0 -0.87106216096E+00  0.76707600657E+00  0.21097137945E+00  0.90008311986E+02  0.90000580902E+02 0.  0.
         12    1    1    2    0    0  0.87106216096E+00 -0.76707600657E+00 -0.21097137945E+00  0.11796880143E+01  0.00000000000E+00 0. -1.
         11    1    3    3    0    0 -0.11327980700E+01  0.17537755400E+02 -0.32682895849E+02  0.37108324906E+02  0.51100000000E-03 0. -1.
        -11    1    3    3    0    0 -0.25866648318E+01  0.70857955633E+01 -0.42537142951E+01  0.86598740916E+01  0.51100000000E-03 0.  1.
        -12    1    3    3    0    0  0.28484007408E+01 -0.23856474957E+02  0.37147581524E+02  0.44240112988E+02  0.00000000000E+00 0.  1.
</event>
<event>
 7    1  0.2284751E-015  0.9000774E+02  0.7816164E-02  0.1186339E+00
        -11   -1    0    0    0    0  0.00000000000E+00  0.00000000000E+00  0.45593999997E+02  0.45594000000E+02  0.51100000000E-03 0.  1.
         11   -1    0    0    0    0 -0.00000000000E+00 -0.00000000000E+00 -0.45593999997E+02  0.45594000000E+02  0.51100000000E-03 0. -1.
    9900012    2    1    2    0    0  0.66003929608E+00  0.81163143179E-01 -0.97507616868E+00  0.90007740341E+02  0.90000001713E+02 0.  0.
         12    1    1    2    0    0 -0.66003929608E+00 -0.81163143179E-01  0.97507616868E+00  0.11802596591E+01  0.00000000000E+00 0. -1.
         11    1    3    3    0    0  0.18367371731E+00  0.54991362580E+01 -0.10776343831E+02  0.12099744718E+02  0.51100000000E-03 0. -1.
        -11    1    3    3    0    0  0.11586287734E+02 -0.31970843936E+00  0.41945765390E+02  0.43517714915E+02  0.51100000000E-03 0.  1.
         12    1    3    3    0    0 -0.11109922155E+02 -0.50982646754E+01 -0.32144497728E+02  0.34390280708E+02  0.00000000000E+00 0. -1.
</event>
<event>
 7    1  0.2284751E-015  0.9000780E+02  0.7816164E-02  0.1186339E+00
        -11   -1    0    0    0    0  0.00000000000E+00  0.00000000000E+00  0.45593999997E+02  0.45594000000E+02  0.51100000000E-03 0. -1.
         11   -1    0    0    0    0 -0.00000000000E+00 -0.00000000000E+00 -0.45593999997E+02  0.45594000000E+02  0.51100000000E-03 0.  1.
    9900012    2    1    2    0    0 -0.10751211031E+00  0.11633954640E+01  0.16682825537E+00  0.90007796828E+02  0.90000058946E+02 0.  0.
         12    1    1    2    0    0  0.10751211031E+00 -0.11633954640E+01 -0.16682825537E+00  0.11802031716E+01  0.00000000000E+00 0. -1.
         11    1    3    3    0    0  0.21601156267E+01 -0.31930765512E+02 -0.28357020581E+02  0.42759332341E+02  0.51100000000E-03 0. -1.
        -11    1    3    3    0    0 -0.55457575827E+01  0.11287236586E+02  0.19660007661E+01  0.12728797908E+02  0.51100000000E-03 0.  1.
        -12    1    3    3    0    0  0.32781298458E+01  0.21806924390E+02  0.26557848070E+02  0.34519666579E+02  0.00000000000E+00 0.  1.
</event>
<event>
 7    1  0.2284751E-015  0.9000776E+02  0.7816164E-02  0.1186339E+00
        -11   -1    0    0    0    0  0.00000000000E+00  0.00000000000E+00  0.45593999997E+02  0.45594000000E+02  0.51100000000E-03 0.  1.
         11   -1    0    0    0    0 -0.00000000000E+00 -0.00000000000E+00 -0.45593999997E+02  0.45594000000E+02  0.51100000000E-03 0. -1.
    9900012    2    1    2    0    0  0.10192038874E+01 -0.55636690164E+00 -0.21131653890E+00  0.90007756223E+02  0.90000017805E+02 0.  0.
         12    1    1    2    0    0 -0.10192038874E+01  0.55636690164E+00  0.21131653890E+00  0.11802437770E+01  0.00000000000E+00 0. -1.
         11    1    3    3    0    0 -0.29378635559E+01 -0.39371429186E+02 -0.10078740857E+01  0.39493749998E+02  0.51100000000E-03 0. -1.
        -11    1    3    3    0    0  0.84516777842E+01 -0.23821809845E+01  0.21861119611E+01  0.90490181444E+01  0.51100000000E-03 0.  1.
        -12    1    3    3    0    0 -0.44946103408E+01  0.41197243269E+02 -0.13895544144E+01  0.41464988081E+02  0.00000000000E+00 0.  1.
</event>
<event>
 7    1  0.3612524E-015  0.9000773E+02  0.7816164E-02  0.1186339E+00
        -11   -1    0    0    0    0  0.00000000000E+00  0.00000000000E+00  0.45593999997E+02  0.45594000000E+02  0.51100000000E-03 0. -1.
         11   -1    0    0    0    0 -0.00000000000E+00 -0.00000000000E+00 -0.45593999997E+02  0.45594000000E+02  0.51100000000E-03 0.  1.
    9900012    2    1    2    0    0  0.99006652293E+00 -0.42773401323E+00 -0.47942966496E+00  0.90007728459E+02  0.89999989675E+02 0.  0.
         12    1    1    2    0    0 -0.99006652293E+00  0.42773401323E+00  0.47942966496E+00  0.11802715406E+01  0.00000000000E+00 0. -1.
         11    1    3    3    0    0  0.31921760594E+02 -0.70037336943E+01  0.25552748775E+02  0.41484865376E+02  0.51100000000E-03 0. -1.
        -11    1    3    3    0    0 -0.25684106004E+01 -0.83482105179E+01 -0.38502198616E+01  0.95453415396E+01  0.51100000000E-03 0.  1.
        -12    1    3    3    0    0 -0.28363283470E+02  0.14924210199E+02 -0.22181958579E+02  0.38977521543E+02  0.00000000000E+00 0.  1.
</event>
<event>
 7    1  0.2284751E-015  0.9000768E+02  0.7816164E-02  0.1186339E+00
        -11   -1    0    0    0    0  0.00000000000E+00  0.00000000000E+00  0.45593999997E+02  0.45594000000E+02  0.51100000000E-03 0. -1.
         11   -1    0    0    0    0 -0.00000000000E+00 -0.00000000000E+00 -0.45593999997E+02  0.45594000000E+02  0.51100000000E-03 0.  1.
    9900012    2    1    2    0    0  0.64626252795E+00 -0.11208106619E+00 -0.98129058416E+00  0.90007682826E+02  0.89999943439E+02 0.  0.
         12    1    1    2    0    0 -0.64626252795E+00  0.11208106619E+00  0.98129058416E+00  0.11803171739E+01  0.00000000000E+00 0. -1.
         11    1    3    3    0    0 -0.32774138861E+02 -0.64178681955E+01  0.13284016034E+02  0.35941595575E+02  0.51100000000E-03 0. -1.
        -11    1    3    3    0    0  0.27151544119E+01 -0.11742026420E+02  0.55942603735E+01  0.13286948382E+02  0.51100000000E-03 0.  1.
        -12    1    3    3    0    0  0.30705246977E+02  0.18047813549E+02 -0.19859566991E+02  0.40779138869E+02  0.00000000000E+00 0.  1.
</event>
<event>
 7    1  0.2284751E-015  0.9000780E+02  0.7816164E-02  0.1186339E+00
        -11   -1    0    0    0    0  0.00000000000E+00  0.00000000000E+00  0.45593999997E+02  0.45594000000E+02  0.51100000000E-03 0. -1.
         11   -1    0    0    0    0 -0.00000000000E+00 -0.00000000000E+00 -0.45593999997E+02  0.45594000000E+02  0.51100000000E-03 0.  1.
    9900012    2    1    2    0    0 -0.11274762581E+00  0.47807312248E+00 -0.10731241749E+01  0.90007804494E+02  0.90000066713E+02 0.  0.
         12    1    1    2    0    0  0.11274762581E+00 -0.47807312248E+00  0.10731241749E+01  0.11801955060E+01  0.00000000000E+00 0. -1.
         11    1    3    3    0    0 -0.22469522938E+02 -0.13123656940E+02  0.23345575871E+02  0.34958915108E+02  0.51100000000E-03 0. -1.
        -11    1    3    3    0    0 -0.32837754867E+01 -0.11619026111E+02 -0.96698144572E+00  0.12112803251E+02  0.51100000000E-03 0.  1.
        -12    1    3    3    0    0  0.25640550799E+02  0.25220756174E+02 -0.23451718601E+02  0.42936086135E+02  0.00000000000E+00 0.  1.
</event>
<event>
 7    1  0.2284751E-015  0.9000771E+02  0.7816164E-02  0.1186339E+00
        -11   -1    0    0    0    0  0.00000000000E+00  0.00000000000E+00  0.45593999997E+02  0.45594000000E+02  0.51100000000E-03 0. -1.
         11   -1    0    0    0    0 -0.00000000000E+00 -0.00000000000E+00 -0.45593999997E+02  0.45594000000E+02  0.51100000000E-03 0.  1.
    9900012    2    1    2    0    0  0.37928927540E+00 -0.85349950472E+00 -0.72163230420E+00  0.90007714043E+02  0.89999975068E+02 0.  0.
         12    1    1    2    0    0 -0.37928927540E+00  0.85349950472E+00  0.72163230420E+00  0.11802859575E+01  0.00000000000E+00 0. -1.
         11    1    3    3    0    0  0.32749204645E+02  0.10881001403E+02 -0.11251056057E+02  0.36297284459E+02  0.51100000000E-03 0. -1.
        -11    1    3    3    0    0  0.76367956751E+01  0.51347364048E+01  0.27180269452E+01  0.95955112874E+01  0.51100000000E-03 0.  1.
        -12    1    3    3    0    0 -0.40006711045E+02 -0.16869237313E+02  0.78113968076E+01  0.44114918296E+02  0.00000000000E+00 0.  1.
</event>
<event>
 7    1  0.2284751E-015  0.9000775E+02  0.7816164E-02  0.1186339E+00
        -11   -1    0    0    0    0  0.00000000000E+00  0.00000000000E+00  0.45593999997E+02  0.45594000000E+02  0.51100000000E-03 0.  1.
         11   -1    0    0    0    0 -0.00000000000E+00 -0.00000000000E+00 -0.45593999997E+02  0.45594000000E+02  0.51100000000E-03 0. -1.
    9900012    2    1    2    0    0 -0.32477350046E+00 -0.25049837625E-01  0.11344044236E+01  0.90007754806E+02  0.90000016370E+02 0.  0.
         12    1    1    2    0    0  0.32477350046E+00  0.25049837625E-01 -0.11344044236E+01  0.11802451937E+01  0.00000000000E+00 0. -1.
         11    1    3    3    0    0  0.44093489669E+01 -0.41436614143E+01  0.71496277143E+01  0.93664008531E+01  0.51100000000E-03 0. -1.
        -11    1    3    3    0    0 -0.88415250187E+01 -0.21944584506E+02  0.28599740744E+02  0.37117145966E+02  0.51100000000E-03 0.  1.
         12    1    3    3    0    0  0.41074025514E+01  0.26063196082E+02 -0.34614964035E+02  0.43524207987E+02  0.00000000000E+00 0. -1.
</event>
<event>
 7    1  0.2284751E-015  0.9000778E+02  0.7816164E-02  0.1186339E+00
        -11   -1    0    0    0    0  0.00000000000E+00  0.00000000000E+00  0.45593999997E+02  0.45594000000E+02  0.51100000000E-03 0.  1.
         11   -1    0    0    0    0 -0.00000000000E+00 -0.00000000000E+00 -0.45593999997E+02  0.45594000000E+02  0.51100000000E-03 0. -1.
    9900012    2    1    2    0    0 -0.10638389038E+01 -0.29943571862E+00 -0.41413934326E+00  0.90007776988E+02  0.90000038844E+02 0.  0.
         12    1    1    2    0    0  0.10638389038E+01  0.29943571862E+00  0.41413934326E+00  0.11802230122E+01  0.00000000000E+00 0. -1.
         11    1    3    3    0    0  0.36378643895E+02  0.63870412941E+01  0.11774926936E+02  0.38766595579E+02  0.51100000000E-03 0. -1.
        -11    1    3    3    0    0 -0.47307542876E+01  0.97521860480E+01  0.35298673014E+01  0.11399347888E+02  0.51100000000E-03 0.  1.
        -12    1    3    3    0    0 -0.32711728512E+02 -0.16438663061E+02 -0.15718933580E+02  0.39841833521E+02  0.00000000000E+00 0.  1.
</event>
<event>
 7    1  0.2497531E-015  0.9000771E+02  0.7816164E-02  0.1186339E+00
        -11   -1    0    0    0    0  0.00000000000E+00  0.00000000000E+00  0.45593999997E+02  0.45594000000E+02  0.51100000000E-03 0. -1.
         11   -1    0    0    0    0 -0.00000000000E+00 -0.00000000000E+00 -0.45593999997E+02  0.45594000000E+02  0.51100000000E-03 0.  1.
    9900012    2    1    2    0    0  0.64170266965E+00  0.94963298434E+00  0.28195318196E+00  0.90007710748E+02  0.89999971730E+02 0.  0.
         12    1    1    2    0    0 -0.64170266965E+00 -0.94963298434E+00 -0.28195318196E+00  0.11802892518E+01  0.00000000000E+00 0. -1.
         11    1    3    3    0    0  0.37151451672E+02  0.73814923558E+00 -0.64328937450E+01  0.37711501532E+02  0.51100000000E-03 0. -1.
        -11    1    3    3    0    0  0.52374341389E+01 -0.77597899111E+01  0.12356646232E+01  0.94430886444E+01  0.51100000000E-03 0.  1.
        -12    1    3    3    0    0 -0.41747183141E+02  0.79712736598E+01  0.54791823037E+01  0.42853120571E+02  0.00000000000E+00 0.  1.
</event>
<event>
 7    1  0.2284751E-015  0.9000777E+02  0.7816164E-02  0.1186339E+00
        -11   -1    0    0    0    0  0.00000000000E+00  0.00000000000E+00  0.45593999997E+02  0.45594000000E+02  0.51100000000E-03 0. -1.
         11   -1    0    0    0    0 -0.00000000000E+00 -0.00000000000E+00 -0.45593999997E+02  0.45594000000E+02  0.51100000000E-03 0.  1.
    9900012    2    1    2    0    0  0.10413452539E+01 -0.10763048141E+00 -0.54493735885E+00  0.90007770792E+02  0.90000032566E+02 0.  0.
         12    1    1    2    0    0 -0.10413452539E+01  0.10763048141E+00  0.54493735885E+00  0.11802292080E+01  0.00000000000E+00 0. -1.
         11    1    3    3    0    0  0.60996249130E+01  0.61077590207E+01 -0.35893709413E+01  0.93484612825E+01  0.51100000000E-03 0. -1.
        -11    1    3    3    0    0  0.36174539917E+02 -0.25756346122E+01 -0.93468663884E+01  0.37451236874E+02  0.51100000000E-03 0.  1.
         12    1    3    3    0    0 -0.41232819576E+02 -0.36397548899E+01  0.12391299971E+02  0.43208072635E+02  0.00000000000E+00 0. -1.
</event>
<event>
 7    1  0.2284751E-015  0.9000776E+02  0.7816164E-02  0.1186339E+00
        -11   -1    0    0    0    0  0.00000000000E+00  0.00000000000E+00  0.45593999997E+02  0.45594000000E+02  0.51100000000E-03 0. -1.
         11   -1    0    0    0    0 -0.00000000000E+00 -0.00000000000E+00 -0.45593999997E+02  0.45594000000E+02  0.51100000000E-03 0.  1.
    9900012    2    1    2    0    0 -0.10297353092E+01 -0.13454078210E+00 -0.56081365255E+00  0.90007759354E+02  0.90000020978E+02 0.  0.
         12    1    1    2    0    0  0.10297353092E+01  0.13454078210E+00  0.56081365255E+00  0.11802406458E+01  0.00000000000E+00 0. -1.
         11    1    3    3    0    0  0.73126788956E+01 -0.52307072079E+01  0.13941714619E+01  0.90983121979E+01  0.51100000000E-03 0. -1.
        -11    1    3    3    0    0 -0.17657080268E+02  0.38064540612E+02  0.12415265287E+02  0.43758662548E+02  0.51100000000E-03 0.  1.
         12    1    3    3    0    0  0.93146660634E+01 -0.32968374186E+02 -0.14370250402E+02  0.37150784608E+02  0.00000000000E+00 0. -1.
</event>
<event>
 7    1  0.2284751E-015  0.9000642E+02  0.7816164E-02  0.1186342E+00
        -11   -1    0    0    0    0  0.00000000000E+00  0.00000000000E+00  0.45593999997E+02  0.45594000000E+02  0.51100000000E-03 0. -1.
         11   -1    0    0    0    0 -0.00000000000E+00 -0.00000000000E+00 -0.45593999997E+02  0.45594000000E+02  0.51100000000E-03 0.  1.
    9900012    2    1    2    0    0 -0.11173205947E+00  0.48179367122E+00 -0.10730908491E+01  0.90006419209E+02  0.89998663133E+02 0.  0.
         12    1    1    2    0    0  0.11173205947E+00 -0.48179367122E+00  0.10730908491E+01  0.11815807908E+01  0.00000000000E+00 0. -1.
         11    1    3    3    0    0  0.10868258072E+02 -0.79021906147E+01  0.24586350230E+02  0.28018784198E+02  0.51100000000E-03 0. -1.
        -11    1    3    3    0    0 -0.46459515072E+01 -0.83498170832E+00  0.17125831304E+02  0.17764463346E+02  0.51100000000E-03 0.  1.
        -12    1    3    3    0    0 -0.63340386247E+01  0.92189659942E+01 -0.42785272383E+02  0.44223171666E+02  0.00000000000E+00 0.  1.
</event>
<event>
 7    1  0.2284751E-015  0.9000776E+02  0.7816164E-02  0.1186339E+00
        -11   -1    0    0    0    0  0.00000000000E+00  0.00000000000E+00  0.45593999997E+02  0.45594000000E+02  0.51100000000E-03 0.  1.
         11   -1    0    0    0    0 -0.00000000000E+00 -0.00000000000E+00 -0.45593999997E+02  0.45594000000E+02  0.51100000000E-03 0. -1.
    9900012    2    1    2    0    0  0.91561310023E+00  0.49592683489E+00  0.55559500707E+00  0.90007755709E+02  0.90000017284E+02 0.  0.
         12    1    1    2    0    0 -0.91561310023E+00 -0.49592683489E+00 -0.55559500707E+00  0.11802442911E+01  0.00000000000E+00 0. -1.
         11    1    3    3    0    0 -0.21300902200E+02  0.11604400583E+02 -0.32632549300E+02  0.40660470011E+02  0.51100000000E-03 0. -1.
        -11    1    3    3    0    0  0.54118495018E+01  0.80813744711E+01  0.38228515987E+01  0.10450403006E+02  0.51100000000E-03 0.  1.
        -12    1    3    3    0    0  0.16804665799E+02 -0.19189848220E+02  0.29365292708E+02  0.38896882692E+02  0.00000000000E+00 0.  1.
</event>
<event>
 7    1  0.2284751E-015  0.9000776E+02  0.7816164E-02  0.1186339E+00
        -11   -1    0    0    0    0  0.00000000000E+00  0.00000000000E+00  0.45593999997E+02  0.45594000000E+02  0.51100000000E-03 0.  1.
         11   -1    0    0    0    0 -0.00000000000E+00 -0.00000000000E+00 -0.45593999997E+02  0.45594000000E+02  0.51100000000E-03 0. -1.
    9900012    2    1    2    0    0  0.98983364056E+00  0.33674175077E+00  0.54754883587E+00  0.90007756224E+02  0.90000017806E+02 0.  0.
         12    1    1    2    0    0 -0.98983364056E+00 -0.33674175077E+00 -0.54754883587E+00  0.11802437758E+01  0.00000000000E+00 0. -1.
         11    1    3    3    0    0  0.12379587641E+02  0.37522819789E+01  0.14518943795E+01  0.13016981515E+02  0.51100000000E-03 0. -1.
        -11    1    3    3    0    0 -0.15121345671E+01  0.35911891181E+02 -0.47663724075E+01  0.36258361592E+02  0.51100000000E-03 0.  1.
         12    1    3    3    0    0 -0.98776194330E+01 -0.39327431409E+02  0.38620268639E+01  0.40732413118E+02  0.00000000000E+00 0. -1.
</event>
<event>
 7    1  0.3284648E-015  0.9000793E+02  0.7816164E-02  0.1186339E+00
        -11   -1    0    0    0    0  0.00000000000E+00  0.00000000000E+00  0.45593999997E+02  0.45594000000E+02  0.51100000000E-03 0. -1.
         11   -1    0    0    0    0 -0.00000000000E+00 -0.00000000000E+00 -0.45593999997E+02  0.45594000000E+02  0.51100000000E-03 0.  1.
    9900012    2    1    2    0    0 -0.37688321391E-01 -0.18873267146E+00 -0.11642683339E+01  0.90007931704E+02  0.90000195602E+02 0.  0.
         12    1    1    2    0    0  0.37688321391E-01  0.18873267146E+00  0.11642683339E+01  0.11800682964E+01  0.00000000000E+00 0. -1.
         11    1    3    3    0    0  0.23110653310E+02 -0.16882859749E+02  0.32051569933E+02  0.42970180185E+02  0.51100000000E-03 0. -1.
        -11    1    3    3    0    0 -0.77514575996E+01 -0.27607689577E+01 -0.58294682571E+01  0.10084128152E+02  0.51100000000E-03 0.  1.
        -12    1    3    3    0    0 -0.15396884032E+02  0.19454896035E+02 -0.27386370010E+02  0.36953623367E+02  0.00000000000E+00 0.  1.
</event>
<event>
 7    1  0.2284751E-015  0.9000778E+02  0.7816164E-02  0.1186339E+00
        -11   -1    0    0    0    0  0.00000000000E+00  0.00000000000E+00  0.45593999997E+02  0.45594000000E+02  0.51100000000E-03 0.  1.
         11   -1    0    0    0    0 -0.00000000000E+00 -0.00000000000E+00 -0.45593999997E+02  0.45594000000E+02  0.51100000000E-03 0. -1.
    9900012    2    1    2    0    0 -0.43769904477E+00  0.89288505563E+00  0.63569279029E+00  0.90007775657E+02  0.90000037496E+02 0.  0.
         12    1    1    2    0    0  0.43769904477E+00 -0.89288505563E+00 -0.63569279029E+00  0.11802243431E+01  0.00000000000E+00 0. -1.
         11    1    3    3    0    0  0.22236426272E+02 -0.30751625700E+02 -0.13970080028E+02  0.40438648256E+02  0.51100000000E-03 0. -1.
        -11    1    3    3    0    0 -0.24602474548E+01 -0.36443293493E+01 -0.29274003195E+01  0.52823883648E+01  0.51100000000E-03 0.  1.
        -12    1    3    3    0    0 -0.20213877862E+02  0.35288840105E+02  0.17533173138E+02  0.44286739036E+02  0.00000000000E+00 0.  1.
</event>
<event>
 7    1  0.2284751E-015  0.9000831E+02  0.7816164E-02  0.1186338E+00
        -11   -1    0    0    0    0  0.00000000000E+00  0.00000000000E+00  0.45593999997E+02  0.45594000000E+02  0.51100000000E-03 0. -1.
         11   -1    0    0    0    0 -0.00000000000E+00 -0.00000000000E+00 -0.45593999997E+02  0.45594000000E+02  0.51100000000E-03 0.  1.
    9900012    2    1    2    0    0  0.10230155085E+01  0.55418552232E+00 -0.19490203341E+00  0.90008309733E+02  0.90000578619E+02 0.  0.
         12    1    1    2    0    0 -0.10230155085E+01 -0.55418552232E+00  0.19490203341E+00  0.11796902671E+01  0.00000000000E+00 0. -1.
         11    1    3    3    0    0 -0.25319483912E+02 -0.14616934273E+02  0.20065864508E+02  0.35459412739E+02  0.51100000000E-03 0. -1.
        -11    1    3    3    0    0 -0.23858114836E+01  0.38647919216E+01  0.10207922606E+02  0.11172752447E+02  0.51100000000E-03 0.  1.
        -12    1    3    3    0    0  0.28728310904E+02  0.11306327874E+02 -0.30468689148E+02  0.43376144547E+02  0.00000000000E+00 0.  1.
</event>
<event>
 7    1  0.2284751E-015  0.9000791E+02  0.7816164E-02  0.1186339E+00
        -11   -1    0    0    0    0  0.00000000000E+00  0.00000000000E+00  0.45593999997E+02  0.45594000000E+02  0.51100000000E-03 0.  1.
         11   -1    0    0    0    0 -0.00000000000E+00 -0.00000000000E+00 -0.45593999997E+02  0.45594000000E+02  0.51100000000E-03 0. -1.
    9900012    2    1    2    0    0  0.13020451811E+00  0.10769002934E+01 -0.46470815942E+00  0.90007906304E+02  0.90000169867E+02 0.  0.
         12    1    1    2    0    0 -0.13020451811E+00 -0.10769002934E+01  0.46470815942E+00  0.11800936963E+01  0.00000000000E+00 0. -1.
         11    1    3    3    0    0  0.55186030925E+01 -0.28475033236E+02 -0.24759997079E+02  0.38135809333E+02  0.51100000000E-03 0. -1.
        -11    1    3    3    0    0 -0.67238958943E+01 -0.50550493192E+01 -0.16830915187E+01  0.85788750392E+01  0.51100000000E-03 0.  1.
        -12    1    3    3    0    0  0.13354973199E+01  0.34606982849E+02  0.25978380438E+02  0.43293221931E+02  0.00000000000E+00 0.  1.
</event>
<event>
 7    1  0.2284751E-015  0.9000712E+02  0.7816164E-02  0.1186340E+00
        -11   -1    0    0    0    0  0.00000000000E+00  0.00000000000E+00  0.45593999997E+02  0.45594000000E+02  0.51100000000E-03 0. -1.
         11   -1    0    0    0    0 -0.00000000000E+00 -0.00000000000E+00 -0.45593999997E+02  0.45594000000E+02  0.51100000000E-03 0.  1.
    9900012    2    1    2    0    0  0.89826606675E-01  0.86105812144E+00 -0.80310419687E+00  0.90007124791E+02  0.89999378036E+02 0.  0.
         12    1    1    2    0    0 -0.89826606675E-01 -0.86105812144E+00  0.80310419687E+00  0.11808752088E+01  0.00000000000E+00 0. -1.
         11    1    3    3    0    0  0.15758659929E+02 -0.28190313272E+02 -0.13541768745E+02  0.35020117449E+02  0.51100000000E-03 0. -1.
        -11    1    3    3    0    0  0.72777998644E+01 -0.72282937211E+01  0.48277883607E+01  0.11336760635E+02  0.51100000000E-03 0.  1.
        -12    1    3    3    0    0 -0.22946633187E+02  0.36279665115E+02  0.79108761876E+01  0.43650246706E+02  0.00000000000E+00 0.  1.
</event>
<event>
 7    1  0.2284751E-015  0.9000776E+02  0.7816164E-02  0.1186339E+00
        -11   -1    0    0    0    0  0.00000000000E+00  0.00000000000E+00  0.45593999997E+02  0.45594000000E+02  0.51100000000E-03 0.  1.
         11   -1    0    0    0    0 -0.00000000000E+00 -0.00000000000E+00 -0.45593999997E+02  0.45594000000E+02  0.51100000000E-03 0. -1.
    9900012    2    1    2    0    0 -0.64429335877E-01 -0.79230907080E+00  0.87238846538E+00  0.90007760009E+02  0.90000021641E+02 0.  0.
         12    1    1    2    0    0  0.64429335877E-01  0.79230907080E+00 -0.87238846538E+00  0.11802399915E+01  0.00000000000E+00 0. -1.
         11    1    3    3    0    0 -0.34787056471E+00 -0.14827092798E+02 -0.73200589246E+00  0.14849226500E+02  0.51100000000E-03 0. -1.
        -11    1    3    3    0    0  0.18336278738E+02 -0.21188473171E+02  0.16903420925E+02  0.32724549691E+02  0.51100000000E-03 0.  1.
         12    1    3    3    0    0 -0.18052837510E+02  0.35223256898E+02 -0.15299026567E+02  0.42433983817E+02  0.00000000000E+00 0. -1.
</event>
<event>
 7    1  0.2284751E-015  0.9000783E+02  0.7816164E-02  0.1186339E+00
        -11   -1    0    0    0    0  0.00000000000E+00  0.00000000000E+00  0.45593999997E+02  0.45594000000E+02  0.51100000000E-03 0. -1.
         11   -1    0    0    0    0 -0.00000000000E+00 -0.00000000000E+00 -0.45593999997E+02  0.45594000000E+02  0.51100000000E-03 0.  1.
    9900012    2    1    2    0    0  0.11497978765E+01  0.20023367434E+00  0.17516297635E+00  0.90007825966E+02  0.90000088469E+02 0.  0.
         12    1    1    2    0    0 -0.11497978765E+01 -0.20023367434E+00 -0.17516297635E+00  0.11801740336E+01  0.00000000000E+00 0. -1.
         11    1    3    3    0    0 -0.26924722630E+01 -0.36953310642E+01 -0.83730130521E+01  0.95400328297E+01  0.51100000000E-03 0. -1.
        -11    1    3    3    0    0  0.15784676197E+02  0.32418730088E+02 -0.17459918639E+02  0.40062186939E+02  0.51100000000E-03 0.  1.
         12    1    3    3    0    0 -0.11942406058E+02 -0.28523165349E+02  0.26008094668E+02  0.40405606198E+02  0.00000000000E+00 0. -1.
</event>
<event>
 7    1  0.2284751E-015  0.9000772E+02  0.7816164E-02  0.1186339E+00
        -11   -1    0    0    0    0  0.00000000000E+00  0.00000000000E+00  0.45593999997E+02  0.45594000000E+02  0.51100000000E-03 0.  1.
         11   -1    0    0    0    0 -0.00000000000E+00 -0.00000000000E+00 -0.45593999997E+02  0.45594000000E+02  0.51100000000E-03 0. -1.
    9900012    2    1    2    0    0  0.94933456825E-01 -0.85068177908E+00  0.81264272189E+00  0.90007720354E+02  0.89999981462E+02 0.  0.
         12    1    1    2    0    0 -0.94933456825E-01  0.85068177908E+00 -0.81264272189E+00  0.11802796465E+01  0.00000000000E+00 0. -1.
         11    1    3    3    0    0  0.51747390405E+01  0.48203466740E+01  0.70568653558E+01  0.99906463808E+01  0.51100000000E-03 0. -1.
        -11    1    3    3    0    0 -0.40634751059E+01 -0.20268552760E+02  0.32547459361E+02  0.38557271325E+02  0.51100000000E-03 0.  1.
         12    1    3    3    0    0 -0.10163304777E+01  0.14597524307E+02 -0.38791681995E+02  0.41459802647E+02  0.00000000000E+00 0. -1.
</event>
<event>
 7    1  0.2284751E-015  0.9000774E+02  0.7816164E-02  0.1186339E+00
        -11   -1    0    0    0    0  0.00000000000E+00  0.00000000000E+00  0.45593999997E+02  0.45594000000E+02  0.51100000000E-03 0. -1.
         11   -1    0    0    0    0 -0.00000000000E+00 -0.00000000000E+00 -0.45593999997E+02  0.45594000000E+02  0.51100000000E-03 0.  1.
    9900012    2    1    2    0    0  0.48616218065E+00  0.75719443986E+00  0.76375195340E+00  0.90007739803E+02  0.90000001169E+02 0.  0.
         12    1    1    2    0    0 -0.48616218065E+00 -0.75719443986E+00 -0.76375195340E+00  0.11802601967E+01  0.00000000000E+00 0. -1.
         11    1    3    3    0    0 -0.29524387611E+02 -0.10067397534E+02  0.17403450394E+02  0.35720050991E+02  0.51100000000E-03 0. -1.
        -11    1    3    3    0    0 -0.33366696512E+00 -0.84368948761E+01 -0.16286004644E+02  0.18344657978E+02  0.51100000000E-03 0.  1.
        -12    1    3    3    0    0  0.30344216757E+02  0.19261486850E+02 -0.35369379610E+00  0.35943030834E+02  0.00000000000E+00 0.  1.
</event>
<event>
 7    1  0.3903882E-015  0.9000780E+02  0.7816164E-02  0.1186339E+00
        -11   -1    0    0    0    0  0.00000000000E+00  0.00000000000E+00  0.45593999997E+02  0.45594000000E+02  0.51100000000E-03 0. -1.
         11   -1    0    0    0    0 -0.00000000000E+00 -0.00000000000E+00 -0.45593999997E+02  0.45594000000E+02  0.51100000000E-03 0.  1.
    9900012    2    1    2    0    0 -0.51266429597E+00  0.27234103297E+00 -0.10275641675E+01  0.90007795595E+02  0.90000057697E+02 0.  0.
         12    1    1    2    0    0  0.51266429597E+00 -0.27234103297E+00  0.10275641675E+01  0.11802044047E+01  0.00000000000E+00 0. -1.
         11    1    3    3    0    0  0.59002489363E+01  0.10015465262E+02  0.34206984419E+02  0.36128109074E+02  0.51100000000E-03 0. -1.
        -11    1    3    3    0    0  0.85033693852E+01 -0.17909655894E+00  0.50352435002E+01  0.98839791504E+01  0.51100000000E-03 0.  1.
        -12    1    3    3    0    0 -0.14916282617E+02 -0.95640276705E+01 -0.40269792087E+02  0.43995707371E+02  0.00000000000E+00 0.  1.
</event>
<event>
 7    1  0.2284751E-015  0.9000768E+02  0.7816164E-02  0.1186339E+00
        -11   -1    0    0    0    0  0.00000000000E+00  0.00000000000E+00  0.45593999997E+02  0.45594000000E+02  0.51100000000E-03 0. -1.
         11   -1    0    0    0    0 -0.00000000000E+00 -0.00000000000E+00 -0.45593999997E+02  0.45594000000E+02  0.51100000000E-03 0.  1.
    9900012    2    1    2    0    0 -0.46910644269E-01  0.51529005301E-01 -0.11782565488E+01  0.90007684643E+02  0.89999945280E+02 0.  0.
         12    1    1    2    0    0  0.46910644269E-01 -0.51529005301E-01  0.11782565488E+01  0.11803153569E+01  0.00000000000E+00 0. -1.
         11    1    3    3    0    0  0.10372886326E+02 -0.20936878580E+01  0.59001875174E+01  0.12115795995E+02  0.51100000000E-03 0. -1.
        -11    1    3    3    0    0  0.25386216921E+02 -0.14936010271E+02 -0.20640324143E+02  0.35966197928E+02  0.51100000000E-03 0.  1.
         12    1    3    3    0    0 -0.35806013892E+02  0.17081227134E+02  0.13561880077E+02  0.41925690721E+02  0.00000000000E+00 0. -1.
</event>
<event>
 7    1  0.2284751E-015  0.9000729E+02  0.7816164E-02  0.1186340E+00
        -11   -1    0    0    0    0  0.00000000000E+00  0.00000000000E+00  0.45593999997E+02  0.45594000000E+02  0.51100000000E-03 0. -1.
         11   -1    0    0    0    0 -0.00000000000E+00 -0.00000000000E+00 -0.45593999997E+02  0.45594000000E+02  0.51100000000E-03 0.  1.
    9900012    2    1    2    0    0  0.24136706892E+00  0.10025612735E+01 -0.57505418744E+00  0.90007290685E+02  0.89999546120E+02 0.  0.
         12    1    1    2    0    0 -0.24136706892E+00 -0.10025612735E+01  0.57505418744E+00  0.11807093154E+01  0.00000000000E+00 0. -1.
         11    1    3    3    0    0  0.13845734195E+01 -0.74783160800E+00  0.40809361442E+02  0.40839689975E+02  0.51100000000E-03 0. -1.
        -11    1    3    3    0    0  0.14533469080E+01  0.80803820935E+01 -0.10731990418E+01  0.82798881911E+01  0.51100000000E-03 0.  1.
        -12    1    3    3    0    0 -0.25965532586E+01 -0.63299892121E+01 -0.40311216588E+02  0.40887712519E+02  0.00000000000E+00 0.  1.
</event>
<event>
 7    1  0.2284751E-015  0.9000794E+02  0.7816164E-02  0.1186339E+00
        -11   -1    0    0    0    0  0.00000000000E+00  0.00000000000E+00  0.45593999997E+02  0.45594000000E+02  0.51100000000E-03 0. -1.
         11   -1    0    0    0    0 -0.00000000000E+00 -0.00000000000E+00 -0.45593999997E+02  0.45594000000E+02  0.51100000000E-03 0.  1.
    9900012    2    1    2    0    0  0.50059738412E+00 -0.73840140424E+00 -0.77247439734E+00  0.90007935989E+02  0.90000199944E+02 0.  0.
         12    1    1    2    0    0 -0.50059738412E+00  0.73840140424E+00  0.77247439734E+00  0.11800640107E+01  0.00000000000E+00 0. -1.
         11    1    3    3    0    0 -0.31177220383E+01 -0.75330971342E+00 -0.97575445705E+01  0.10271189928E+02  0.51100000000E-03 0. -1.
        -11    1    3    3    0    0 -0.23063960841E+02 -0.25926593569E+02 -0.12359174057E+02  0.36835902695E+02  0.51100000000E-03 0.  1.
         12    1    3    3    0    0  0.26682280264E+02  0.25941501878E+02  0.21344244230E+02  0.42900843366E+02  0.00000000000E+00 0. -1.
</event>
<event>
 7    1  0.2284751E-015  0.9000776E+02  0.7816164E-02  0.1186339E+00
        -11   -1    0    0    0    0  0.00000000000E+00  0.00000000000E+00  0.45593999997E+02  0.45594000000E+02  0.51100000000E-03 0. -1.
         11   -1    0    0    0    0 -0.00000000000E+00 -0.00000000000E+00 -0.45593999997E+02  0.45594000000E+02  0.51100000000E-03 0.  1.
    9900012    2    1    2    0    0 -0.71087635924E+00  0.93511222962E+00 -0.11486545280E+00  0.90007756740E+02  0.90000018329E+02 0.  0.
         12    1    1    2    0    0  0.71087635924E+00 -0.93511222962E+00  0.11486545280E+00  0.11802432598E+01  0.00000000000E+00 0. -1.
         11    1    3    3    0    0  0.54777630375E+01 -0.18668273557E+01 -0.79950070149E+01  0.98697046410E+01  0.51100000000E-03 0. -1.
        -11    1    3    3    0    0 -0.26825493564E+02 -0.28706443875E+02 -0.64954837438E+01  0.39822836843E+02  0.51100000000E-03 0.  1.
         12    1    3    3    0    0  0.20636854167E+02  0.31508383460E+02  0.14375625306E+02  0.40315215256E+02  0.00000000000E+00 0. -1.
</event>
<event>
 7    1  0.2284751E-015  0.9000776E+02  0.7816164E-02  0.1186339E+00
        -11   -1    0    0    0    0  0.00000000000E+00  0.00000000000E+00  0.45593999997E+02  0.45594000000E+02  0.51100000000E-03 0.  1.
         11   -1    0    0    0    0 -0.00000000000E+00 -0.00000000000E+00 -0.45593999997E+02  0.45594000000E+02  0.51100000000E-03 0. -1.
    9900012    2    1    2    0    0 -0.10853508251E+01  0.45800460261E+00 -0.72144205876E-01  0.90007762983E+02  0.90000024654E+02 0.  0.
         12    1    1    2    0    0  0.10853508251E+01 -0.45800460261E+00  0.72144205876E-01  0.11802370169E+01  0.00000000000E+00 0. -1.
         11    1    3    3    0    0  0.33834272099E+02  0.52569637163E+01  0.14653870801E+02  0.37244188348E+02  0.51100000000E-03 0. -1.
        -11    1    3    3    0    0  0.82624378316E-01  0.77524137138E+00 -0.17215301345E+02  0.17232945965E+02  0.51100000000E-03 0.  1.
        -12    1    3    3    0    0 -0.35002247302E+02 -0.55742004851E+01  0.24892863380E+01  0.35530628671E+02  0.00000000000E+00 0.  1.
</event>
<event>
 7    1  0.2284751E-015  0.9000774E+02  0.7816164E-02  0.1186339E+00
        -11   -1    0    0    0    0  0.00000000000E+00  0.00000000000E+00  0.45593999997E+02  0.45594000000E+02  0.51100000000E-03 0.  1.
         11   -1    0    0    0    0 -0.00000000000E+00 -0.00000000000E+00 -0.45593999997E+02  0.45594000000E+02  0.51100000000E-03 0. -1.
    9900012    2    1    2    0    0  0.81808987065E+00 -0.60640018654E+00  0.59667815652E+00  0.90007738569E+02  0.89999999918E+02 0.  0.
         12    1    1    2    0    0 -0.81808987065E+00  0.60640018654E+00 -0.59667815652E+00  0.11802614309E+01  0.00000000000E+00 0. -1.
         11    1    3    3    0    0  0.30986639762E+01 -0.26405503889E+01 -0.73336973379E+01  0.83879283317E+01  0.51100000000E-03 0. -1.
        -11    1    3    3    0    0 -0.32345979879E+02 -0.17660820791E+02 -0.14105580511E+02  0.39460542409E+02  0.51100000000E-03 0.  1.
         12    1    3    3    0    0  0.30065405774E+02  0.19694970994E+02  0.22035956006E+02  0.42159267829E+02  0.00000000000E+00 0. -1.
</event>
<event>
 7    1  0.2284751E-015  0.9000776E+02  0.7816164E-02  0.1186339E+00
        -11   -1    0    0    0    0  0.00000000000E+00  0.00000000000E+00  0.45593999997E+02  0.45594000000E+02  0.51100000000E-03 0.  1.
         11   -1    0    0    0    0 -0.00000000000E+00 -0.00000000000E+00 -0.45593999997E+02  0.45594000000E+02  0.51100000000E-03 0. -1.
    9900012    2    1    2    0    0  0.39042898058E+00 -0.80135054691E+00  0.77353581084E+00  0.90007764795E+02  0.90000026491E+02 0.  0.
         12    1    1    2    0    0 -0.39042898058E+00  0.80135054691E+00 -0.77353581084E+00  0.11802352048E+01  0.00000000000E+00 0. -1.
         11    1    3    3    0    0 -0.64920097595E+01 -0.78771661811E+01  0.12886563964E+01  0.10288662368E+02  0.51100000000E-03 0. -1.
        -11    1    3    3    0    0 -0.18228363968E+02 -0.29845579025E+02 -0.21494681859E+01  0.35037866003E+02  0.51100000000E-03 0.  1.
         12    1    3    3    0    0  0.25110802709E+02  0.36921394659E+02  0.16343476004E+01  0.44681236424E+02  0.00000000000E+00 0. -1.
</event>
<event>
 7    1  0.2284751E-015  0.9000774E+02  0.7816164E-02  0.1186339E+00
        -11   -1    0    0    0    0  0.00000000000E+00  0.00000000000E+00  0.45593999997E+02  0.45594000000E+02  0.51100000000E-03 0.  1.
         11   -1    0    0    0    0 -0.00000000000E+00 -0.00000000000E+00 -0.45593999997E+02  0.45594000000E+02  0.51100000000E-03 0. -1.
    9900012    2    1    2    0    0 -0.11417109173E+01  0.77671484693E-01  0.28893601605E+00  0.90007737021E+02  0.89999998350E+02 0.  0.
         12    1    1    2    0    0  0.11417109173E+01 -0.77671484693E-01 -0.28893601605E+00  0.11802629790E+01  0.00000000000E+00 0. -1.
         11    1    3    3    0    0 -0.61106399417E+01  0.68298099907E+01  0.70246584091E+01  0.11546949858E+02  0.51100000000E-03 0. -1.
        -11    1    3    3    0    0 -0.28442743199E+02  0.20471856724E+02 -0.40746365364E+01  0.35280153367E+02  0.51100000000E-03 0.  1.
         12    1    3    3    0    0  0.33411672223E+02 -0.27223995230E+02 -0.26610858566E+01  0.43180633796E+02  0.00000000000E+00 0. -1.
</event>
<event>
 7    1  0.2284751E-015  0.9000781E+02  0.7816164E-02  0.1186339E+00
        -11   -1    0    0    0    0  0.00000000000E+00  0.00000000000E+00  0.45593999997E+02  0.45594000000E+02  0.51100000000E-03 0.  1.
         11   -1    0    0    0    0 -0.00000000000E+00 -0.00000000000E+00 -0.45593999997E+02  0.45594000000E+02  0.51100000000E-03 0. -1.
    9900012    2    1    2    0    0 -0.10659713462E+01  0.39632820750E+00  0.31540655239E+00  0.90007808383E+02  0.90000070654E+02 0.  0.
         12    1    1    2    0    0  0.10659713462E+01 -0.39632820750E+00 -0.31540655239E+00  0.11801916168E+01  0.00000000000E+00 0. -1.
         11    1    3    3    0    0  0.39612851589E+01  0.53640903774E+01  0.68436007651E+01  0.95551094908E+01  0.51100000000E-03 0. -1.
        -11    1    3    3    0    0 -0.17715564839E-01  0.19628603932E+02  0.30168727731E+02  0.35992145522E+02  0.51100000000E-03 0.  1.
         12    1    3    3    0    0 -0.50095409403E+01 -0.24596366102E+02 -0.36696921943E+02  0.44460553370E+02  0.00000000000E+00 0. -1.
</event>
<event>
 7    1  0.2284751E-015  0.9000771E+02  0.7816164E-02  0.1186339E+00
        -11   -1    0    0    0    0  0.00000000000E+00  0.00000000000E+00  0.45593999997E+02  0.45594000000E+02  0.51100000000E-03 0. -1.
         11   -1    0    0    0    0 -0.00000000000E+00 -0.00000000000E+00 -0.45593999997E+02  0.45594000000E+02  0.51100000000E-03 0.  1.
    9900012    2    1    2    0    0 -0.24631511302E+00 -0.11459514882E+01 -0.13857508912E+00  0.90007712322E+02  0.89999973324E+02 0.  0.
         12    1    1    2    0    0  0.24631511302E+00  0.11459514882E+01  0.13857508912E+00  0.11802876783E+01  0.00000000000E+00 0. -1.
         11    1    3    3    0    0  0.15255103888E+01  0.56538007367E+00  0.74237730223E+01  0.75999501789E+01  0.51100000000E-03 0. -1.
        -11    1    3    3    0    0  0.12098194098E+02  0.38025347930E+02 -0.53658154766E+01  0.40262704350E+02  0.51100000000E-03 0.  1.
         12    1    3    3    0    0 -0.13870019599E+02 -0.39736679492E+02 -0.21965326348E+01  0.42145057793E+02  0.00000000000E+00 0. -1.
</event>
<event>
 7    1  0.2284751E-015  0.9000779E+02  0.7816164E-02  0.1186339E+00
        -11   -1    0    0    0    0  0.00000000000E+00  0.00000000000E+00  0.45593999997E+02  0.45594000000E+02  0.51100000000E-03 0. -1.
         11   -1    0    0    0    0 -0.00000000000E+00 -0.00000000000E+00 -0.45593999997E+02  0.45594000000E+02  0.51100000000E-03 0.  1.
    9900012    2    1    2    0    0 -0.39625279270E+00 -0.97593860118E+00  0.53237008984E+00  0.90007792246E+02  0.90000054304E+02 0.  0.
         12    1    1    2    0    0  0.39625279270E+00  0.97593860118E+00 -0.53237008984E+00  0.11802077536E+01  0.00000000000E+00 0. -1.
         11    1    3    3    0    0 -0.17736439474E+01  0.94287996669E+01  0.11654215344E+01  0.96646926296E+01  0.51100000000E-03 0. -1.
        -11    1    3    3    0    0 -0.28674380553E+02 -0.78618813468E+01 -0.27090650103E+02  0.40223532934E+02  0.51100000000E-03 0.  1.
         12    1    3    3    0    0  0.30051771708E+02 -0.25428569212E+01  0.26457598658E+02  0.40119566683E+02  0.00000000000E+00 0. -1.
</event>
<event>
 7    1  0.2284751E-015  0.9000786E+02  0.7816164E-02  0.1186339E+00
        -11   -1    0    0    0    0  0.00000000000E+00  0.00000000000E+00  0.45593999997E+02  0.45594000000E+02  0.51100000000E-03 0.  1.
         11   -1    0    0    0    0 -0.00000000000E+00 -0.00000000000E+00 -0.45593999997E+02  0.45594000000E+02  0.51100000000E-03 0. -1.
    9900012    2    1    2    0    0 -0.11703742416E+01  0.14956850102E+00  0.24275316846E-01  0.90007857681E+02  0.90000120602E+02 0.  0.
         12    1    1    2    0    0  0.11703742416E+01 -0.14956850102E+00 -0.24275316846E-01  0.11801423189E+01  0.00000000000E+00 0. -1.
         11    1    3    3    0    0 -0.89094730319E+01  0.10791668896E+01 -0.18011695955E+01  0.91535524828E+01  0.51100000000E-03 0. -1.
        -11    1    3    3    0    0 -0.23740951759E+02 -0.46724927781E+00 -0.28530985882E+02  0.37119648004E+02  0.51100000000E-03 0.  1.
         12    1    3    3    0    0  0.31480050549E+02 -0.46234911073E+00  0.30356430795E+02  0.43734657194E+02  0.00000000000E+00 0. -1.
</event>
<event>
 7    1  0.2284751E-015  0.9000749E+02  0.7816164E-02  0.1186340E+00
        -11   -1    0    0    0    0  0.00000000000E+00  0.00000000000E+00  0.45593999997E+02  0.45594000000E+02  0.51100000000E-03 0. -1.
         11   -1    0    0    0    0 -0.00000000000E+00 -0.00000000000E+00 -0.45593999997E+02  0.45594000000E+02  0.51100000000E-03 0.  1.
    9900012    2    1    2    0    0 -0.85988830319E+00  0.60893032419E+00  0.53235423782E+00  0.90007489488E+02  0.89999747549E+02 0.  0.
         12    1    1    2    0    0  0.85988830319E+00 -0.60893032419E+00 -0.53235423782E+00  0.11805105117E+01  0.00000000000E+00 0. -1.
         11    1    3    3    0    0  0.33455074986E+02  0.20323313995E+02  0.86569381319E+00  0.39153908618E+02  0.51100000000E-03 0. -1.
        -11    1    3    3    0    0 -0.28810990134E+00 -0.18184272047E+01  0.10698816665E+02  0.10856074941E+02  0.51100000000E-03 0.  1.
        -12    1    3    3    0    0 -0.34026853387E+02 -0.17895956466E+02 -0.11032156241E+02  0.39997505930E+02  0.00000000000E+00 0.  1.
</event>
<event>
 7    1  0.2284751E-015  0.9000773E+02  0.7816164E-02  0.1186339E+00
        -11   -1    0    0    0    0  0.00000000000E+00  0.00000000000E+00  0.45593999997E+02  0.45594000000E+02  0.51100000000E-03 0.  1.
         11   -1    0    0    0    0 -0.00000000000E+00 -0.00000000000E+00 -0.45593999997E+02  0.45594000000E+02  0.51100000000E-03 0. -1.
    9900012    2    1    2    0    0  0.57294255242E+00  0.10096358143E+01 -0.21308515755E+00  0.90007731840E+02  0.89999993100E+02 0.  0.
         12    1    1    2    0    0 -0.57294255242E+00 -0.10096358143E+01  0.21308515755E+00  0.11802681603E+01  0.00000000000E+00 0. -1.
         11    1    3    3    0    0 -0.11681679437E+01 -0.42057992649E+01  0.83777308971E+01  0.94466787310E+01  0.51100000000E-03 0. -1.
        -11    1    3    3    0    0  0.15919121496E+02  0.35041812563E+01  0.32880841890E+02  0.36699420692E+02  0.51100000000E-03 0.  1.
         12    1    3    3    0    0 -0.14178011000E+02  0.17112538229E+01 -0.41471657945E+02  0.43861632417E+02  0.00000000000E+00 0. -1.
</event>
<event>
 7    1  0.2284751E-015  0.9000786E+02  0.7816164E-02  0.1186339E+00
        -11   -1    0    0    0    0  0.00000000000E+00  0.00000000000E+00  0.45593999997E+02  0.45594000000E+02  0.51100000000E-03 0. -1.
         11   -1    0    0    0    0 -0.00000000000E+00 -0.00000000000E+00 -0.45593999997E+02  0.45594000000E+02  0.51100000000E-03 0.  1.
    9900012    2    1    2    0    0 -0.86101431136E-02  0.77294191694E+00 -0.89175066109E+00  0.90007859083E+02  0.90000122023E+02 0.  0.
         12    1    1    2    0    0  0.86101431136E-02 -0.77294191694E+00  0.89175066109E+00  0.11801409166E+01  0.00000000000E+00 0. -1.
         11    1    3    3    0    0 -0.25663547551E+02 -0.31294250006E+02 -0.69006050626E+01  0.41055646467E+02  0.51100000000E-03 0. -1.
        -11    1    3    3    0    0 -0.45885695701E+01  0.39168634945E+01  0.46424422878E+01  0.76124280614E+01  0.51100000000E-03 0.  1.
        -12    1    3    3    0    0  0.30243506978E+02  0.28150328428E+02  0.13664121136E+01  0.41339784555E+02  0.00000000000E+00 0.  1.
</event>
<event>
 7    1  0.2561161E-015  0.9000778E+02  0.7816164E-02  0.1186339E+00
        -11   -1    0    0    0    0  0.00000000000E+00  0.00000000000E+00  0.45593999997E+02  0.45594000000E+02  0.51100000000E-03 0.  1.
         11   -1    0    0    0    0 -0.00000000000E+00 -0.00000000000E+00 -0.45593999997E+02  0.45594000000E+02  0.51100000000E-03 0. -1.
    9900012    2    1    2    0    0 -0.48031712077E+00  0.98206883455E+00  0.44470300731E+00  0.90007777776E+02  0.90000039643E+02 0.  0.
         12    1    1    2    0    0  0.48031712077E+00 -0.98206883455E+00 -0.44470300731E+00  0.11802222236E+01  0.00000000000E+00 0. -1.
         11    1    3    3    0    0  0.11215396717E+02 -0.29513360825E+01 -0.34136415423E+02  0.36052605542E+02  0.51100000000E-03 0. -1.
        -11    1    3    3    0    0  0.42212696968E+01 -0.71757306272E+01 -0.51125439975E+01  0.97697663368E+01  0.51100000000E-03 0.  1.
        -12    1    3    3    0    0 -0.15916983535E+02  0.11109135544E+02  0.39693662428E+02  0.44185405897E+02  0.00000000000E+00 0.  1.
</event>
<event>
 7    1  0.2284751E-015  0.9000835E+02  0.7816164E-02  0.1186338E+00
        -11   -1    0    0    0    0  0.00000000000E+00  0.00000000000E+00  0.45593999997E+02  0.45594000000E+02  0.51100000000E-03 0. -1.
         11   -1    0    0    0    0 -0.00000000000E+00 -0.00000000000E+00 -0.45593999997E+02  0.45594000000E+02  0.51100000000E-03 0.  1.
    9900012    2    1    2    0    0 -0.11246477747E+01  0.24117017029E+00  0.26186978600E+00  0.90008351131E+02  0.90000620564E+02 0.  0.
         12    1    1    2    0    0  0.11246477747E+01 -0.24117017029E+00 -0.26186978600E+00  0.11796488685E+01  0.00000000000E+00 0. -1.
         11    1    3    3    0    0 -0.88559232955E+00  0.61590201722E+01  0.74153149793E+01  0.96801187885E+01  0.51100000000E-03 0. -1.
        -11    1    3    3    0    0 -0.86114919667E+01  0.18520893107E+02  0.29258920711E+02  0.35682849057E+02  0.51100000000E-03 0.  1.
         12    1    3    3    0    0  0.83724365215E+01 -0.24438743109E+02 -0.36412365904E+02  0.44645383286E+02  0.00000000000E+00 0. -1.
</event>
<event>
 7    1  0.2284751E-015  0.9000775E+02  0.7816164E-02  0.1186339E+00
        -11   -1    0    0    0    0  0.00000000000E+00  0.00000000000E+00  0.45593999997E+02  0.45594000000E+02  0.51100000000E-03 0. -1.
         11   -1    0    0    0    0 -0.00000000000E+00 -0.00000000000E+00 -0.45593999997E+02  0.45594000000E+02  0.51100000000E-03 0.  1.
    9900012    2    1    2    0    0  0.13965924026E+00  0.31764508992E+00 -0.11280937104E+01  0.90007746415E+02  0.90000007867E+02 0.  0.
         12    1    1    2    0    0 -0.13965924026E+00 -0.31764508992E+00  0.11280937104E+01  0.11802535854E+01  0.00000000000E+00 0. -1.
         11    1    3    3    0    0  0.17576367200E+02 -0.33095674564E+02  0.24794684381E+01  0.37555294205E+02  0.51100000000E-03 0. -1.
        -11    1    3    3    0    0  0.15515117551E+01 -0.67217647055E+01 -0.41468982399E+01  0.80489797339E+01  0.51100000000E-03 0.  1.
        -12    1    3    3    0    0 -0.18988219715E+02  0.40135084360E+02  0.53933609147E+00  0.44403472476E+02  0.00000000000E+00 0.  1.
</event>
<event>
 7    1  0.2284751E-015  0.9000779E+02  0.7816164E-02  0.1186339E+00
        -11   -1    0    0    0    0  0.00000000000E+00  0.00000000000E+00  0.45593999997E+02  0.45594000000E+02  0.51100000000E-03 0.  1.
         11   -1    0    0    0    0 -0.00000000000E+00 -0.00000000000E+00 -0.45593999997E+02  0.45594000000E+02  0.51100000000E-03 0. -1.
    9900012    2    1    2    0    0 -0.19120778493E+00 -0.11468810647E+01 -0.20250911087E+00  0.90007785387E+02  0.90000047354E+02 0.  0.
         12    1    1    2    0    0  0.19120778493E+00  0.11468810647E+01  0.20250911087E+00  0.11802146134E+01  0.00000000000E+00 0. -1.
         11    1    3    3    0    0 -0.29053809890E+02 -0.16513788940E+02 -0.25406908882E+02  0.41980234795E+02  0.51100000000E-03 0. -1.
        -11    1    3    3    0    0  0.23402980691E+01 -0.62353564365E+01  0.46089770555E+01  0.80993416215E+01  0.51100000000E-03 0.  1.
        -12    1    3    3    0    0  0.26522304035E+02  0.21602264312E+02  0.20595422715E+02  0.39928208970E+02  0.00000000000E+00 0.  1.
</event>
<event>
 7    1  0.2284751E-015  0.9000768E+02  0.7816164E-02  0.1186339E+00
        -11   -1    0    0    0    0  0.00000000000E+00  0.00000000000E+00  0.45593999997E+02  0.45594000000E+02  0.51100000000E-03 0.  1.
         11   -1    0    0    0    0 -0.00000000000E+00 -0.00000000000E+00 -0.45593999997E+02  0.45594000000E+02  0.51100000000E-03 0. -1.
    9900012    2    1    2    0    0  0.84735219464E+00 -0.20576630153E+00  0.79548916038E+00  0.90007682874E+02  0.89999943488E+02 0.  0.
         12    1    1    2    0    0 -0.84735219464E+00  0.20576630153E+00 -0.79548916038E+00  0.11803171256E+01  0.00000000000E+00 0. -1.
         11    1    3    3    0    0  0.97676650153E+01 -0.15098378232E+01  0.67889207445E+01  0.11990677013E+02  0.51100000000E-03 0. -1.
        -11    1    3    3    0    0  0.14498282459E+02  0.13987313390E+02  0.28211746464E+02  0.34666233844E+02  0.51100000000E-03 0.  1.
         12    1    3    3    0    0 -0.23418595279E+02 -0.12683241868E+02 -0.34205178048E+02  0.43350772017E+02  0.00000000000E+00 0. -1.
</event>
<event>
 7    1  0.2284751E-015  0.9000779E+02  0.7816164E-02  0.1186339E+00
        -11   -1    0    0    0    0  0.00000000000E+00  0.00000000000E+00  0.45593999997E+02  0.45594000000E+02  0.51100000000E-03 0. -1.
         11   -1    0    0    0    0 -0.00000000000E+00 -0.00000000000E+00 -0.45593999997E+02  0.45594000000E+02  0.51100000000E-03 0.  1.
    9900012    2    1    2    0    0  0.36822499056E+00  0.53061191374E+00 -0.98780198394E+00  0.90007791795E+02  0.90000053847E+02 0.  0.
         12    1    1    2    0    0 -0.36822499056E+00 -0.53061191374E+00  0.98780198394E+00  0.11802082046E+01  0.00000000000E+00 0. -1.
         11    1    3    3    0    0  0.89618333688E+01 -0.20957936816E+01  0.36256230471E+01  0.98920145181E+01  0.51100000000E-03 0. -1.
        -11    1    3    3    0    0  0.35549343098E+02  0.20503487951E+00 -0.50332238222E+01  0.35904472929E+02  0.51100000000E-03 0.  1.
         12    1    3    3    0    0 -0.44142951476E+02  0.24213707158E+01  0.41979879119E+00  0.44211304348E+02  0.00000000000E+00 0. -1.
</event>
<event>
 7    1  0.2284751E-015  0.9000788E+02  0.7816164E-02  0.1186339E+00
        -11   -1    0    0    0    0  0.00000000000E+00  0.00000000000E+00  0.45593999997E+02  0.45594000000E+02  0.51100000000E-03 0.  1.
         11   -1    0    0    0    0 -0.00000000000E+00 -0.00000000000E+00 -0.45593999997E+02  0.45594000000E+02  0.51100000000E-03 0. -1.
    9900012    2    1    2    0    0 -0.33884972175E+00 -0.91558767894E+00  0.66299854428E+00  0.90007878395E+02  0.90000141590E+02 0.  0.
         12    1    1    2    0    0  0.33884972175E+00  0.91558767894E+00 -0.66299854428E+00  0.11801216045E+01  0.00000000000E+00 0. -1.
         11    1    3    3    0    0 -0.91174579884E+01 -0.41158365333E+02  0.21096372242E+00  0.42156655263E+02  0.51100000000E-03 0. -1.
        -11    1    3    3    0    0  0.50819994744E-01  0.93599903550E+01  0.10648900100E+02  0.14177837484E+02  0.51100000000E-03 0.  1.
        -12    1    3    3    0    0  0.87277882719E+01  0.30882787299E+02 -0.10196865279E+02  0.33673385648E+02  0.00000000000E+00 0.  1.
</event>
<event>
 7    1  0.2284751E-015  0.9000777E+02  0.7816164E-02  0.1186339E+00
        -11   -1    0    0    0    0  0.00000000000E+00  0.00000000000E+00  0.45593999997E+02  0.45594000000E+02  0.51100000000E-03 0.  1.
         11   -1    0    0    0    0 -0.00000000000E+00 -0.00000000000E+00 -0.45593999997E+02  0.45594000000E+02  0.51100000000E-03 0. -1.
    9900012    2    1    2    0    0 -0.55587188149E+00 -0.39906708924E+00 -0.96161068410E+00  0.90007769854E+02  0.90000031616E+02 0.  0.
         12    1    1    2    0    0  0.55587188149E+00  0.39906708924E+00  0.96161068410E+00  0.11802301463E+01  0.00000000000E+00 0. -1.
         11    1    3    3    0    0 -0.63901210653E+01 -0.79253930543E+01  0.85226937780E+00  0.10216254972E+02  0.51100000000E-03 0. -1.
        -11    1    3    3    0    0  0.24020791841E+02 -0.88276730503E+01  0.30147960566E+02  0.39545237117E+02  0.51100000000E-03 0.  1.
         12    1    3    3    0    0 -0.18186542657E+02  0.16353999015E+02 -0.31961840628E+02  0.40246277765E+02  0.00000000000E+00 0. -1.
</event>
<event>
 7    1  0.2284751E-015  0.9000774E+02  0.7816164E-02  0.1186339E+00
        -11   -1    0    0    0    0  0.00000000000E+00  0.00000000000E+00  0.45593999997E+02  0.45594000000E+02  0.51100000000E-03 0.  1.
         11   -1    0    0    0    0 -0.00000000000E+00 -0.00000000000E+00 -0.45593999997E+02  0.45594000000E+02  0.51100000000E-03 0. -1.
    9900012    2    1    2    0    0  0.24969441996E+00 -0.17768666099E+00  0.11397794349E+01  0.90007738583E+02  0.89999999932E+02 0.  0.
         12    1    1    2    0    0 -0.24969441996E+00  0.17768666099E+00 -0.11397794349E+01  0.11802614173E+01  0.00000000000E+00 0. -1.
         11    1    3    3    0    0 -0.88476484860E+01 -0.34665907545E+02 -0.19137542851E+02  0.40574025882E+02  0.51100000000E-03 0. -1.
        -11    1    3    3    0    0 -0.86009527691E+01  0.12196062295E+02  0.80231538874E+00  0.14945368322E+02  0.51100000000E-03 0.  1.
        -12    1    3    3    0    0  0.17698295675E+02  0.22292158589E+02  0.19475006897E+02  0.34488344379E+02  0.00000000000E+00 0.  1.
</event>
<event>
 7    1  0.2284751E-015  0.9000818E+02  0.7816164E-02  0.1186338E+00
        -11   -1    0    0    0    0  0.00000000000E+00  0.00000000000E+00  0.45593999997E+02  0.45594000000E+02  0.51100000000E-03 0.  1.
         11   -1    0    0    0    0 -0.00000000000E+00 -0.00000000000E+00 -0.45593999997E+02  0.45594000000E+02  0.51100000000E-03 0. -1.
    9900012    2    1    2    0    0  0.11365419522E+00 -0.65378804746E+00  0.97551305218E+00  0.90008177216E+02  0.90000444354E+02 0.  0.
         12    1    1    2    0    0 -0.11365419522E+00  0.65378804746E+00 -0.97551305218E+00  0.11798227842E+01  0.00000000000E+00 0. -1.
         11    1    3    3    0    0 -0.30553344519E+01 -0.13447589211E+02  0.31766476254E+01  0.14151459804E+02  0.51100000000E-03 0. -1.
        -11    1    3    3    0    0 -0.17505864944E+01 -0.13719574590E+02  0.30489214606E+02  0.33479598080E+02  0.51100000000E-03 0.  1.
         12    1    3    3    0    0  0.49195751415E+01  0.26513375753E+02 -0.32690349180E+02  0.42377119332E+02  0.00000000000E+00 0. -1.
</event>
<event>
 7    1  0.2284751E-015  0.9000774E+02  0.7816164E-02  0.1186339E+00
        -11   -1    0    0    0    0  0.00000000000E+00  0.00000000000E+00  0.45593999997E+02  0.45594000000E+02  0.51100000000E-03 0.  1.
         11   -1    0    0    0    0 -0.00000000000E+00 -0.00000000000E+00 -0.45593999997E+02  0.45594000000E+02  0.51100000000E-03 0. -1.
    9900012    2    1    2    0    0  0.65171653952E+00 -0.87677513458E+00  0.44671433174E+00  0.90007736140E+02  0.89999997457E+02 0.  0.
         12    1    1    2    0    0 -0.65171653952E+00  0.87677513458E+00 -0.44671433174E+00  0.11802638598E+01  0.00000000000E+00 0. -1.
         11    1    3    3    0    0 -0.67762096699E+01 -0.64082489094E+01  0.13905490270E+01  0.94295439144E+01  0.51100000000E-03 0. -1.
        -11    1    3    3    0    0 -0.23770975423E+02 -0.11670996076E+02  0.25068764693E+02  0.36465249012E+02  0.51100000000E-03 0.  1.
         12    1    3    3    0    0  0.31198901633E+02  0.17202469851E+02 -0.26012599388E+02  0.44112943214E+02  0.00000000000E+00 0. -1.
</event>
<event>
 7    1  0.2284751E-015  0.9000814E+02  0.7816164E-02  0.1186338E+00
        -11   -1    0    0    0    0  0.00000000000E+00  0.00000000000E+00  0.45593999997E+02  0.45594000000E+02  0.51100000000E-03 0.  1.
         11   -1    0    0    0    0 -0.00000000000E+00 -0.00000000000E+00 -0.45593999997E+02  0.45594000000E+02  0.51100000000E-03 0. -1.
    9900012    2    1    2    0    0 -0.71827283740E+00  0.14555032705E-01  0.93591317038E+00  0.90008143576E+02  0.90000410271E+02 0.  0.
         12    1    1    2    0    0  0.71827283740E+00 -0.14555032705E-01 -0.93591317038E+00  0.11798564236E+01  0.00000000000E+00 0. -1.
         11    1    3    3    0    0 -0.26103710409E+02 -0.24107812766E+02  0.20252604439E+02  0.40899368214E+02  0.51100000000E-03 0. -1.
        -11    1    3    3    0    0  0.32113602460E+01  0.53732830728E+01  0.73704242877E+01  0.96699617400E+01  0.51100000000E-03 0.  1.
        -12    1    3    3    0    0  0.22174077325E+02  0.18749084726E+02 -0.26687115556E+02  0.39438813623E+02  0.00000000000E+00 0.  1.
</event>
<event>
 7    1  0.2284751E-015  0.9000773E+02  0.7816164E-02  0.1186339E+00
        -11   -1    0    0    0    0  0.00000000000E+00  0.00000000000E+00  0.45593999997E+02  0.45594000000E+02  0.51100000000E-03 0. -1.
         11   -1    0    0    0    0 -0.00000000000E+00 -0.00000000000E+00 -0.45593999997E+02  0.45594000000E+02  0.51100000000E-03 0.  1.
    9900012    2    1    2    0    0  0.64483161955E+00  0.82962975583E+00 -0.53754339569E+00  0.90007726196E+02  0.89999987382E+02 0.  0.
         12    1    1    2    0    0 -0.64483161955E+00 -0.82962975583E+00  0.53754339569E+00  0.11802738036E+01  0.00000000000E+00 0. -1.
         11    1    3    3    0    0  0.12567864071E+02  0.30436234646E+02 -0.13892526168E+02  0.35739584081E+02  0.51100000000E-03 0. -1.
        -11    1    3    3    0    0 -0.25594959577E+01  0.82570684418E+01 -0.61982818585E+01  0.10637147036E+02  0.51100000000E-03 0.  1.
        -12    1    3    3    0    0 -0.93635364934E+01 -0.37863673332E+02  0.19553264631E+02  0.43630995079E+02  0.00000000000E+00 0.  1.
</event>
<event>
 7    1  0.2284751E-015  0.9000763E+02  0.7816164E-02  0.1186339E+00
        -11   -1    0    0    0    0  0.00000000000E+00  0.00000000000E+00  0.45593999997E+02  0.45594000000E+02  0.51100000000E-03 0.  1.
         11   -1    0    0    0    0 -0.00000000000E+00 -0.00000000000E+00 -0.45593999997E+02  0.45594000000E+02  0.51100000000E-03 0. -1.
    9900012    2    1    2    0    0  0.11077274863E+01 -0.36267647664E+00 -0.18622177311E+00  0.90007630160E+02  0.89999890078E+02 0.  0.
         12    1    1    2    0    0 -0.11077274863E+01  0.36267647664E+00  0.18622177311E+00  0.11803698400E+01  0.00000000000E+00 0. -1.
         11    1    3    3    0    0  0.19662936437E+01 -0.15875993418E+02 -0.15822883696E+02  0.22500602801E+02  0.51100000000E-03 0. -1.
        -11    1    3    3    0    0 -0.29007575431E+02 -0.19770387819E+00 -0.47073579987E+01  0.29387714079E+02  0.51100000000E-03 0.  1.
         12    1    3    3    0    0  0.28149009274E+02  0.15711020820E+02  0.20344019922E+02  0.38119313279E+02  0.00000000000E+00 0. -1.
</event>
<event>
 7    1  0.2284751E-015  0.9000667E+02  0.7816164E-02  0.1186341E+00
        -11   -1    0    0    0    0  0.00000000000E+00  0.00000000000E+00  0.45593999997E+02  0.45594000000E+02  0.51100000000E-03 0.  1.
         11   -1    0    0    0    0 -0.00000000000E+00 -0.00000000000E+00 -0.45593999997E+02  0.45594000000E+02  0.51100000000E-03 0. -1.
    9900012    2    1    2    0    0 -0.10638850269E+01  0.11592361684E+00  0.50025550005E+00  0.90006668040E+02  0.89998915251E+02 0.  0.
         12    1    1    2    0    0  0.10638850269E+01 -0.11592361684E+00 -0.50025550005E+00  0.11813319605E+01  0.00000000000E+00 0. -1.
         11    1    3    3    0    0 -0.85467387663E+00 -0.61462125402E+01  0.69203879116E+01  0.92950613302E+01  0.51100000000E-03 0. -1.
        -11    1    3    3    0    0 -0.28821152516E+02  0.13101199332E+02  0.22980662587E+02  0.39120469188E+02  0.51100000000E-03 0.  1.
         12    1    3    3    0    0  0.28611941365E+02 -0.68390631754E+01 -0.29400794998E+02  0.41591137522E+02  0.00000000000E+00 0. -1.
</event>
<event>
 7    1  0.2284751E-015  0.9000783E+02  0.7816164E-02  0.1186339E+00
        -11   -1    0    0    0    0  0.00000000000E+00  0.00000000000E+00  0.45593999997E+02  0.45594000000E+02  0.51100000000E-03 0. -1.
         11   -1    0    0    0    0 -0.00000000000E+00 -0.00000000000E+00 -0.45593999997E+02  0.45594000000E+02  0.51100000000E-03 0.  1.
    9900012    2    1    2    0    0 -0.96133255084E-01 -0.11680609311E+01 -0.13854029464E+00  0.90007829947E+02  0.90000092502E+02 0.  0.
         12    1    1    2    0    0  0.96133255084E-01  0.11680609311E+01  0.13854029464E+00  0.11801700533E+01  0.00000000000E+00 0. -1.
         11    1    3    3    0    0 -0.30112617970E+01 -0.10157605676E+01 -0.73876782659E+01  0.80422172044E+01  0.51100000000E-03 0. -1.
        -11    1    3    3    0    0  0.30345947843E+02  0.32510356448E+01 -0.25028573139E+02  0.39469928514E+02  0.51100000000E-03 0.  1.
         12    1    3    3    0    0 -0.27430819301E+02 -0.34033360082E+01  0.32277711110E+02  0.42495684228E+02  0.00000000000E+00 0. -1.
</event>
<event>
 7    1  0.2284751E-015  0.9000777E+02  0.7816164E-02  0.1186339E+00
        -11   -1    0    0    0    0  0.00000000000E+00  0.00000000000E+00  0.45593999997E+02  0.45594000000E+02  0.51100000000E-03 0. -1.
         11   -1    0    0    0    0 -0.00000000000E+00 -0.00000000000E+00 -0.45593999997E+02  0.45594000000E+02  0.51100000000E-03 0.  1.
    9900012    2    1    2    0    0  0.24053320411E+00  0.20570896266E+00 -0.11370005396E+01  0.90007770096E+02  0.90000031861E+02 0.  0.
         12    1    1    2    0    0 -0.24053320411E+00 -0.20570896266E+00  0.11370005396E+01  0.11802299042E+01  0.00000000000E+00 0. -1.
         11    1    3    3    0    0  0.75834870246E+01 -0.44934311797E+01 -0.51936076701E+01  0.10231019505E+02  0.51100000000E-03 0. -1.
        -11    1    3    3    0    0  0.34296262583E+01 -0.17212900907E+02 -0.31843529235E+02  0.36360096924E+02  0.51100000000E-03 0.  1.
         12    1    3    3    0    0 -0.10772580079E+02  0.21912041050E+02  0.35900136366E+02  0.43416653667E+02  0.00000000000E+00 0. -1.
</event>
<event>
 7    1  0.2284751E-015  0.9000777E+02  0.7816164E-02  0.1186339E+00
        -11   -1    0    0    0    0  0.00000000000E+00  0.00000000000E+00  0.45593999997E+02  0.45594000000E+02  0.51100000000E-03 0.  1.
         11   -1    0    0    0    0 -0.00000000000E+00 -0.00000000000E+00 -0.45593999997E+02  0.45594000000E+02  0.51100000000E-03 0. -1.
    9900012    2    1    2    0    0  0.93384497174E+00 -0.18090771895E+00  0.69867755809E+00  0.90007769360E+02  0.90000031115E+02 0.  0.
         12    1    1    2    0    0 -0.93384497174E+00  0.18090771895E+00 -0.69867755809E+00  0.11802306403E+01  0.00000000000E+00 0. -1.
         11    1    3    3    0    0  0.40364430320E+02  0.26396934738E+00 -0.35216360011E+01  0.40518623314E+02  0.51100000000E-03 0. -1.
        -11    1    3    3    0    0  0.39819317209E+00 -0.47933249758E+01  0.79063906647E+01  0.92544873294E+01  0.51100000000E-03 0.  1.
        -12    1    3    3    0    0 -0.39828778520E+02  0.43484479094E+01 -0.36860771055E+01  0.40234658717E+02  0.00000000000E+00 0.  1.
</event>
<event>
 7    1  0.2284751E-015  0.9000745E+02  0.7816164E-02  0.1186340E+00
        -11   -1    0    0    0    0  0.00000000000E+00  0.00000000000E+00  0.45593999997E+02  0.45594000000E+02  0.51100000000E-03 0. -1.
         11   -1    0    0    0    0 -0.00000000000E+00 -0.00000000000E+00 -0.45593999997E+02  0.45594000000E+02  0.51100000000E-03 0.  1.
    9900012    2    1    2    0    0 -0.39847734084E+00  0.63558748110E+00  0.91156009105E+00  0.90007450367E+02  0.89999707911E+02 0.  0.
         12    1    1    2    0    0  0.39847734084E+00 -0.63558748110E+00 -0.91156009105E+00  0.11805496334E+01  0.00000000000E+00 0. -1.
         11    1    3    3    0    0  0.21946913803E+02 -0.13041379955E+02  0.27597875212E+02  0.37595043996E+02  0.51100000000E-03 0. -1.
        -11    1    3    3    0    0  0.12462740632E+01  0.47031352991E+00  0.81821871824E+01  0.82899083955E+01  0.51100000000E-03 0.  1.
        -12    1    3    3    0    0 -0.23591665207E+02  0.13206653906E+02 -0.34868502304E+02  0.44122497975E+02  0.00000000000E+00 0.  1.
</event>
<event>
 7    1  0.2284751E-015  0.9000770E+02  0.7816164E-02  0.1186339E+00
        -11   -1    0    0    0    0  0.00000000000E+00  0.00000000000E+00  0.45593999997E+02  0.45594000000E+02  0.51100000000E-03 0. -1.
         11   -1    0    0    0    0 -0.00000000000E+00 -0.00000000000E+00 -0.45593999997E+02  0.45594000000E+02  0.51100000000E-03 0.  1.
    9900012    2    1    2    0    0  0.33941569872E+00  0.10794810963E+01 -0.33559294255E+00  0.90007701276E+02  0.89999962133E+02 0.  0.
         12    1    1    2    0    0 -0.33941569872E+00 -0.10794810963E+01  0.33559294255E+00  0.11802987236E+01  0.00000000000E+00 0. -1.
         11    1    3    3    0    0  0.35081199783E+02 -0.15594486295E+02  0.10572643205E+01  0.38405681729E+02  0.51100000000E-03 0. -1.
        -11    1    3    3    0    0 -0.22724084422E+01  0.13942678928E+02 -0.10692359866E+02  0.17716904233E+02  0.51100000000E-03 0.  1.
        -12    1    3    3    0    0 -0.32469375642E+02  0.27312884628E+01  0.92995026028E+01  0.33885115315E+02  0.00000000000E+00 0.  1.
</event>
<event>
 7    1  0.2284751E-015  0.9000772E+02  0.7816164E-02  0.1186339E+00
        -11   -1    0    0    0    0  0.00000000000E+00  0.00000000000E+00  0.45593999997E+02  0.45594000000E+02  0.51100000000E-03 0. -1.
         11   -1    0    0    0    0 -0.00000000000E+00 -0.00000000000E+00 -0.45593999997E+02  0.45594000000E+02  0.51100000000E-03 0.  1.
    9900012    2    1    2    0    0 -0.16648978390E+00 -0.29141769685E+00 -0.11315514344E+01  0.90007723858E+02  0.89999985013E+02 0.  0.
         12    1    1    2    0    0  0.16648978390E+00  0.29141769685E+00  0.11315514344E+01  0.11802761418E+01  0.00000000000E+00 0. -1.
         11    1    3    3    0    0  0.96074902904E+00  0.37835962404E+02  0.45879933673E+01  0.38125224893E+02  0.51100000000E-03 0. -1.
        -11    1    3    3    0    0 -0.39401302238E+01  0.51553470287E+01 -0.55029578242E+01  0.85079242029E+01  0.51100000000E-03 0.  1.
        -12    1    3    3    0    0  0.28128914108E+01 -0.43282727130E+02 -0.21658697753E+00  0.43374574762E+02  0.00000000000E+00 0.  1.
</event>
<event>
 7    1  0.2284751E-015  0.9000777E+02  0.7816164E-02  0.1186339E+00
        -11   -1    0    0    0    0  0.00000000000E+00  0.00000000000E+00  0.45593999997E+02  0.45594000000E+02  0.51100000000E-03 0.  1.
         11   -1    0    0    0    0 -0.00000000000E+00 -0.00000000000E+00 -0.45593999997E+02  0.45594000000E+02  0.51100000000E-03 0. -1.
    9900012    2    1    2    0    0  0.72270194939E+00  0.93297705493E+00  0.13719113537E-01  0.90007774383E+02  0.90000036205E+02 0.  0.
         12    1    1    2    0    0 -0.72270194939E+00 -0.93297705493E+00 -0.13719113537E-01  0.11802256169E+01  0.00000000000E+00 0. -1.
         11    1    3    3    0    0 -0.13103595076E+02 -0.33353880840E+02 -0.89799896790E+01  0.36943548637E+02  0.51100000000E-03 0. -1.
        -11    1    3    3    0    0  0.39224052430E+00 -0.72238688459E+01  0.58802559309E+01  0.93228506266E+01  0.51100000000E-03 0.  1.
        -12    1    3    3    0    0  0.13434056501E+02  0.41510726741E+02  0.31134528616E+01  0.43741375119E+02  0.00000000000E+00 0.  1.
</event>
<event>
 7    1  0.2284751E-015  0.9000772E+02  0.7816164E-02  0.1186339E+00
        -11   -1    0    0    0    0  0.00000000000E+00  0.00000000000E+00  0.45593999997E+02  0.45594000000E+02  0.51100000000E-03 0. -1.
         11   -1    0    0    0    0 -0.00000000000E+00 -0.00000000000E+00 -0.45593999997E+02  0.45594000000E+02  0.51100000000E-03 0.  1.
    9900012    2    1    2    0    0 -0.91741649399E+00 -0.73113090208E+00 -0.12981317141E+00  0.90007721694E+02  0.89999982821E+02 0.  0.
         12    1    1    2    0    0  0.91741649399E+00  0.73113090208E+00  0.12981317141E+00  0.11802783057E+01  0.00000000000E+00 0. -1.
         11    1    3    3    0    0  0.19474631689E+01 -0.40317494387E+02 -0.15126933003E+02  0.43105882067E+02  0.51100000000E-03 0. -1.
        -11    1    3    3    0    0 -0.51807804211E+01  0.81201160959E+01 -0.35937946507E+01  0.10280667850E+02  0.51100000000E-03 0.  1.
        -12    1    3    3    0    0  0.23159007582E+01  0.31466247389E+02  0.18590914482E+02  0.36621171778E+02  0.00000000000E+00 0.  1.
</event>
<event>
 7    1  0.2284751E-015  0.9000770E+02  0.7816164E-02  0.1186339E+00
        -11   -1    0    0    0    0  0.00000000000E+00  0.00000000000E+00  0.45593999997E+02  0.45594000000E+02  0.51100000000E-03 0.  1.
         11   -1    0    0    0    0 -0.00000000000E+00 -0.00000000000E+00 -0.45593999997E+02  0.45594000000E+02  0.51100000000E-03 0. -1.
    9900012    2    1    2    0    0  0.86959961759E+00 -0.79774292948E+00  0.22769820150E-01  0.90007696759E+02  0.89999957556E+02 0.  0.
         12    1    1    2    0    0 -0.86959961759E+00  0.79774292948E+00 -0.22769820150E-01  0.11803032412E+01  0.00000000000E+00 0. -1.
         11    1    3    3    0    0 -0.49696951125E+01 -0.55966394135E+01  0.10142912717E+02  0.12605511528E+02  0.51100000000E-03 0. -1.
        -11    1    3    3    0    0  0.88230802676E+01 -0.21043601355E+02  0.24901947188E+02  0.33775536671E+02  0.51100000000E-03 0.  1.
         12    1    3    3    0    0 -0.29837855374E+01  0.25842497839E+02 -0.35022090085E+02  0.43626648560E+02  0.00000000000E+00 0. -1.
</event>
<event>
 7    1  0.2284751E-015  0.9000742E+02  0.7816164E-02  0.1186340E+00
        -11   -1    0    0    0    0  0.00000000000E+00  0.00000000000E+00  0.45593999997E+02  0.45594000000E+02  0.51100000000E-03 0. -1.
         11   -1    0    0    0    0 -0.00000000000E+00 -0.00000000000E+00 -0.45593999997E+02  0.45594000000E+02  0.51100000000E-03 0.  1.
    9900012    2    1    2    0    0  0.86920907558E+00 -0.72315749397E+00 -0.33953471979E+00  0.90007421750E+02  0.89999678917E+02 0.  0.
         12    1    1    2    0    0 -0.86920907558E+00  0.72315749397E+00  0.33953471979E+00  0.11805782499E+01  0.00000000000E+00 0. -1.
         11    1    3    3    0    0  0.17383511125E+01 -0.21984491247E+01 -0.93746968624E+01  0.97846811225E+01  0.51100000000E-03 0. -1.
        -11    1    3    3    0    0  0.11238346651E+01  0.20425421651E+02 -0.30274835368E+02  0.36538014599E+02  0.51100000000E-03 0.  1.
         12    1    3    3    0    0 -0.19929767021E+01 -0.18950130020E+02  0.39309997511E+02  0.43684726029E+02  0.00000000000E+00 0. -1.
</event>
<event>
 7    1  0.2284751E-015  0.9000721E+02  0.7816164E-02  0.1186340E+00
        -11   -1    0    0    0    0  0.00000000000E+00  0.00000000000E+00  0.45593999997E+02  0.45594000000E+02  0.51100000000E-03 0. -1.
         11   -1    0    0    0    0 -0.00000000000E+00 -0.00000000000E+00 -0.45593999997E+02  0.45594000000E+02  0.51100000000E-03 0.  1.
    9900012    2    1    2    0    0 -0.55939980606E+00 -0.53542778453E+00  0.89143020587E+00  0.90007212607E+02  0.89999467012E+02 0.  0.
         12    1    1    2    0    0  0.55939980606E+00  0.53542778453E+00 -0.89143020587E+00  0.11807873930E+01  0.00000000000E+00 0. -1.
         11    1    3    3    0    0 -0.36858041495E+01 -0.67174510097E+00 -0.32817986580E+00  0.37608637298E+01  0.51100000000E-03 0. -1.
        -11    1    3    3    0    0 -0.21809200992E+02  0.17054681052E+02 -0.31383896791E+02  0.41850356889E+02  0.51100000000E-03 0.  1.
         12    1    3    3    0    0  0.24935605335E+02 -0.16918363735E+02  0.32603506863E+02  0.44395991988E+02  0.00000000000E+00 0. -1.
</event>
<event>
 7    1  0.2284751E-015  0.9000774E+02  0.7816164E-02  0.1186339E+00
        -11   -1    0    0    0    0  0.00000000000E+00  0.00000000000E+00  0.45593999997E+02  0.45594000000E+02  0.51100000000E-03 0.  1.
         11   -1    0    0    0    0 -0.00000000000E+00 -0.00000000000E+00 -0.45593999997E+02  0.45594000000E+02  0.51100000000E-03 0. -1.
    9900012    2    1    2    0    0  0.70641684900E+00 -0.89336209563E+00 -0.30966653800E+00  0.90007739875E+02  0.90000001241E+02 0.  0.
         12    1    1    2    0    0 -0.70641684900E+00  0.89336209563E+00  0.30966653800E+00  0.11802601252E+01  0.00000000000E+00 0. -1.
         11    1    3    3    0    0 -0.60890913061E+01 -0.24060797394E+02 -0.61752087841E+01  0.25576008444E+02  0.51100000000E-03 0. -1.
        -11    1    3    3    0    0 -0.54489929095E+01  0.77036791390E+01 -0.25606356660E+02  0.27289626191E+02  0.51100000000E-03 0.  1.
        -12    1    3    3    0    0  0.12244501065E+02  0.15463756159E+02  0.31471898906E+02  0.37142105239E+02  0.00000000000E+00 0.  1.
</event>
<event>
 7    1  0.2284751E-015  0.9000768E+02  0.7816164E-02  0.1186339E+00
        -11   -1    0    0    0    0  0.00000000000E+00  0.00000000000E+00  0.45593999997E+02  0.45594000000E+02  0.51100000000E-03 0. -1.
         11   -1    0    0    0    0 -0.00000000000E+00 -0.00000000000E+00 -0.45593999997E+02  0.45594000000E+02  0.51100000000E-03 0.  1.
    9900012    2    1    2    0    0  0.10720923625E+01 -0.41190174051E+00  0.27224160096E+00  0.90007677770E+02  0.89999938316E+02 0.  0.
         12    1    1    2    0    0 -0.10720923625E+01  0.41190174051E+00 -0.27224160096E+00  0.11803222301E+01  0.00000000000E+00 0. -1.
         11    1    3    3    0    0  0.44264350726E+01 -0.20496350509E+02  0.31840622958E+02  0.38125044029E+02  0.51100000000E-03 0. -1.
        -11    1    3    3    0    0 -0.45120834239E+01 -0.17727970729E+01  0.64170042558E+01  0.80423659557E+01  0.51100000000E-03 0.  1.
        -12    1    3    3    0    0  0.11577407138E+01  0.21857245841E+02 -0.37985385612E+02  0.43840267785E+02  0.00000000000E+00 0.  1.
</event>
<event>
 7    1  0.2284751E-015  0.9000764E+02  0.7816164E-02  0.1186339E+00
        -11   -1    0    0    0    0  0.00000000000E+00  0.00000000000E+00  0.45593999997E+02  0.45594000000E+02  0.51100000000E-03 0. -1.
         11   -1    0    0    0    0 -0.00000000000E+00 -0.00000000000E+00 -0.45593999997E+02  0.45594000000E+02  0.51100000000E-03 0.  1.
    9900012    2    1    2    0    0  0.67796154587E+00  0.96007700331E-01 -0.96145763267E+00  0.90007639836E+02  0.89999899882E+02 0.  0.
         12    1    1    2    0    0 -0.67796154587E+00 -0.96007700331E-01  0.96145763267E+00  0.11803601635E+01  0.00000000000E+00 0. -1.
         11    1    3    3    0    0  0.18553597156E+02 -0.20949850516E+02 -0.20204884957E+02  0.34516221990E+02  0.51100000000E-03 0. -1.
        -11    1    3    3    0    0  0.97413560724E+01 -0.74715022966E+01  0.58095322643E+01  0.13581900827E+02  0.51100000000E-03 0.  1.
        -12    1    3    3    0    0 -0.27616991683E+02  0.28517360513E+02  0.13433895060E+02  0.41909517019E+02  0.00000000000E+00 0.  1.
</event>
<event>
 7    1  0.2284751E-015  0.9000780E+02  0.7816164E-02  0.1186339E+00
        -11   -1    0    0    0    0  0.00000000000E+00  0.00000000000E+00  0.45593999997E+02  0.45594000000E+02  0.51100000000E-03 0.  1.
         11   -1    0    0    0    0 -0.00000000000E+00 -0.00000000000E+00 -0.45593999997E+02  0.45594000000E+02  0.51100000000E-03 0. -1.
    9900012    2    1    2    0    0  0.10071725668E+00  0.31042532044E+00  0.11341755469E+01  0.90007804247E+02  0.90000066463E+02 0.  0.
         12    1    1    2    0    0 -0.10071725668E+00 -0.31042532044E+00 -0.11341755469E+01  0.11801957534E+01  0.00000000000E+00 0. -1.
         11    1    3    3    0    0  0.25151028486E+02 -0.24702796657E+02  0.12246212733E+02  0.37319862314E+02  0.51100000000E-03 0. -1.
        -11    1    3    3    0    0  0.87313481397E+01  0.48850332363E+01 -0.87533998519E+01  0.13293682683E+02  0.51100000000E-03 0.  1.
        -12    1    3    3    0    0 -0.33781659369E+02  0.20128188741E+02 -0.23586373343E+01  0.39394259249E+02  0.00000000000E+00 0.  1.
</event>
<event>
 7    1  0.2284751E-015  0.9000755E+02  0.7816164E-02  0.1186339E+00
        -11   -1    0    0    0    0  0.00000000000E+00  0.00000000000E+00  0.45593999997E+02  0.45594000000E+02  0.51100000000E-03 0.  1.
         11   -1    0    0    0    0 -0.00000000000E+00 -0.00000000000E+00 -0.45593999997E+02  0.45594000000E+02  0.51100000000E-03 0. -1.
    9900012    2    1    2    0    0  0.16754829153E+00  0.32567694964E+00  0.11221960815E+01  0.90007550107E+02  0.89999808968E+02 0.  0.
         12    1    1    2    0    0 -0.16754829153E+00 -0.32567694964E+00 -0.11221960815E+01  0.11804498934E+01  0.00000000000E+00 0. -1.
         11    1    3    3    0    0 -0.26196002314E+02  0.63722682155E+01 -0.24392616957E+02  0.36357063986E+02  0.51100000000E-03 0. -1.
        -11    1    3    3    0    0 -0.57599954940E+01 -0.37655939369E+01 -0.55985812870E+01  0.88713786120E+01  0.51100000000E-03 0.  1.
        -12    1    3    3    0    0  0.32123546099E+02 -0.22809973289E+01  0.31113394326E+02  0.44779107508E+02  0.00000000000E+00 0.  1.
</event>
<event>
 7    1  0.2284751E-015  0.9000770E+02  0.7816164E-02  0.1186339E+00
        -11   -1    0    0    0    0  0.00000000000E+00  0.00000000000E+00  0.45593999997E+02  0.45594000000E+02  0.51100000000E-03 0.  1.
         11   -1    0    0    0    0 -0.00000000000E+00 -0.00000000000E+00 -0.45593999997E+02  0.45594000000E+02  0.51100000000E-03 0. -1.
    9900012    2    1    2    0    0 -0.42500483703E+00 -0.10133149854E+01  0.43090525206E+00  0.90007696773E+02  0.89999957571E+02 0.  0.
         12    1    1    2    0    0  0.42500483703E+00  0.10133149854E+01 -0.43090525206E+00  0.11803032269E+01  0.00000000000E+00 0. -1.
         11    1    3    3    0    0 -0.11922997561E+02 -0.33525477409E+01  0.62373330199E+01  0.13867291396E+02  0.51100000000E-03 0. -1.
        -11    1    3    3    0    0 -0.27075197089E+02 -0.35185396021E+01  0.15796686937E+02  0.31543331098E+02  0.51100000000E-03 0.  1.
         12    1    3    3    0    0  0.38573189813E+02  0.58577723576E+01 -0.21603114705E+02  0.44597074279E+02  0.00000000000E+00 0. -1.
</event>
<event>
 7    1  0.2284751E-015  0.9000776E+02  0.7816164E-02  0.1186339E+00
        -11   -1    0    0    0    0  0.00000000000E+00  0.00000000000E+00  0.45593999997E+02  0.45594000000E+02  0.51100000000E-03 0.  1.
         11   -1    0    0    0    0 -0.00000000000E+00 -0.00000000000E+00 -0.45593999997E+02  0.45594000000E+02  0.51100000000E-03 0. -1.
    9900012    2    1    2    0    0  0.11351638254E+01  0.10679212952E-01 -0.32289789565E+00  0.90007756802E+02  0.90000018392E+02 0.  0.
         12    1    1    2    0    0 -0.11351638254E+01 -0.10679212952E-01  0.32289789565E+00  0.11802431983E+01  0.00000000000E+00 0. -1.
         11    1    3    3    0    0  0.59596737320E+01  0.58003727752E+01  0.19852991904E+01  0.85500554653E+01  0.51100000000E-03 0. -1.
        -11    1    3    3    0    0  0.33789674550E+02  0.78132196620E+01 -0.16128102635E+02  0.38247930696E+02  0.51100000000E-03 0.  1.
         12    1    3    3    0    0 -0.38614184457E+02 -0.13602913224E+02  0.13819905548E+02  0.43209770640E+02  0.00000000000E+00 0. -1.
</event>
<event>
 7    1  0.2284751E-015  0.9000775E+02  0.7816164E-02  0.1186339E+00
        -11   -1    0    0    0    0  0.00000000000E+00  0.00000000000E+00  0.45593999997E+02  0.45594000000E+02  0.51100000000E-03 0. -1.
         11   -1    0    0    0    0 -0.00000000000E+00 -0.00000000000E+00 -0.45593999997E+02  0.45594000000E+02  0.51100000000E-03 0.  1.
    9900012    2    1    2    0    0  0.10813741819E+01  0.39156442196E+00 -0.26511483183E+00  0.90007754817E+02  0.90000016381E+02 0.  0.
         12    1    1    2    0    0 -0.10813741819E+01 -0.39156442196E+00  0.26511483183E+00  0.11802451829E+01  0.00000000000E+00 0. -1.
         11    1    3    3    0    0  0.48801296477E+01  0.17954093096E+01 -0.73232047145E+01  0.89815637569E+01  0.51100000000E-03 0. -1.
        -11    1    3    3    0    0  0.58988513254E+01 -0.70757423918E+01 -0.35672834620E+02  0.36843095791E+02  0.51100000000E-03 0.  1.
         12    1    3    3    0    0 -0.96976067912E+01  0.56718975041E+01  0.42730924502E+02  0.44183095270E+02  0.00000000000E+00 0. -1.
</event>
<event>
 7    1  0.2284751E-015  0.9000782E+02  0.7816164E-02  0.1186339E+00
        -11   -1    0    0    0    0  0.00000000000E+00  0.00000000000E+00  0.45593999997E+02  0.45594000000E+02  0.51100000000E-03 0. -1.
         11   -1    0    0    0    0 -0.00000000000E+00 -0.00000000000E+00 -0.45593999997E+02  0.45594000000E+02  0.51100000000E-03 0.  1.
    9900012    2    1    2    0    0 -0.46786885219E+00  0.54345840351E+00 -0.93732105715E+00  0.90007822444E+02  0.90000084900E+02 0.  0.
         12    1    1    2    0    0  0.46786885219E+00 -0.54345840351E+00  0.93732105715E+00  0.11801775559E+01  0.00000000000E+00 0. -1.
         11    1    3    3    0    0 -0.17954809401E+02  0.30518036590E+02 -0.69685101225E+01  0.36087198166E+02  0.51100000000E-03 0. -1.
        -11    1    3    3    0    0 -0.38098619793E+01  0.85552617764E+01  0.28162377449E+01  0.97795065142E+01  0.51100000000E-03 0.  1.
        -12    1    3    3    0    0  0.21296802528E+02 -0.38529839963E+02  0.32149513204E+01  0.44141117764E+02  0.00000000000E+00 0.  1.
</event>
<event>
 7    1  0.2284751E-015  0.9000774E+02  0.7816164E-02  0.1186339E+00
        -11   -1    0    0    0    0  0.00000000000E+00  0.00000000000E+00  0.45593999997E+02  0.45594000000E+02  0.51100000000E-03 0. -1.
         11   -1    0    0    0    0 -0.00000000000E+00 -0.00000000000E+00 -0.45593999997E+02  0.45594000000E+02  0.51100000000E-03 0.  1.
    9900012    2    1    2    0    0 -0.10889153183E+00 -0.10900322604E+01 -0.43930450991E+00  0.90007738950E+02  0.90000000304E+02 0.  0.
         12    1    1    2    0    0  0.10889153183E+00  0.10900322604E+01  0.43930450991E+00  0.11802610503E+01  0.00000000000E+00 0. -1.
         11    1    3    3    0    0 -0.24232770496E+02  0.54545308370E+01 -0.26855405629E+02  0.36581305121E+02  0.51100000000E-03 0. -1.
        -11    1    3    3    0    0 -0.95179629879E-01 -0.14014195448E+00 -0.95742362680E+01  0.95757349225E+01  0.51100000000E-03 0.  1.
        -12    1    3    3    0    0  0.24219058594E+02 -0.64044211430E+01  0.35990337387E+02  0.43850698907E+02  0.00000000000E+00 0.  1.
</event>
<event>
 7    1  0.2284751E-015  0.9000778E+02  0.7816164E-02  0.1186339E+00
        -11   -1    0    0    0    0  0.00000000000E+00  0.00000000000E+00  0.45593999997E+02  0.45594000000E+02  0.51100000000E-03 0.  1.
         11   -1    0    0    0    0 -0.00000000000E+00 -0.00000000000E+00 -0.45593999997E+02  0.45594000000E+02  0.51100000000E-03 0. -1.
    9900012    2    1    2    0    0 -0.90104288073E+00 -0.68252745758E+00  0.33942156550E+00  0.90007775868E+02  0.90000037709E+02 0.  0.
         12    1    1    2    0    0  0.90104288073E+00  0.68252745758E+00 -0.33942156550E+00  0.11802241323E+01  0.00000000000E+00 0. -1.
         11    1    3    3    0    0  0.29051954094E+01 -0.65339858638E+01  0.32746704653E+01  0.78648966015E+01  0.51100000000E-03 0. -1.
        -11    1    3    3    0    0  0.37919401443E+02  0.68029511398E+01 -0.10026665340E+02  0.39808229904E+02  0.51100000000E-03 0.  1.
         12    1    3    3    0    0 -0.41725639733E+02 -0.95149273359E+00  0.70914164399E+01  0.42334649362E+02  0.00000000000E+00 0. -1.
</event>
<event>
 7    1  0.2284751E-015  0.9000778E+02  0.7816164E-02  0.1186339E+00
        -11   -1    0    0    0    0  0.00000000000E+00  0.00000000000E+00  0.45593999997E+02  0.45594000000E+02  0.51100000000E-03 0.  1.
         11   -1    0    0    0    0 -0.00000000000E+00 -0.00000000000E+00 -0.45593999997E+02  0.45594000000E+02  0.51100000000E-03 0. -1.
    9900012    2    1    2    0    0  0.79922384412E+00 -0.82752307510E+00 -0.26336953443E+00  0.90007781078E+02  0.90000042988E+02 0.  0.
         12    1    1    2    0    0 -0.79922384412E+00  0.82752307510E+00  0.26336953443E+00  0.11802189223E+01  0.00000000000E+00 0. -1.
         11    1    3    3    0    0 -0.64299612600E+01  0.80018396091E+01 -0.11159396318E+00  0.10265782601E+02  0.51100000000E-03 0. -1.
        -11    1    3    3    0    0 -0.27878637982E+02 -0.23715038031E+02  0.13829619457E+02  0.39126459833E+02  0.51100000000E-03 0.  1.
         12    1    3    3    0    0  0.35107823086E+02  0.14885675346E+02 -0.13981395028E+02  0.40615538643E+02  0.00000000000E+00 0. -1.
</event>
<event>
 7    1  0.2284751E-015  0.9000794E+02  0.7816164E-02  0.1186339E+00
        -11   -1    0    0    0    0  0.00000000000E+00  0.00000000000E+00  0.45593999997E+02  0.45594000000E+02  0.51100000000E-03 0. -1.
         11   -1    0    0    0    0 -0.00000000000E+00 -0.00000000000E+00 -0.45593999997E+02  0.45594000000E+02  0.51100000000E-03 0.  1.
    9900012    2    1    2    0    0 -0.16200359734E+00  0.11521505670E+00 -0.11631925518E+01  0.90007942125E+02  0.90000206161E+02 0.  0.
         12    1    1    2    0    0  0.16200359734E+00 -0.11521505670E+00  0.11631925518E+01  0.11800578746E+01  0.00000000000E+00 0. -1.
         11    1    3    3    0    0  0.84393098695E+00  0.64238073928E+00  0.24850226781E+01  0.27018901711E+01  0.51100000000E-03 0. -1.
        -11    1    3    3    0    0 -0.42185959636E+02 -0.60235304680E+01 -0.13325382332E+02  0.44648672145E+02  0.51100000000E-03 0.  1.
         12    1    3    3    0    0  0.41180025052E+02  0.54963647854E+01  0.96771671022E+01  0.42657379810E+02  0.00000000000E+00 0. -1.
</event>
<event>
 7    1  0.2284751E-015  0.9000813E+02  0.7816164E-02  0.1186338E+00
        -11   -1    0    0    0    0  0.00000000000E+00  0.00000000000E+00  0.45593999997E+02  0.45594000000E+02  0.51100000000E-03 0. -1.
         11   -1    0    0    0    0 -0.00000000000E+00 -0.00000000000E+00 -0.45593999997E+02  0.45594000000E+02  0.51100000000E-03 0.  1.
    9900012    2    1    2    0    0  0.10066843461E+01  0.26751979578E+00 -0.55417486005E+00  0.90008131368E+02  0.90000397901E+02 0.  0.
         12    1    1    2    0    0 -0.10066843461E+01 -0.26751979578E+00  0.55417486005E+00  0.11798686323E+01  0.00000000000E+00 0. -1.
         11    1    3    3    0    0 -0.53852409848E+01 -0.67330936497E+01  0.49086765961E+01  0.99212134715E+01  0.51100000000E-03 0. -1.
        -11    1    3    3    0    0  0.34630838224E+02  0.14003960247E+02  0.19150428591E+02  0.41977908168E+02  0.51100000000E-03 0.  1.
         12    1    3    3    0    0 -0.28238912893E+02 -0.70033468011E+01 -0.24613280047E+02  0.38109009728E+02  0.00000000000E+00 0. -1.
</event>
<event>
 7    1  0.2284751E-015  0.9000767E+02  0.7816164E-02  0.1186339E+00
        -11   -1    0    0    0    0  0.00000000000E+00  0.00000000000E+00  0.45593999997E+02  0.45594000000E+02  0.51100000000E-03 0.  1.
         11   -1    0    0    0    0 -0.00000000000E+00 -0.00000000000E+00 -0.45593999997E+02  0.45594000000E+02  0.51100000000E-03 0. -1.
    9900012    2    1    2    0    0 -0.10147317049E+01  0.89693067885E-01  0.59619589716E+00  0.90007671729E+02  0.89999932196E+02 0.  0.
         12    1    1    2    0    0  0.10147317049E+01 -0.89693067885E-01 -0.59619589716E+00  0.11803282709E+01  0.00000000000E+00 0. -1.
         11    1    3    3    0    0  0.85027933784E+01  0.28824068317E+01  0.93160789999E+00  0.90262759718E+01  0.51100000000E-03 0. -1.
        -11    1    3    3    0    0  0.11202793272E+02  0.12183748683E+02  0.34210566959E+02  0.38004068216E+02  0.51100000000E-03 0.  1.
         12    1    3    3    0    0 -0.20720318355E+02 -0.14976462447E+02 -0.34545978962E+02  0.42977327541E+02  0.00000000000E+00 0. -1.
</event>
<event>
 7    1  0.2284751E-015  0.9000771E+02  0.7816164E-02  0.1186339E+00
        -11   -1    0    0    0    0  0.00000000000E+00  0.00000000000E+00  0.45593999997E+02  0.45594000000E+02  0.51100000000E-03 0.  1.
         11   -1    0    0    0    0 -0.00000000000E+00 -0.00000000000E+00 -0.45593999997E+02  0.45594000000E+02  0.51100000000E-03 0. -1.
    9900012    2    1    2    0    0  0.10971377365E+01 -0.30720526779E+00  0.30821934532E+00  0.90007709589E+02  0.89999970556E+02 0.  0.
         12    1    1    2    0    0 -0.10971377365E+01  0.30720526779E+00 -0.30821934532E+00  0.11802904110E+01  0.00000000000E+00 0. -1.
         11    1    3    3    0    0 -0.14094182083E+02  0.24534927790E+02 -0.20624573693E+02  0.35014021342E+02  0.51100000000E-03 0. -1.
        -11    1    3    3    0    0  0.50738210751E+01  0.64974118995E+01 -0.77552911933E+01  0.11318328651E+02  0.51100000000E-03 0.  1.
        -12    1    3    3    0    0  0.10117498744E+02 -0.31339544957E+02  0.28688084232E+02  0.43675359596E+02  0.00000000000E+00 0.  1.
</event>
<event>
 7    1  0.2284751E-015  0.9000776E+02  0.7816164E-02  0.1186339E+00
        -11   -1    0    0    0    0  0.00000000000E+00  0.00000000000E+00  0.45593999997E+02  0.45594000000E+02  0.51100000000E-03 0.  1.
         11   -1    0    0    0    0 -0.00000000000E+00 -0.00000000000E+00 -0.45593999997E+02  0.45594000000E+02  0.51100000000E-03 0. -1.
    9900012    2    1    2    0    0  0.34815079209E+00  0.80936671171E+00  0.78528526916E+00  0.90007764260E+02  0.90000025948E+02 0.  0.
         12    1    1    2    0    0 -0.34815079209E+00 -0.80936671171E+00 -0.78528526916E+00  0.11802357400E+01  0.00000000000E+00 0. -1.
         11    1    3    3    0    0  0.28863064002E+02 -0.21369586158E+02 -0.91814220153E+01  0.37067967123E+02  0.51100000000E-03 0. -1.
        -11    1    3    3    0    0  0.74071339899E+01  0.19213600840E+01 -0.49170654892E+01  0.90958667428E+01  0.51100000000E-03 0.  1.
        -12    1    3    3    0    0 -0.35922047199E+02  0.20257592786E+02  0.14883772774E+02  0.43843930395E+02  0.00000000000E+00 0.  1.
</event>
<event>
 7    1  0.2402424E-015  0.9000776E+02  0.7816164E-02  0.1186339E+00
        -11   -1    0    0    0    0  0.00000000000E+00  0.00000000000E+00  0.45593999997E+02  0.45594000000E+02  0.51100000000E-03 0.  1.
         11   -1    0    0    0    0 -0.00000000000E+00 -0.00000000000E+00 -0.45593999997E+02  0.45594000000E+02  0.51100000000E-03 0. -1.
    9900012    2    1    2    0    0 -0.44194932912E+00  0.83036600456E+00  0.71283132855E+00  0.90007764679E+02  0.90000026372E+02 0.  0.
         12    1    1    2    0    0  0.44194932912E+00 -0.83036600456E+00 -0.71283132855E+00  0.11802353214E+01  0.00000000000E+00 0. -1.
         11    1    3    3    0    0 -0.27294739065E+02  0.62492013774E+01 -0.24538449429E+02  0.37231583356E+02  0.51100000000E-03 0. -1.
        -11    1    3    3    0    0 -0.27468627296E+00 -0.29463806812E+01 -0.87338827498E+01  0.92215681864E+01  0.51100000000E-03 0.  1.
        -12    1    3    3    0    0  0.27127476009E+02 -0.24724546916E+01  0.33985163508E+02  0.43554613137E+02  0.00000000000E+00 0.  1.
</event>
<event>
 7    1  0.2284751E-015  0.9000774E+02  0.7816164E-02  0.1186339E+00
        -11   -1    0    0    0    0  0.00000000000E+00  0.00000000000E+00  0.45593999997E+02  0.45594000000E+02  0.51100000000E-03 0. -1.
         11   -1    0    0    0    0 -0.00000000000E+00 -0.00000000000E+00 -0.45593999997E+02  0.45594000000E+02  0.51100000000E-03 0.  1.
    9900012    2    1    2    0    0  0.92606253647E+00 -0.30846488403E+00  0.66353658780E+00  0.90007735958E+02  0.89999997272E+02 0.  0.
         12    1    1    2    0    0 -0.92606253647E+00  0.30846488403E+00 -0.66353658780E+00  0.11802640423E+01  0.00000000000E+00 0. -1.
         11    1    3    3    0    0 -0.18429247234E+02  0.84350557238E+01 -0.45980925798E+01  0.20782920255E+02  0.51100000000E-03 0. -1.
        -11    1    3    3    0    0  0.40443040168E+02 -0.71726107139E+01 -0.11031504696E+02  0.42529753569E+02  0.51100000000E-03 0.  1.
         12    1    3    3    0    0 -0.21087730398E+02 -0.15709098939E+01  0.16293133864E+02  0.26695062134E+02  0.00000000000E+00 0. -1.
</event>
<event>
 7    1  0.2284751E-015  0.9000784E+02  0.7816164E-02  0.1186339E+00
        -11   -1    0    0    0    0  0.00000000000E+00  0.00000000000E+00  0.45593999997E+02  0.45594000000E+02  0.51100000000E-03 0. -1.
         11   -1    0    0    0    0 -0.00000000000E+00 -0.00000000000E+00 -0.45593999997E+02  0.45594000000E+02  0.51100000000E-03 0.  1.
    9900012    2    1    2    0    0 -0.71507284737E+00  0.78297453448E+00 -0.51806439041E+00  0.90007843650E+02  0.90000106386E+02 0.  0.
         12    1    1    2    0    0  0.71507284737E+00 -0.78297453448E+00  0.51806439041E+00  0.11801563504E+01  0.00000000000E+00 0. -1.
         11    1    3    3    0    0  0.26102202299E+02  0.18769721105E+02  0.12733339513E+02  0.34579839945E+02  0.51100000000E-03 0. -1.
        -11    1    3    3    0    0 -0.12254494122E+02  0.12255970756E+02  0.38535054057E+01  0.17754744423E+02  0.51100000000E-03 0.  1.
        -12    1    3    3    0    0 -0.14562781025E+02 -0.30242717326E+02 -0.17104909309E+02  0.37673259282E+02  0.00000000000E+00 0.  1.
</event>
<event>
 7    1  0.2284751E-015  0.9000776E+02  0.7816164E-02  0.1186339E+00
        -11   -1    0    0    0    0  0.00000000000E+00  0.00000000000E+00  0.45593999997E+02  0.45594000000E+02  0.51100000000E-03 0.  1.
         11   -1    0    0    0    0 -0.00000000000E+00 -0.00000000000E+00 -0.45593999997E+02  0.45594000000E+02  0.51100000000E-03 0. -1.
    9900012    2    1    2    0    0  0.95286647098E+00 -0.68424482179E+00  0.12973978094E+00  0.90007755153E+02  0.90000016721E+02 0.  0.
         12    1    1    2    0    0 -0.95286647098E+00  0.68424482179E+00 -0.12973978094E+00  0.11802448468E+01  0.00000000000E+00 0. -1.
         11    1    3    3    0    0  0.28970071797E+02 -0.12249968029E+02 -0.23308651472E+02  0.39148691043E+02  0.51100000000E-03 0. -1.
        -11    1    3    3    0    0  0.93906587384E+00 -0.91122997652E+01  0.22002192270E+01  0.94210836231E+01  0.51100000000E-03 0.  1.
        -12    1    3    3    0    0 -0.28956271200E+02  0.20678022972E+02  0.21238172026E+02  0.41437980487E+02  0.00000000000E+00 0.  1.
</event>
<event>
 7    1  0.2284751E-015  0.9000767E+02  0.7816164E-02  0.1186339E+00
        -11   -1    0    0    0    0  0.00000000000E+00  0.00000000000E+00  0.45593999997E+02  0.45594000000E+02  0.51100000000E-03 0.  1.
         11   -1    0    0    0    0 -0.00000000000E+00 -0.00000000000E+00 -0.45593999997E+02  0.45594000000E+02  0.51100000000E-03 0. -1.
    9900012    2    1    2    0    0  0.46205082310E+00  0.94956278507E+00  0.52726810993E+00  0.90007672882E+02  0.89999933364E+02 0.  0.
         12    1    1    2    0    0 -0.46205082310E+00 -0.94956278507E+00 -0.52726810993E+00  0.11803271181E+01  0.00000000000E+00 0. -1.
         11    1    3    3    0    0  0.80531319979E+01 -0.37747692150E+01  0.71566765145E+01  0.11415771397E+02  0.51100000000E-03 0. -1.
        -11    1    3    3    0    0  0.92027708095E+01 -0.71145867299E+01  0.32432522245E+02  0.34455432581E+02  0.51100000000E-03 0.  1.
         12    1    3    3    0    0 -0.16793851984E+02  0.11838918730E+02 -0.39061930650E+02  0.44136468903E+02  0.00000000000E+00 0. -1.
</event>
<event>
 7    1  0.2284751E-015  0.9000774E+02  0.7816164E-02  0.1186339E+00
        -11   -1    0    0    0    0  0.00000000000E+00  0.00000000000E+00  0.45593999997E+02  0.45594000000E+02  0.51100000000E-03 0.  1.
         11   -1    0    0    0    0 -0.00000000000E+00 -0.00000000000E+00 -0.45593999997E+02  0.45594000000E+02  0.51100000000E-03 0. -1.
    9900012    2    1    2    0    0  0.17372365589E-01  0.11765381496E+01 -0.91973447059E-01  0.90007744548E+02  0.90000005976E+02 0.  0.
         12    1    1    2    0    0 -0.17372365589E-01 -0.11765381496E+01  0.91973447059E-01  0.11802554518E+01  0.00000000000E+00 0. -1.
         11    1    3    3    0    0  0.82051356499E+01 -0.45251110037E+01  0.62383229466E+00  0.93909556288E+01  0.51100000000E-03 0. -1.
        -11    1    3    3    0    0  0.40672955599E+01 -0.31965279194E+02  0.17887937055E+02  0.36855125281E+02  0.51100000000E-03 0.  1.
         12    1    3    3    0    0 -0.12255058844E+02  0.37666928347E+02 -0.18603742796E+02  0.43761663639E+02  0.00000000000E+00 0. -1.
</event>
<event>
 7    1  0.2284751E-015  0.9000780E+02  0.7816164E-02  0.1186339E+00
        -11   -1    0    0    0    0  0.00000000000E+00  0.00000000000E+00  0.45593999997E+02  0.45594000000E+02  0.51100000000E-03 0.  1.
         11   -1    0    0    0    0 -0.00000000000E+00 -0.00000000000E+00 -0.45593999997E+02  0.45594000000E+02  0.51100000000E-03 0. -1.
    9900012    2    1    2    0    0 -0.10299581091E+01  0.57138193215E+00 -0.74720175256E-01  0.90007799117E+02  0.90000061266E+02 0.  0.
         12    1    1    2    0    0  0.10299581091E+01 -0.57138193215E+00  0.74720175256E-01  0.11802008827E+01  0.00000000000E+00 0. -1.
         11    1    3    3    0    0  0.50280289913E+01  0.32823767433E+01 -0.62122496312E+01  0.86398563856E+01  0.51100000000E-03 0. -1.
        -11    1    3    3    0    0 -0.14228809363E+01  0.38902095123E+02 -0.74707274264E+00  0.38935275947E+02  0.51100000000E-03 0.  1.
         12    1    3    3    0    0 -0.46351061640E+01 -0.41613089934E+02  0.68846021986E+01  0.42432666785E+02  0.00000000000E+00 0. -1.
</event>
<event>
 7    1  0.2284751E-015  0.9000776E+02  0.7816164E-02  0.1186339E+00
        -11   -1    0    0    0    0  0.00000000000E+00  0.00000000000E+00  0.45593999997E+02  0.45594000000E+02  0.51100000000E-03 0. -1.
         11   -1    0    0    0    0 -0.00000000000E+00 -0.00000000000E+00 -0.45593999997E+02  0.45594000000E+02  0.51100000000E-03 0.  1.
    9900012    2    1    2    0    0 -0.10497954847E+01 -0.42848652253E+00 -0.32754803869E+00  0.90007763169E+02  0.90000024843E+02 0.  0.
         12    1    1    2    0    0  0.10497954847E+01  0.42848652253E+00  0.32754803869E+00  0.11802368310E+01  0.00000000000E+00 0. -1.
         11    1    3    3    0    0 -0.15927045556E+02  0.30346369256E+02  0.12100942398E+02  0.36345642302E+02  0.51100000000E-03 0. -1.
        -11    1    3    3    0    0  0.63312696009E+01  0.92869867021E+01 -0.26621449808E+01  0.11550762439E+02  0.51100000000E-03 0.  1.
        -12    1    3    3    0    0  0.85459804702E+01 -0.40061842480E+02 -0.97663454557E+01  0.42111358428E+02  0.00000000000E+00 0.  1.
</event>
<event>
 7    1  0.2284751E-015  0.9000782E+02  0.7816164E-02  0.1186339E+00
        -11   -1    0    0    0    0  0.00000000000E+00  0.00000000000E+00  0.45593999997E+02  0.45594000000E+02  0.51100000000E-03 0. -1.
         11   -1    0    0    0    0 -0.00000000000E+00 -0.00000000000E+00 -0.45593999997E+02  0.45594000000E+02  0.51100000000E-03 0.  1.
    9900012    2    1    2    0    0  0.86072101785E-01 -0.97334615380E+00  0.66182559522E+00  0.90007820242E+02  0.90000082670E+02 0.  0.
         12    1    1    2    0    0 -0.86072101785E-01  0.97334615380E+00 -0.66182559522E+00  0.11801797576E+01  0.00000000000E+00 0. -1.
         11    1    3    3    0    0  0.16011517293E+02 -0.24655201100E+02  0.30677182190E+02  0.42489259051E+02  0.51100000000E-03 0. -1.
        -11    1    3    3    0    0 -0.96151342720E+01  0.30106723352E+01  0.54238440683E+00  0.10090051342E+02  0.51100000000E-03 0.  1.
        -12    1    3    3    0    0 -0.63103109192E+01  0.20671182611E+02 -0.30557741002E+02  0.37428509850E+02  0.00000000000E+00 0.  1.
</event>
<event>
 7    1  0.2284751E-015  0.9000771E+02  0.7816164E-02  0.1186339E+00
        -11   -1    0    0    0    0  0.00000000000E+00  0.00000000000E+00  0.45593999997E+02  0.45594000000E+02  0.51100000000E-03 0. -1.
         11   -1    0    0    0    0 -0.00000000000E+00 -0.00000000000E+00 -0.45593999997E+02  0.45594000000E+02  0.51100000000E-03 0.  1.
    9900012    2    1    2    0    0 -0.10517295574E+01  0.97470345102E-02 -0.53559286346E+00  0.90007707756E+02  0.89999968698E+02 0.  0.
         12    1    1    2    0    0  0.10517295574E+01 -0.97470345102E-02  0.53559286346E+00  0.11802922443E+01  0.00000000000E+00 0. -1.
         11    1    3    3    0    0 -0.66840734508E+01 -0.35009338493E+02  0.89277599827E+01  0.36742829480E+02  0.51100000000E-03 0. -1.
        -11    1    3    3    0    0 -0.11247543716E+02 -0.22088994961E+01 -0.32904404666E+01  0.11925329150E+02  0.51100000000E-03 0.  1.
        -12    1    3    3    0    0  0.16879887609E+02  0.37227985024E+02 -0.61729123795E+01  0.41339549125E+02  0.00000000000E+00 0.  1.
</event>
<event>
 7    1  0.2284751E-015  0.9000771E+02  0.7816164E-02  0.1186339E+00
        -11   -1    0    0    0    0  0.00000000000E+00  0.00000000000E+00  0.45593999997E+02  0.45594000000E+02  0.51100000000E-03 0.  1.
         11   -1    0    0    0    0 -0.00000000000E+00 -0.00000000000E+00 -0.45593999997E+02  0.45594000000E+02  0.51100000000E-03 0. -1.
    9900012    2    1    2    0    0  0.73523957193E+00 -0.91158149062E+00  0.14675003379E+00  0.90007706132E+02  0.89999967053E+02 0.  0.
         12    1    1    2    0    0 -0.73523957193E+00  0.91158149062E+00 -0.14675003379E+00  0.11802938679E+01  0.00000000000E+00 0. -1.
         11    1    3    3    0    0 -0.43068316860E+01 -0.66950158668E+01  0.45885060446E+01  0.91883853103E+01  0.51100000000E-03 0. -1.
        -11    1    3    3    0    0  0.10192200578E+02  0.24616821735E+02  0.30680708387E+02  0.40634649406E+02  0.51100000000E-03 0.  1.
         12    1    3    3    0    0 -0.51501293205E+01 -0.18833387359E+02 -0.35122464398E+02  0.40184671416E+02  0.00000000000E+00 0. -1.
</event>
<event>
 7    1  0.2284751E-015  0.9000745E+02  0.7816164E-02  0.1186340E+00
        -11   -1    0    0    0    0  0.00000000000E+00  0.00000000000E+00  0.45593999997E+02  0.45594000000E+02  0.51100000000E-03 0. -1.
         11   -1    0    0    0    0 -0.00000000000E+00 -0.00000000000E+00 -0.45593999997E+02  0.45594000000E+02  0.51100000000E-03 0.  1.
    9900012    2    1    2    0    0 -0.70711128969E+00  0.93446044242E+00 -0.14306815175E+00  0.90007453012E+02  0.89999710591E+02 0.  0.
         12    1    1    2    0    0  0.70711128969E+00 -0.93446044242E+00  0.14306815175E+00  0.11805469878E+01  0.00000000000E+00 0. -1.
         11    1    3    3    0    0 -0.41475734973E+01 -0.28570900690E+02  0.26931204430E+02  0.39481495722E+02  0.51100000000E-03 0. -1.
        -11    1    3    3    0    0 -0.96504328922E+01  0.10058078108E+01 -0.10256447013E+01  0.97567644059E+01  0.51100000000E-03 0.  1.
        -12    1    3    3    0    0  0.13090895100E+02  0.28499553321E+02 -0.26048627880E+02  0.40769192885E+02  0.00000000000E+00 0.  1.
</event>
<event>
 7    1  0.2284751E-015  0.9000779E+02  0.7816164E-02  0.1186339E+00
        -11   -1    0    0    0    0  0.00000000000E+00  0.00000000000E+00  0.45593999997E+02  0.45594000000E+02  0.51100000000E-03 0.  1.
         11   -1    0    0    0    0 -0.00000000000E+00 -0.00000000000E+00 -0.45593999997E+02  0.45594000000E+02  0.51100000000E-03 0. -1.
    9900012    2    1    2    0    0 -0.10207575750E+01 -0.58889027059E+00  0.64505475717E-01  0.90007788691E+02  0.90000050702E+02 0.  0.
         12    1    1    2    0    0  0.10207575750E+01  0.58889027059E+00 -0.64505475717E-01  0.11802113091E+01  0.00000000000E+00 0. -1.
         11    1    3    3    0    0 -0.13042678702E+02 -0.80959405529E+01 -0.12270084187E+02  0.19652243825E+02  0.51100000000E-03 0. -1.
        -11    1    3    3    0    0 -0.90643861872E+01  0.15743275803E+02 -0.22433885615E+02  0.28866815793E+02  0.51100000000E-03 0.  1.
        -12    1    3    3    0    0  0.21086307314E+02 -0.82362255207E+01  0.34768475277E+02  0.41488729073E+02  0.00000000000E+00 0.  1.
</event>
<event>
 7    1  0.2284751E-015  0.9000803E+02  0.7816164E-02  0.1186338E+00
        -11   -1    0    0    0    0  0.00000000000E+00  0.00000000000E+00  0.45593999997E+02  0.45594000000E+02  0.51100000000E-03 0.  1.
         11   -1    0    0    0    0 -0.00000000000E+00 -0.00000000000E+00 -0.45593999997E+02  0.45594000000E+02  0.51100000000E-03 0. -1.
    9900012    2    1    2    0    0 -0.56565968802E+00  0.63297105360E+00 -0.81958080893E+00  0.90008027145E+02  0.90000292302E+02 0.  0.
         12    1    1    2    0    0  0.56565968802E+00 -0.63297105360E+00  0.81958080893E+00  0.11799728555E+01  0.00000000000E+00 0. -1.
         11    1    3    3    0    0  0.14388062636E+02  0.15171394142E+02 -0.38628207600E+02  0.43924093266E+02  0.51100000000E-03 0. -1.
        -11    1    3    3    0    0  0.25794958656E+01 -0.19103526480E+00  0.93916109087E+01  0.97412858040E+01  0.51100000000E-03 0.  1.
        -12    1    3    3    0    0 -0.17533218190E+02 -0.14347387823E+02  0.28417015882E+02  0.36342648075E+02  0.00000000000E+00 0.  1.
</event>
<event>
 7    1  0.2284751E-015  0.9000774E+02  0.7816164E-02  0.1186339E+00
        -11   -1    0    0    0    0  0.00000000000E+00  0.00000000000E+00  0.45593999997E+02  0.45594000000E+02  0.51100000000E-03 0.  1.
         11   -1    0    0    0    0 -0.00000000000E+00 -0.00000000000E+00 -0.45593999997E+02  0.45594000000E+02  0.51100000000E-03 0. -1.
    9900012    2    1    2    0    0 -0.58552282210E+00 -0.97497026121E+00  0.31561422418E+00  0.90007738875E+02  0.90000000228E+02 0.  0.
         12    1    1    2    0    0  0.58552282210E+00  0.97497026121E+00 -0.31561422418E+00  0.11802611253E+01  0.00000000000E+00 0. -1.
         11    1    3    3    0    0  0.19151783577E+02 -0.95258904752E+01 -0.29238517732E+02  0.36227397408E+02  0.51100000000E-03 0. -1.
        -11    1    3    3    0    0  0.85369784716E+01 -0.39511627301E+01 -0.19874371120E+01  0.96146552137E+01  0.51100000000E-03 0.  1.
        -12    1    3    3    0    0 -0.28274284871E+02  0.12502082944E+02  0.31541569068E+02  0.44165686253E+02  0.00000000000E+00 0.  1.
</event>
<event>
 7    1  0.2284751E-015  0.9000775E+02  0.7816164E-02  0.1186339E+00
        -11   -1    0    0    0    0  0.00000000000E+00  0.00000000000E+00  0.45593999997E+02  0.45594000000E+02  0.51100000000E-03 0.  1.
         11   -1    0    0    0    0 -0.00000000000E+00 -0.00000000000E+00 -0.45593999997E+02  0.45594000000E+02  0.51100000000E-03 0. -1.
    9900012    2    1    2    0    0 -0.46821947261E+00 -0.84602478632E+00  0.67676574653E+00  0.90007746091E+02  0.90000007540E+02 0.  0.
         12    1    1    2    0    0  0.46821947261E+00  0.84602478632E+00 -0.67676574653E+00  0.11802539088E+01  0.00000000000E+00 0. -1.
         11    1    3    3    0    0 -0.43500071983E+01 -0.70380269670E+01 -0.90845136575E+00  0.83235611584E+01  0.51100000000E-03 0. -1.
        -11    1    3    3    0    0 -0.20127838963E+02 -0.24063603729E+02  0.21690543879E+02  0.38140092026E+02  0.51100000000E-03 0.  1.
         12    1    3    3    0    0  0.24009626688E+02  0.30255605909E+02 -0.20105326767E+02  0.43544092907E+02  0.00000000000E+00 0. -1.
</event>
<event>
 7    1  0.2284751E-015  0.9000769E+02  0.7816164E-02  0.1186339E+00
        -11   -1    0    0    0    0  0.00000000000E+00  0.00000000000E+00  0.45593999997E+02  0.45594000000E+02  0.51100000000E-03 0. -1.
         11   -1    0    0    0    0 -0.00000000000E+00 -0.00000000000E+00 -0.45593999997E+02  0.45594000000E+02  0.51100000000E-03 0.  1.
    9900012    2    1    2    0    0 -0.64412509359E+00 -0.93057298453E+00 -0.33507502980E+00  0.90007687121E+02  0.89999947791E+02 0.  0.
         12    1    1    2    0    0  0.64412509359E+00  0.93057298453E+00  0.33507502980E+00  0.11803128786E+01  0.00000000000E+00 0. -1.
         11    1    3    3    0    0 -0.21375966270E+02 -0.16736191115E+02  0.25673488864E+02  0.37365225247E+02  0.51100000000E-03 0. -1.
        -11    1    3    3    0    0  0.96584644779E+00  0.29268796792E+01  0.95133671589E+01  0.10000181947E+02  0.51100000000E-03 0.  1.
        -12    1    3    3    0    0  0.19765994728E+02  0.12878738452E+02 -0.35521931053E+02  0.42642279928E+02  0.00000000000E+00 0.  1.
</event>
<event>
 7    1  0.2284751E-015  0.9000770E+02  0.7816164E-02  0.1186339E+00
        -11   -1    0    0    0    0  0.00000000000E+00  0.00000000000E+00  0.45593999997E+02  0.45594000000E+02  0.51100000000E-03 0. -1.
         11   -1    0    0    0    0 -0.00000000000E+00 -0.00000000000E+00 -0.45593999997E+02  0.45594000000E+02  0.51100000000E-03 0.  1.
    9900012    2    1    2    0    0 -0.87038640332E+00 -0.65904510963E+00 -0.44855641104E+00  0.90007696733E+02  0.89999957530E+02 0.  0.
         12    1    1    2    0    0  0.87038640332E+00  0.65904510963E+00  0.44855641104E+00  0.11803032668E+01  0.00000000000E+00 0. -1.
         11    1    3    3    0    0 -0.11340497898E+02  0.15756557978E+02 -0.89473061880E+01  0.21375928054E+02  0.51100000000E-03 0. -1.
        -11    1    3    3    0    0 -0.25035731139E+02  0.10661351193E+01 -0.71741463334E+01  0.26065165521E+02  0.51100000000E-03 0.  1.
         12    1    3    3    0    0  0.35505842634E+02 -0.17481738207E+02  0.15672896110E+02  0.42566603158E+02  0.00000000000E+00 0. -1.
</event>
<event>
 7    1  0.2284751E-015  0.9000777E+02  0.7816164E-02  0.1186339E+00
        -11   -1    0    0    0    0  0.00000000000E+00  0.00000000000E+00  0.45593999997E+02  0.45594000000E+02  0.51100000000E-03 0.  1.
         11   -1    0    0    0    0 -0.00000000000E+00 -0.00000000000E+00 -0.45593999997E+02  0.45594000000E+02  0.51100000000E-03 0. -1.
    9900012    2    1    2    0    0  0.65717573886E+00 -0.32227620003E+00  0.92584540065E+00  0.90007774764E+02  0.90000036591E+02 0.  0.
         12    1    1    2    0    0 -0.65717573886E+00  0.32227620003E+00 -0.92584540065E+00  0.11802252356E+01  0.00000000000E+00 0. -1.
         11    1    3    3    0    0  0.86567106848E+01  0.85897079887E+00  0.20472276812E+01  0.89368681401E+01  0.51100000000E-03 0. -1.
        -11    1    3    3    0    0  0.76355880967E+01 -0.35842522815E+02  0.15222557770E+02  0.39682677740E+02  0.51100000000E-03 0.  1.
         12    1    3    3    0    0 -0.15635123043E+02  0.34661275816E+02 -0.16343940051E+02  0.41388228884E+02  0.00000000000E+00 0. -1.
</event>
<event>
 7    1  0.2284751E-015  0.9000780E+02  0.7816164E-02  0.1186339E+00
        -11   -1    0    0    0    0  0.00000000000E+00  0.00000000000E+00  0.45593999997E+02  0.45594000000E+02  0.51100000000E-03 0.  1.
         11   -1    0    0    0    0 -0.00000000000E+00 -0.00000000000E+00 -0.45593999997E+02  0.45594000000E+02  0.51100000000E-03 0. -1.
    9900012    2    1    2    0    0  0.89733138592E+00  0.75839857340E+00 -0.11180624682E+00  0.90007799742E+02  0.90000061899E+02 0.  0.
         12    1    1    2    0    0 -0.89733138592E+00 -0.75839857340E+00  0.11180624682E+00  0.11802002581E+01  0.00000000000E+00 0. -1.
         11    1    3    3    0    0  0.45389240792E+00  0.79742157718E+01 -0.10023600320E+01  0.80497739961E+01  0.51100000000E-03 0. -1.
        -11    1    3    3    0    0 -0.39498673820E+02  0.41879984120E+01  0.57594850507E+01  0.40135473493E+02  0.51100000000E-03 0.  1.
         12    1    3    3    0    0  0.39942112798E+02 -0.11403815610E+02 -0.48689312655E+01  0.41822552252E+02  0.00000000000E+00 0. -1.
</event>
<event>
 7    1  0.2284751E-015  0.9000774E+02  0.7816164E-02  0.1186339E+00
        -11   -1    0    0    0    0  0.00000000000E+00  0.00000000000E+00  0.45593999997E+02  0.45594000000E+02  0.51100000000E-03 0. -1.
         11   -1    0    0    0    0 -0.00000000000E+00 -0.00000000000E+00 -0.45593999997E+02  0.45594000000E+02  0.51100000000E-03 0.  1.
    9900012    2    1    2    0    0  0.11095258612E+01 -0.21904714706E+00 -0.33761714302E+00  0.90007739595E+02  0.90000000957E+02 0.  0.
         12    1    1    2    0    0 -0.11095258612E+01  0.21904714706E+00  0.33761714302E+00  0.11802604054E+01  0.00000000000E+00 0. -1.
         11    1    3    3    0    0  0.32474490373E+02 -0.67255236200E+01 -0.16194396195E+02  0.36906417618E+02  0.51100000000E-03 0. -1.
        -11    1    3    3    0    0  0.32316298261E+01 -0.31798584937E+01 -0.85434093638E+01  0.96718547958E+01  0.51100000000E-03 0.  1.
        -12    1    3    3    0    0 -0.34596594338E+02  0.96863349666E+01  0.24400188416E+02  0.43429467181E+02  0.00000000000E+00 0.  1.
</event>
<event>
 7    1  0.2284751E-015  0.9000774E+02  0.7816164E-02  0.1186339E+00
        -11   -1    0    0    0    0  0.00000000000E+00  0.00000000000E+00  0.45593999997E+02  0.45594000000E+02  0.51100000000E-03 0.  1.
         11   -1    0    0    0    0 -0.00000000000E+00 -0.00000000000E+00 -0.45593999997E+02  0.45594000000E+02  0.51100000000E-03 0. -1.
    9900012    2    1    2    0    0  0.51446700845E+00  0.19932423680E-01 -0.10620484470E+01  0.90007737102E+02  0.89999998432E+02 0.  0.
         12    1    1    2    0    0 -0.51446700845E+00 -0.19932423680E-01  0.10620484470E+01  0.11802628978E+01  0.00000000000E+00 0. -1.
         11    1    3    3    0    0 -0.91722689128E+01 -0.54104106806E+00 -0.85892231192E+00  0.92282712490E+01  0.51100000000E-03 0. -1.
        -11    1    3    3    0    0 -0.24143822152E+02  0.23670880037E+02 -0.15304970732E+02  0.37114375102E+02  0.51100000000E-03 0.  1.
         12    1    3    3    0    0  0.33830558073E+02 -0.23109906546E+02  0.15101844597E+02  0.43665090751E+02  0.00000000000E+00 0. -1.
</event>
<event>
 7    1  0.2284751E-015  0.9000783E+02  0.7816164E-02  0.1186339E+00
        -11   -1    0    0    0    0  0.00000000000E+00  0.00000000000E+00  0.45593999997E+02  0.45594000000E+02  0.51100000000E-03 0.  1.
         11   -1    0    0    0    0 -0.00000000000E+00 -0.00000000000E+00 -0.45593999997E+02  0.45594000000E+02  0.51100000000E-03 0. -1.
    9900012    2    1    2    0    0  0.10268852486E+01 -0.75861554978E-01 -0.57668058829E+00  0.90007826796E+02  0.90000089310E+02 0.  0.
         12    1    1    2    0    0 -0.10268852486E+01  0.75861554978E-01  0.57668058829E+00  0.11801732035E+01  0.00000000000E+00 0. -1.
         11    1    3    3    0    0  0.37997254573E+01 -0.12040413720E+02  0.28293405541E+01  0.12938881109E+02  0.51100000000E-03 0. -1.
        -11    1    3    3    0    0 -0.15598676828E+02 -0.28447808951E+02  0.74801228416E+01  0.33294876345E+02  0.51100000000E-03 0.  1.
         12    1    3    3    0    0  0.12825836619E+02  0.40412361116E+02 -0.10886143984E+02  0.43774069342E+02  0.00000000000E+00 0. -1.
</event>
<event>
 7    1  0.2284751E-015  0.9000774E+02  0.7816164E-02  0.1186339E+00
        -11   -1    0    0    0    0  0.00000000000E+00  0.00000000000E+00  0.45593999997E+02  0.45594000000E+02  0.51100000000E-03 0.  1.
         11   -1    0    0    0    0 -0.00000000000E+00 -0.00000000000E+00 -0.45593999997E+02  0.45594000000E+02  0.51100000000E-03 0. -1.
    9900012    2    1    2    0    0 -0.10433431623E+01 -0.30339742604E+00 -0.46087681038E+00  0.90007736306E+02  0.89999997625E+02 0.  0.
         12    1    1    2    0    0  0.10433431623E+01  0.30339742604E+00  0.46087681038E+00  0.11802636937E+01  0.00000000000E+00 0. -1.
         11    1    3    3    0    0 -0.49603444751E+01 -0.33214938637E+01  0.77224168762E+01  0.97607920514E+01  0.51100000000E-03 0. -1.
        -11    1    3    3    0    0  0.13856441669E+02  0.12532040097E+02  0.32396709024E+02  0.37397857700E+02  0.51100000000E-03 0.  1.
         12    1    3    3    0    0 -0.99394403559E+01 -0.95139436595E+01 -0.40580002711E+02  0.42849086555E+02  0.00000000000E+00 0. -1.
</event>
<event>
 7    1  0.2284751E-015  0.9000769E+02  0.7816164E-02  0.1186339E+00
        -11   -1    0    0    0    0  0.00000000000E+00  0.00000000000E+00  0.45593999997E+02  0.45594000000E+02  0.51100000000E-03 0.  1.
         11   -1    0    0    0    0 -0.00000000000E+00 -0.00000000000E+00 -0.45593999997E+02  0.45594000000E+02  0.51100000000E-03 0. -1.
    9900012    2    1    2    0    0  0.10651065413E+01 -0.43911564750E-01 -0.50671232631E+00  0.90007687520E+02  0.89999948195E+02 0.  0.
         12    1    1    2    0    0 -0.10651065413E+01  0.43911564750E-01  0.50671232631E+00  0.11803124805E+01  0.00000000000E+00 0. -1.
         11    1    3    3    0    0 -0.28196775288E+02 -0.16169871661E+02 -0.24384977938E+02  0.40634345516E+02  0.51100000000E-03 0. -1.
        -11    1    3    3    0    0 -0.20160034087E+01 -0.37151031523E+01  0.80515019526E+01  0.90935661393E+01  0.51100000000E-03 0.  1.
        -12    1    3    3    0    0  0.31277885238E+02  0.19841063249E+02  0.15826763659E+02  0.40279775865E+02  0.00000000000E+00 0.  1.
</event>
<event>
 7    1  0.2284751E-015  0.9000774E+02  0.7816164E-02  0.1186339E+00
        -11   -1    0    0    0    0  0.00000000000E+00  0.00000000000E+00  0.45593999997E+02  0.45594000000E+02  0.51100000000E-03 0.  1.
         11   -1    0    0    0    0 -0.00000000000E+00 -0.00000000000E+00 -0.45593999997E+02  0.45594000000E+02  0.51100000000E-03 0. -1.
    9900012    2    1    2    0    0  0.27377344184E+00 -0.95314609838E+00  0.63998470813E+00  0.90007737398E+02  0.89999998732E+02 0.  0.
         12    1    1    2    0    0 -0.27377344184E+00  0.95314609838E+00 -0.63998470813E+00  0.11802626017E+01  0.00000000000E+00 0. -1.
         11    1    3    3    0    0 -0.21538234265E+01 -0.67434339007E+01  0.63303742514E+01  0.94966570197E+01  0.51100000000E-03 0. -1.
        -11    1    3    3    0    0 -0.34948273850E+02 -0.64509017320E+01  0.11829703971E+02  0.37455812293E+02  0.51100000000E-03 0.  1.
         12    1    3    3    0    0  0.37375870718E+02  0.12241189534E+02 -0.17520093514E+02  0.43055268085E+02  0.00000000000E+00 0. -1.
</event>
<event>
 7    1  0.2284751E-015  0.9000771E+02  0.7816164E-02  0.1186339E+00
        -11   -1    0    0    0    0  0.00000000000E+00  0.00000000000E+00  0.45593999997E+02  0.45594000000E+02  0.51100000000E-03 0. -1.
         11   -1    0    0    0    0 -0.00000000000E+00 -0.00000000000E+00 -0.45593999997E+02  0.45594000000E+02  0.51100000000E-03 0.  1.
    9900012    2    1    2    0    0  0.30348795992E+00 -0.11331435206E+01  0.13028058892E+00  0.90007706726E+02  0.89999967655E+02 0.  0.
         12    1    1    2    0    0 -0.30348795992E+00  0.11331435206E+01 -0.13028058892E+00  0.11802932737E+01  0.00000000000E+00 0. -1.
         11    1    3    3    0    0 -0.79311926194E+01  0.51935358332E+01 -0.17786307478E+02  0.20155132467E+02  0.51100000000E-03 0. -1.
        -11    1    3    3    0    0  0.76162829378E+01  0.99881947716E+01 -0.22774296986E+02  0.26008467930E+02  0.51100000000E-03 0.  1.
         12    1    3    3    0    0  0.61839764159E+00 -0.16314874126E+02  0.40690885053E+02  0.43844106329E+02  0.00000000000E+00 0. -1.
</event>
<event>
 7    1  0.2284751E-015  0.9000777E+02  0.7816164E-02  0.1186339E+00
        -11   -1    0    0    0    0  0.00000000000E+00  0.00000000000E+00  0.45593999997E+02  0.45594000000E+02  0.51100000000E-03 0. -1.
         11   -1    0    0    0    0 -0.00000000000E+00 -0.00000000000E+00 -0.45593999997E+02  0.45594000000E+02  0.51100000000E-03 0.  1.
    9900012    2    1    2    0    0 -0.45335507023E-01 -0.11345950954E+01 -0.32182891574E+00  0.90007773246E+02  0.90000035053E+02 0.  0.
         12    1    1    2    0    0  0.45335507023E-01  0.11345950954E+01  0.32182891574E+00  0.11802267535E+01  0.00000000000E+00 0. -1.
         11    1    3    3    0    0 -0.25278163505E+02  0.20099468598E+02  0.28473531837E+02  0.43054804652E+02  0.51100000000E-03 0. -1.
        -11    1    3    3    0    0 -0.72589785778E+00 -0.45453910272E+01 -0.95011987316E+01  0.10557475308E+02  0.51100000000E-03 0.  1.
        -12    1    3    3    0    0  0.25958725856E+02 -0.16688672666E+02 -0.19294162021E+02  0.36395493286E+02  0.00000000000E+00 0.  1.
</event>
<event>
 7    1  0.2284751E-015  0.9000760E+02  0.7816164E-02  0.1186339E+00
        -11   -1    0    0    0    0  0.00000000000E+00  0.00000000000E+00  0.45593999997E+02  0.45594000000E+02  0.51100000000E-03 0.  1.
         11   -1    0    0    0    0 -0.00000000000E+00 -0.00000000000E+00 -0.45593999997E+02  0.45594000000E+02  0.51100000000E-03 0. -1.
    9900012    2    1    2    0    0  0.91162996004E+00  0.74967222221E+00  0.16276796635E-01  0.90007600678E+02  0.89999860207E+02 0.  0.
         12    1    1    2    0    0 -0.91162996004E+00 -0.74967222221E+00 -0.16276796635E-01  0.11803993218E+01  0.00000000000E+00 0. -1.
         11    1    3    3    0    0 -0.85758020439E+01  0.38245755401E+01  0.15882612380E+01  0.95233572221E+01  0.51100000000E-03 0. -1.
        -11    1    3    3    0    0 -0.19645228534E+02  0.29637008037E+02  0.59139972435E+01  0.36045285589E+02  0.51100000000E-03 0.  1.
         12    1    3    3    0    0  0.29132660538E+02 -0.32711911355E+02 -0.74859816849E+01  0.44438957867E+02  0.00000000000E+00 0. -1.
</event>
<event>
 7    1  0.2284751E-015  0.9000763E+02  0.7816164E-02  0.1186339E+00
        -11   -1    0    0    0    0  0.00000000000E+00  0.00000000000E+00  0.45593999997E+02  0.45594000000E+02  0.51100000000E-03 0.  1.
         11   -1    0    0    0    0 -0.00000000000E+00 -0.00000000000E+00 -0.45593999997E+02  0.45594000000E+02  0.51100000000E-03 0. -1.
    9900012    2    1    2    0    0  0.19234159216E+00  0.38850521888E+00  0.10978815088E+01  0.90007629126E+02  0.89999889030E+02 0.  0.
         12    1    1    2    0    0 -0.19234159216E+00 -0.38850521888E+00 -0.10978815088E+01  0.11803708742E+01  0.00000000000E+00 0. -1.
         11    1    3    3    0    0 -0.58055719724E+01 -0.32222050226E+02  0.12543830948E+02  0.35061558462E+02  0.51100000000E-03 0. -1.
        -11    1    3    3    0    0 -0.74338477702E+01 -0.46940237713E+01  0.69790277189E+01  0.11225095991E+02  0.51100000000E-03 0.  1.
        -12    1    3    3    0    0  0.13431761335E+02  0.37304579216E+02 -0.18424977158E+02  0.43720974673E+02  0.00000000000E+00 0.  1.
</event>
<event>
 7    1  0.2284751E-015  0.9000783E+02  0.7816164E-02  0.1186339E+00
        -11   -1    0    0    0    0  0.00000000000E+00  0.00000000000E+00  0.45593999997E+02  0.45594000000E+02  0.51100000000E-03 0. -1.
         11   -1    0    0    0    0 -0.00000000000E+00 -0.00000000000E+00 -0.45593999997E+02  0.45594000000E+02  0.51100000000E-03 0.  1.
    9900012    2    1    2    0    0 -0.92072454676E+00 -0.60376810034E+00  0.42488281569E+00  0.90007832632E+02  0.90000095222E+02 0.  0.
         12    1    1    2    0    0  0.92072454676E+00  0.60376810034E+00 -0.42488281569E+00  0.11801673682E+01  0.00000000000E+00 0. -1.
         11    1    3    3    0    0 -0.29910182148E+01 -0.16417762832E+02  0.33171112201E+02  0.37132355316E+02  0.51100000000E-03 0. -1.
        -11    1    3    3    0    0 -0.33225367855E+01 -0.80480580659E+01  0.33002511083E+01  0.93113987651E+01  0.51100000000E-03 0.  1.
        -12    1    3    3    0    0  0.53928304536E+01  0.23862052798E+02 -0.36046480494E+02  0.43564078551E+02  0.00000000000E+00 0.  1.
</event>
<event>
 7    1  0.2284751E-015  0.9000818E+02  0.7816164E-02  0.1186338E+00
        -11   -1    0    0    0    0  0.00000000000E+00  0.00000000000E+00  0.45593999997E+02  0.45594000000E+02  0.51100000000E-03 0. -1.
         11   -1    0    0    0    0 -0.00000000000E+00 -0.00000000000E+00 -0.45593999997E+02  0.45594000000E+02  0.51100000000E-03 0.  1.
    9900012    2    1    2    0    0 -0.20814115251E+00  0.15576024569E+00 -0.11508190337E+01  0.90008182878E+02  0.90000450091E+02 0.  0.
         12    1    1    2    0    0  0.20814115251E+00 -0.15576024569E+00  0.11508190337E+01  0.11798171222E+01  0.00000000000E+00 0. -1.
         11    1    3    3    0    0  0.49167153943E+01  0.93029130122E+00 -0.42917820138E+01  0.65923383779E+01  0.51100000000E-03 0. -1.
        -11    1    3    3    0    0 -0.91947528432E+00 -0.41437016363E+02 -0.49554823448E+01  0.41742407278E+02  0.51100000000E-03 0.  1.
         12    1    3    3    0    0 -0.42053812625E+01  0.40662485308E+02  0.80964453249E+01  0.41673437221E+02  0.00000000000E+00 0. -1.
</event>
<event>
 7    1  0.2284751E-015  0.9000772E+02  0.7816164E-02  0.1186339E+00
        -11   -1    0    0    0    0  0.00000000000E+00  0.00000000000E+00  0.45593999997E+02  0.45594000000E+02  0.51100000000E-03 0. -1.
         11   -1    0    0    0    0 -0.00000000000E+00 -0.00000000000E+00 -0.45593999997E+02  0.45594000000E+02  0.51100000000E-03 0.  1.
    9900012    2    1    2    0    0  0.44579041067E+00 -0.24936759549E+00 -0.10640253768E+01  0.90007718978E+02  0.89999980069E+02 0.  0.
         12    1    1    2    0    0 -0.44579041067E+00  0.24936759549E+00  0.10640253768E+01  0.11802810218E+01  0.00000000000E+00 0. -1.
         11    1    3    3    0    0 -0.75295637713E+01  0.32897927829E+01  0.82084953592E+00  0.82577758121E+01  0.51100000000E-03 0. -1.
        -11    1    3    3    0    0 -0.33663620479E+01  0.14670751169E+02 -0.37368019999E+02  0.40285633322E+02  0.51100000000E-03 0.  1.
         12    1    3    3    0    0  0.11341716230E+02 -0.18209911548E+02  0.35483145086E+02  0.41464309844E+02  0.00000000000E+00 0. -1.
</event>
<event>
 7    1  0.2284751E-015  0.9000778E+02  0.7816164E-02  0.1186339E+00
        -11   -1    0    0    0    0  0.00000000000E+00  0.00000000000E+00  0.45593999997E+02  0.45594000000E+02  0.51100000000E-03 0. -1.
         11   -1    0    0    0    0 -0.00000000000E+00 -0.00000000000E+00 -0.45593999997E+02  0.45594000000E+02  0.51100000000E-03 0.  1.
    9900012    2    1    2    0    0 -0.67571493099E+00 -0.10426965866E+00 -0.96200442398E+00  0.90007781655E+02  0.90000043573E+02 0.  0.
         12    1    1    2    0    0  0.67571493099E+00  0.10426965866E+00  0.96200442398E+00  0.11802183448E+01  0.00000000000E+00 0. -1.
         11    1    3    3    0    0  0.25978592952E+02 -0.25712258588E+02  0.86634166203E+01  0.37564109483E+02  0.51100000000E-03 0. -1.
        -11    1    3    3    0    0 -0.91777379073E+00 -0.86517073214E+01 -0.14183761816E+01  0.88151085960E+01  0.51100000000E-03 0.  1.
        -12    1    3    3    0    0 -0.25736534092E+02  0.34259696251E+02 -0.82070448626E+01  0.43628563576E+02  0.00000000000E+00 0.  1.
</event>
<event>
 7    1  0.2284751E-015  0.9000776E+02  0.7816164E-02  0.1186339E+00
        -11   -1    0    0    0    0  0.00000000000E+00  0.00000000000E+00  0.45593999997E+02  0.45594000000E+02  0.51100000000E-03 0.  1.
         11   -1    0    0    0    0 -0.00000000000E+00 -0.00000000000E+00 -0.45593999997E+02  0.45594000000E+02  0.51100000000E-03 0. -1.
    9900012    2    1    2    0    0  0.20879089103E+00 -0.73688827787E-01  0.11592884754E+01  0.90007757038E+02  0.90000018631E+02 0.  0.
         12    1    1    2    0    0 -0.20879089103E+00  0.73688827787E-01 -0.11592884754E+01  0.11802429617E+01  0.00000000000E+00 0. -1.
         11    1    3    3    0    0 -0.37058115154E+02 -0.10098482884E+02 -0.12575131374E+02  0.40415556221E+02  0.51100000000E-03 0. -1.
        -11    1    3    3    0    0 -0.87569013140E-01  0.10137796032E+02  0.12937723723E+01  0.10220392553E+02  0.51100000000E-03 0.  1.
        -12    1    3    3    0    0  0.37354475058E+02 -0.11300197662E+00  0.12440647477E+02  0.39371808264E+02  0.00000000000E+00 0.  1.
</event>
<event>
 7    1  0.2284751E-015  0.9000773E+02  0.7816164E-02  0.1186339E+00
        -11   -1    0    0    0    0  0.00000000000E+00  0.00000000000E+00  0.45593999997E+02  0.45594000000E+02  0.51100000000E-03 0.  1.
         11   -1    0    0    0    0 -0.00000000000E+00 -0.00000000000E+00 -0.45593999997E+02  0.45594000000E+02  0.51100000000E-03 0. -1.
    9900012    2    1    2    0    0  0.21643145452E+00 -0.79109515752E+00  0.84874196443E+00  0.90007730097E+02  0.89999991334E+02 0.  0.
         12    1    1    2    0    0 -0.21643145452E+00  0.79109515752E+00 -0.84874196443E+00  0.11802699034E+01  0.00000000000E+00 0. -1.
         11    1    3    3    0    0  0.62147999624E+01  0.63148426626E+01  0.49975040164E+01  0.10172316505E+02  0.51100000000E-03 0. -1.
        -11    1    3    3    0    0  0.14884014930E+02 -0.64056460104E+01  0.33254280503E+02  0.36992071763E+02  0.51100000000E-03 0.  1.
         12    1    3    3    0    0 -0.20882383438E+02 -0.70029180968E+00 -0.37403042555E+02  0.42843341829E+02  0.00000000000E+00 0. -1.
</event>
<event>
 7    1  0.2284751E-015  0.9000765E+02  0.7816164E-02  0.1186339E+00
        -11   -1    0    0    0    0  0.00000000000E+00  0.00000000000E+00  0.45593999997E+02  0.45594000000E+02  0.51100000000E-03 0.  1.
         11   -1    0    0    0    0 -0.00000000000E+00 -0.00000000000E+00 -0.45593999997E+02  0.45594000000E+02  0.51100000000E-03 0. -1.
    9900012    2    1    2    0    0 -0.96596407910E+00  0.11190240236E+00  0.66904635279E+00  0.90007647607E+02  0.89999907755E+02 0.  0.
         12    1    1    2    0    0  0.96596407910E+00 -0.11190240236E+00 -0.66904635279E+00  0.11803523931E+01  0.00000000000E+00 0. -1.
         11    1    3    3    0    0 -0.81664210831E+01  0.33782952740E+01 -0.27937630235E+02  0.29302124423E+02  0.51100000000E-03 0. -1.
        -11    1    3    3    0    0 -0.13537797764E+02 -0.17340927262E+02 -0.86645373601E+00  0.22016595308E+02  0.51100000000E-03 0.  1.
        -12    1    3    3    0    0  0.20738254768E+02  0.14074534391E+02  0.29473130324E+02  0.38688927876E+02  0.00000000000E+00 0.  1.
</event>
<event>
 7    1  0.2284751E-015  0.9000767E+02  0.7816164E-02  0.1186339E+00
        -11   -1    0    0    0    0  0.00000000000E+00  0.00000000000E+00  0.45593999997E+02  0.45594000000E+02  0.51100000000E-03 0. -1.
         11   -1    0    0    0    0 -0.00000000000E+00 -0.00000000000E+00 -0.45593999997E+02  0.45594000000E+02  0.51100000000E-03 0.  1.
    9900012    2    1    2    0    0  0.34604767435E+00 -0.91912628628E+00 -0.65471033981E+00  0.90007666254E+02  0.89999926648E+02 0.  0.
         12    1    1    2    0    0 -0.34604767435E+00  0.91912628628E+00  0.65471033981E+00  0.11803337461E+01  0.00000000000E+00 0. -1.
         11    1    3    3    0    0 -0.17680246623E+02 -0.30138683863E+02  0.22718294973E+02  0.41677959552E+02  0.51100000000E-03 0. -1.
        -11    1    3    3    0    0 -0.34380738352E+01  0.13895065474E+02 -0.21441595604E+01  0.14473790682E+02  0.51100000000E-03 0.  1.
        -12    1    3    3    0    0  0.21464368132E+02  0.15324492103E+02 -0.21228845753E+02  0.33855916020E+02  0.00000000000E+00 0.  1.
</event>
<event>
 7    1  0.2284751E-015  0.9000705E+02  0.7816164E-02  0.1186340E+00
        -11   -1    0    0    0    0  0.00000000000E+00  0.00000000000E+00  0.45593999997E+02  0.45594000000E+02  0.51100000000E-03 0. -1.
         11   -1    0    0    0    0 -0.00000000000E+00 -0.00000000000E+00 -0.45593999997E+02  0.45594000000E+02  0.51100000000E-03 0.  1.
    9900012    2    1    2    0    0 -0.10878899813E+01 -0.37056341282E+00 -0.27168005370E+00  0.90007054656E+02  0.89999306975E+02 0.  0.
         12    1    1    2    0    0  0.10878899813E+01  0.37056341282E+00  0.27168005370E+00  0.11809453442E+01  0.00000000000E+00 0. -1.
         11    1    3    3    0    0  0.69316444177E+01  0.56724012857E+01 -0.79912515226E+00  0.89923540828E+01  0.51100000000E-03 0. -1.
        -11    1    3    3    0    0  0.34566391292E+02 -0.68648673375E+01 -0.10946630308E+02  0.36902446069E+02  0.51100000000E-03 0.  1.
         12    1    3    3    0    0 -0.42585925691E+02  0.82190263900E+00  0.11474075407E+02  0.44112254504E+02  0.00000000000E+00 0. -1.
</event>
<event>
 7    1  0.2284751E-015  0.9000757E+02  0.7816164E-02  0.1186339E+00
        -11   -1    0    0    0    0  0.00000000000E+00  0.00000000000E+00  0.45593999997E+02  0.45594000000E+02  0.51100000000E-03 0. -1.
         11   -1    0    0    0    0 -0.00000000000E+00 -0.00000000000E+00 -0.45593999997E+02  0.45594000000E+02  0.51100000000E-03 0.  1.
    9900012    2    1    2    0    0 -0.11827992388E+00 -0.26229655033E+00 -0.11448303462E+01  0.90007565274E+02  0.89999824335E+02 0.  0.
         12    1    1    2    0    0  0.11827992388E+00  0.26229655033E+00  0.11448303462E+01  0.11804347260E+01  0.00000000000E+00 0. -1.
         11    1    3    3    0    0 -0.18497729750E+02 -0.33835515197E+02 -0.18096533869E+01  0.38604182937E+02  0.51100000000E-03 0. -1.
        -11    1    3    3    0    0  0.93365900957E+01 -0.57922319223E+01 -0.46008756004E+00  0.10996978952E+02  0.51100000000E-03 0.  1.
        -12    1    3    3    0    0  0.90428597303E+01  0.39365450569E+02  0.11249106007E+01  0.40406403385E+02  0.00000000000E+00 0.  1.
</event>
<event>
 7    1  0.2284751E-015  0.9000770E+02  0.7816164E-02  0.1186339E+00
        -11   -1    0    0    0    0  0.00000000000E+00  0.00000000000E+00  0.45593999997E+02  0.45594000000E+02  0.51100000000E-03 0.  1.
         11   -1    0    0    0    0 -0.00000000000E+00 -0.00000000000E+00 -0.45593999997E+02  0.45594000000E+02  0.51100000000E-03 0. -1.
    9900012    2    1    2    0    0  0.36063723941E+00 -0.76330058820E+00  0.82487450978E+00  0.90007701325E+02  0.89999962182E+02 0.  0.
         12    1    1    2    0    0 -0.36063723941E+00  0.76330058820E+00 -0.82487450978E+00  0.11802986755E+01  0.00000000000E+00 0. -1.
         11    1    3    3    0    0 -0.70944793911E+01  0.28719015572E+01  0.61435806070E+01  0.98144301578E+01  0.51100000000E-03 0. -1.
        -11    1    3    3    0    0 -0.98208333258E+01  0.47684648260E+01  0.34390036218E+02  0.36081319479E+02  0.51100000000E-03 0.  1.
         12    1    3    3    0    0  0.17275949956E+02 -0.84036669715E+01 -0.39708742315E+02  0.44111951688E+02  0.00000000000E+00 0. -1.
</event>
<event>
 7    1  0.2284751E-015  0.9000771E+02  0.7816164E-02  0.1186339E+00
        -11   -1    0    0    0    0  0.00000000000E+00  0.00000000000E+00  0.45593999997E+02  0.45594000000E+02  0.51100000000E-03 0.  1.
         11   -1    0    0    0    0 -0.00000000000E+00 -0.00000000000E+00 -0.45593999997E+02  0.45594000000E+02  0.51100000000E-03 0. -1.
    9900012    2    1    2    0    0 -0.25767098013E+00  0.10887611565E+01  0.37588449358E+00  0.90007710060E+02  0.89999971033E+02 0.  0.
         12    1    1    2    0    0  0.25767098013E+00 -0.10887611565E+01 -0.37588449358E+00  0.11802899400E+01  0.00000000000E+00 0. -1.
         11    1    3    3    0    0 -0.16242298849E+01  0.87618819507E+01  0.31484964136E+01  0.94510172979E+01  0.51100000000E-03 0. -1.
        -11    1    3    3    0    0 -0.37165510873E+02 -0.22290828640E+01  0.11716183630E+02  0.39032204242E+02  0.51100000000E-03 0.  1.
         12    1    3    3    0    0  0.38532069778E+02 -0.54440379302E+01 -0.14488795550E+02  0.41524488520E+02  0.00000000000E+00 0. -1.
</event>
<event>
 7    1  0.2284751E-015  0.9000858E+02  0.7816164E-02  0.1186337E+00
        -11   -1    0    0    0    0  0.00000000000E+00  0.00000000000E+00  0.45593999997E+02  0.45594000000E+02  0.51100000000E-03 0.  1.
         11   -1    0    0    0    0 -0.00000000000E+00 -0.00000000000E+00 -0.45593999997E+02  0.45594000000E+02  0.51100000000E-03 0. -1.
    9900012    2    1    2    0    0 -0.95403353434E-01 -0.11129457670E+01  0.37852409349E+00  0.90008580410E+02  0.90000852867E+02 0.  0.
         12    1    1    2    0    0  0.95403353434E-01  0.11129457670E+01 -0.37852409349E+00  0.11794195901E+01  0.00000000000E+00 0. -1.
         11    1    3    3    0    0  0.38074355005E+01  0.56256384238E+01 -0.61841572649E+01  0.91863036148E+01  0.51100000000E-03 0. -1.
        -11    1    3    3    0    0  0.37448398155E+02 -0.10709859210E+02  0.15643577547E+01  0.38981159861E+02  0.51100000000E-03 0.  1.
         12    1    3    3    0    0 -0.41351237009E+02  0.39712750194E+01  0.49983236037E+01  0.41841116934E+02  0.00000000000E+00 0. -1.
</event>
<event>
 7    1  0.2284751E-015  0.9000778E+02  0.7816164E-02  0.1186339E+00
        -11   -1    0    0    0    0  0.00000000000E+00  0.00000000000E+00  0.45593999997E+02  0.45594000000E+02  0.51100000000E-03 0. -1.
         11   -1    0    0    0    0 -0.00000000000E+00 -0.00000000000E+00 -0.45593999997E+02  0.45594000000E+02  0.51100000000E-03 0.  1.
    9900012    2    1    2    0    0 -0.48062413955E+00 -0.25131982616E+00 -0.10482212010E+01  0.90007775909E+02  0.90000037751E+02 0.  0.
         12    1    1    2    0    0  0.48062413955E+00  0.25131982616E+00  0.10482212010E+01  0.11802240909E+01  0.00000000000E+00 0. -1.
         11    1    3    3    0    0 -0.21139285560E+01 -0.46493721560E+01 -0.28155220484E+01  0.58320253816E+01  0.51100000000E-03 0. -1.
        -11    1    3    3    0    0  0.57629910704E+01 -0.31486833944E+01 -0.40506555236E+02  0.41035439447E+02  0.51100000000E-03 0.  1.
         12    1    3    3    0    0 -0.41296866539E+01  0.75467357243E+01  0.42273856084E+02  0.43140311081E+02  0.00000000000E+00 0. -1.
</event>
<event>
 7    1  0.2284751E-015  0.9000771E+02  0.7816164E-02  0.1186339E+00
        -11   -1    0    0    0    0  0.00000000000E+00  0.00000000000E+00  0.45593999997E+02  0.45594000000E+02  0.51100000000E-03 0. -1.
         11   -1    0    0    0    0 -0.00000000000E+00 -0.00000000000E+00 -0.45593999997E+02  0.45594000000E+02  0.51100000000E-03 0.  1.
    9900012    2    1    2    0    0 -0.10532158590E+01 -0.41173681346E+00 -0.33808374130E+00  0.90007707043E+02  0.89999967976E+02 0.  0.
         12    1    1    2    0    0  0.10532158590E+01  0.41173681346E+00  0.33808374130E+00  0.11802929574E+01  0.00000000000E+00 0. -1.
         11    1    3    3    0    0 -0.59513041007E+01 -0.32243197469E+02  0.25227626907E+02  0.41369976591E+02  0.51100000000E-03 0. -1.
        -11    1    3    3    0    0 -0.26420766979E+01  0.98392617834E+01  0.40702059782E+01  0.10970789337E+02  0.51100000000E-03 0.  1.
        -12    1    3    3    0    0  0.75401649396E+01  0.21992198872E+02 -0.29635916627E+02  0.37666941114E+02  0.00000000000E+00 0.  1.
</event>
<event>
 7    1  0.2284751E-015  0.9000771E+02  0.7816164E-02  0.1186339E+00
        -11   -1    0    0    0    0  0.00000000000E+00  0.00000000000E+00  0.45593999997E+02  0.45594000000E+02  0.51100000000E-03 0.  1.
         11   -1    0    0    0    0 -0.00000000000E+00 -0.00000000000E+00 -0.45593999997E+02  0.45594000000E+02  0.51100000000E-03 0. -1.
    9900012    2    1    2    0    0 -0.11159757422E+01  0.32425812245E+00  0.20624311915E+00  0.90007711302E+02  0.89999972291E+02 0.  0.
         12    1    1    2    0    0  0.11159757422E+01 -0.32425812245E+00 -0.20624311915E+00  0.11802886983E+01  0.00000000000E+00 0. -1.
         11    1    3    3    0    0 -0.71539588109E+01  0.58234381336E+00 -0.19687892828E+01  0.74427402539E+01  0.51100000000E-03 0. -1.
        -11    1    3    3    0    0 -0.66265584532E+01 -0.21283581509E+02 -0.32908579128E+02  0.39747662815E+02  0.51100000000E-03 0.  1.
         12    1    3    3    0    0  0.12664541522E+02  0.21025495818E+02  0.35083611530E+02  0.42817308233E+02  0.00000000000E+00 0. -1.
</event>
<event>
 7    1  0.2284751E-015  0.9000772E+02  0.7816164E-02  0.1186339E+00
        -11   -1    0    0    0    0  0.00000000000E+00  0.00000000000E+00  0.45593999997E+02  0.45594000000E+02  0.51100000000E-03 0.  1.
         11   -1    0    0    0    0 -0.00000000000E+00 -0.00000000000E+00 -0.45593999997E+02  0.45594000000E+02  0.51100000000E-03 0. -1.
    9900012    2    1    2    0    0 -0.10270008740E+00  0.30620863549E+00  0.11352273757E+01  0.90007723663E+02  0.89999984816E+02 0.  0.
         12    1    1    2    0    0  0.10270008740E+00 -0.30620863549E+00 -0.11352273757E+01  0.11802763367E+01  0.00000000000E+00 0. -1.
         11    1    3    3    0    0  0.39183899776E+01  0.64907285609E+01 -0.42122979175E+01  0.86733379547E+01  0.51100000000E-03 0. -1.
        -11    1    3    3    0    0  0.38237975607E+02 -0.40603065529E+01 -0.14457039245E+01  0.38480110810E+02  0.51100000000E-03 0.  1.
         12    1    3    3    0    0 -0.42259065672E+02 -0.21242133725E+01  0.67932292176E+01  0.42854274899E+02  0.00000000000E+00 0. -1.
</event>
<event>
 7    1  0.2284751E-015  0.9000672E+02  0.7816164E-02  0.1186341E+00
        -11   -1    0    0    0    0  0.00000000000E+00  0.00000000000E+00  0.45593999997E+02  0.45594000000E+02  0.51100000000E-03 0.  1.
         11   -1    0    0    0    0 -0.00000000000E+00 -0.00000000000E+00 -0.45593999997E+02  0.45594000000E+02  0.51100000000E-03 0. -1.
    9900012    2    1    2    0    0  0.10684227033E+01 -0.41518742120E+00 -0.28550910877E+00  0.90006719712E+02  0.89998967606E+02 0.  0.
         12    1    1    2    0    0 -0.10684227033E+01  0.41518742120E+00  0.28550910877E+00  0.11812802880E+01  0.00000000000E+00 0. -1.
         11    1    3    3    0    0  0.64664184583E+01 -0.77259094018E+01 -0.42041707324E+02  0.43232041344E+02  0.51100000000E-03 0. -1.
        -11    1    3    3    0    0  0.56865641351E+01  0.34081047624E+01  0.53507349616E+01  0.85195395782E+01  0.51100000000E-03 0.  1.
        -12    1    3    3    0    0 -0.11084559890E+02  0.39026172182E+01  0.36405463254E+02  0.38255138790E+02  0.00000000000E+00 0.  1.
</event>
<event>
 7    1  0.2284751E-015  0.9000767E+02  0.7816164E-02  0.1186339E+00
        -11   -1    0    0    0    0  0.00000000000E+00  0.00000000000E+00  0.45593999997E+02  0.45594000000E+02  0.51100000000E-03 0. -1.
         11   -1    0    0    0    0 -0.00000000000E+00 -0.00000000000E+00 -0.45593999997E+02  0.45594000000E+02  0.51100000000E-03 0.  1.
    9900012    2    1    2    0    0 -0.20638771501E+00 -0.44072936243E+00 -0.10753361816E+01  0.90007666927E+02  0.89999927330E+02 0.  0.
         12    1    1    2    0    0  0.20638771501E+00  0.44072936243E+00  0.10753361816E+01  0.11803330730E+01  0.00000000000E+00 0. -1.
         11    1    3    3    0    0 -0.17028849839E+02  0.33598564687E+02  0.91081099615E-01  0.37667672770E+02  0.51100000000E-03 0. -1.
        -11    1    3    3    0    0  0.69182113376E+00  0.49184950529E+01  0.77855162950E+01  0.92349593560E+01  0.51100000000E-03 0.  1.
        -12    1    3    3    0    0  0.16130640990E+02 -0.38957789102E+02 -0.89519335762E+01  0.43105034801E+02  0.00000000000E+00 0.  1.
</event>
<event>
 7    1  0.2284751E-015  0.9000781E+02  0.7816164E-02  0.1186339E+00
        -11   -1    0    0    0    0  0.00000000000E+00  0.00000000000E+00  0.45593999997E+02  0.45594000000E+02  0.51100000000E-03 0. -1.
         11   -1    0    0    0    0 -0.00000000000E+00 -0.00000000000E+00 -0.45593999997E+02  0.45594000000E+02  0.51100000000E-03 0.  1.
    9900012    2    1    2    0    0  0.10666138560E+01  0.27525237805E+00 -0.42358034262E+00  0.90007809636E+02  0.90000071923E+02 0.  0.
         12    1    1    2    0    0 -0.10666138560E+01 -0.27525237805E+00  0.42358034262E+00  0.11801903643E+01  0.00000000000E+00 0. -1.
         11    1    3    3    0    0 -0.28278826604E+02 -0.10366063665E+02  0.17203273264E+02  0.34685730802E+02  0.51100000000E-03 0. -1.
        -11    1    3    3    0    0  0.22506672927E+01 -0.10805626552E+02  0.68367417910E+01  0.12983378105E+02  0.51100000000E-03 0.  1.
        -12    1    3    3    0    0  0.27094773167E+02  0.21446942595E+02 -0.24463595397E+02  0.42338700729E+02  0.00000000000E+00 0.  1.
</event>
<event>
 7    1  0.2284751E-015  0.9000758E+02  0.7816164E-02  0.1186339E+00
        -11   -1    0    0    0    0  0.00000000000E+00  0.00000000000E+00  0.45593999997E+02  0.45594000000E+02  0.51100000000E-03 0.  1.
         11   -1    0    0    0    0 -0.00000000000E+00 -0.00000000000E+00 -0.45593999997E+02  0.45594000000E+02  0.51100000000E-03 0. -1.
    9900012    2    1    2    0    0 -0.11433819083E+01  0.15781680629E+00 -0.24732437519E+00  0.90007577330E+02  0.89999836551E+02 0.  0.
         12    1    1    2    0    0  0.11433819083E+01 -0.15781680629E+00  0.24732437519E+00  0.11804226697E+01  0.00000000000E+00 0. -1.
         11    1    3    3    0    0  0.10261320493E+02  0.22659490947E+02 -0.29195762909E+02  0.38355440296E+02  0.51100000000E-03 0. -1.
        -11    1    3    3    0    0  0.68906614270E+01  0.57194133868E+01  0.41750380354E+01  0.98804780881E+01  0.51100000000E-03 0.  1.
        -12    1    3    3    0    0 -0.18295363828E+02 -0.28221087528E+02  0.24773400498E+02  0.41771658946E+02  0.00000000000E+00 0.  1.
</event>
<event>
 7    1  0.2284751E-015  0.9000776E+02  0.7816164E-02  0.1186339E+00
        -11   -1    0    0    0    0  0.00000000000E+00  0.00000000000E+00  0.45593999997E+02  0.45594000000E+02  0.51100000000E-03 0. -1.
         11   -1    0    0    0    0 -0.00000000000E+00 -0.00000000000E+00 -0.45593999997E+02  0.45594000000E+02  0.51100000000E-03 0.  1.
    9900012    2    1    2    0    0 -0.33316072428E+00  0.19034940014E+00 -0.11161255412E+01  0.90007760539E+02  0.90000022178E+02 0.  0.
         12    1    1    2    0    0  0.33316072428E+00 -0.19034940014E+00  0.11161255412E+01  0.11802394614E+01  0.00000000000E+00 0. -1.
         11    1    3    3    0    0 -0.59187511317E+01  0.52300930663E+01  0.47564552349E+01  0.92200517951E+01  0.51100000000E-03 0. -1.
        -11    1    3    3    0    0  0.98442396475E+01  0.31108427119E+02  0.17994908326E+02  0.37262045274E+02  0.51100000000E-03 0.  1.
         12    1    3    3    0    0 -0.42586492400E+01 -0.36148170785E+02 -0.23867489102E+02  0.43525663470E+02  0.00000000000E+00 0. -1.
</event>
<event>
 7    1  0.2284751E-015  0.9000775E+02  0.7816164E-02  0.1186339E+00
        -11   -1    0    0    0    0  0.00000000000E+00  0.00000000000E+00  0.45593999997E+02  0.45594000000E+02  0.51100000000E-03 0. -1.
         11   -1    0    0    0    0 -0.00000000000E+00 -0.00000000000E+00 -0.45593999997E+02  0.45594000000E+02  0.51100000000E-03 0.  1.
    9900012    2    1    2    0    0 -0.18096167689E+00 -0.10556042193E+01 -0.49592745840E+00  0.90007749416E+02  0.90000010909E+02 0.  0.
         12    1    1    2    0    0  0.18096167689E+00  0.10556042193E+01  0.49592745840E+00  0.11802505837E+01  0.00000000000E+00 0. -1.
         11    1    3    3    0    0 -0.46429943002E+01  0.32417863953E+00 -0.84168356799E+01  0.96179837277E+01  0.51100000000E-03 0. -1.
        -11    1    3    3    0    0  0.92533807655E+01  0.29300709265E+02 -0.21587970494E+02  0.37552590980E+02  0.51100000000E-03 0.  1.
         12    1    3    3    0    0 -0.47913481422E+01 -0.30680492124E+02  0.29508878715E+02  0.42837174709E+02  0.00000000000E+00 0. -1.
</event>
<event>
 7    1  0.2284751E-015  0.9000794E+02  0.7816164E-02  0.1186339E+00
        -11   -1    0    0    0    0  0.00000000000E+00  0.00000000000E+00  0.45593999997E+02  0.45594000000E+02  0.51100000000E-03 0.  1.
         11   -1    0    0    0    0 -0.00000000000E+00 -0.00000000000E+00 -0.45593999997E+02  0.45594000000E+02  0.51100000000E-03 0. -1.
    9900012    2    1    2    0    0 -0.62498987324E+00 -0.57737763900E+00 -0.81766229131E+00  0.90007936907E+02  0.90000200874E+02 0.  0.
         12    1    1    2    0    0  0.62498987324E+00  0.57737763900E+00  0.81766229131E+00  0.11800630925E+01  0.00000000000E+00 0. -1.
         11    1    3    3    0    0  0.13394303218E+01 -0.86290413808E+01 -0.36474996901E+01  0.94635449483E+01  0.51100000000E-03 0. -1.
        -11    1    3    3    0    0  0.32529337227E+02  0.15881879452E+02 -0.17001486502E+02  0.39993029629E+02  0.51100000000E-03 0.  1.
         12    1    3    3    0    0 -0.34493757422E+02 -0.78302157097E+01  0.19831323901E+02  0.40551362330E+02  0.00000000000E+00 0. -1.
</event>
<event>
 7    1  0.2284751E-015  0.9000777E+02  0.7816164E-02  0.1186339E+00
        -11   -1    0    0    0    0  0.00000000000E+00  0.00000000000E+00  0.45593999997E+02  0.45594000000E+02  0.51100000000E-03 0.  1.
         11   -1    0    0    0    0 -0.00000000000E+00 -0.00000000000E+00 -0.45593999997E+02  0.45594000000E+02  0.51100000000E-03 0. -1.
    9900012    2    1    2    0    0 -0.81455322265E+00 -0.73642973861E+00  0.43258232724E+00  0.90007765624E+02  0.90000027330E+02 0.  0.
         12    1    1    2    0    0  0.81455322265E+00  0.73642973861E+00 -0.43258232724E+00  0.11802343760E+01  0.00000000000E+00 0. -1.
         11    1    3    3    0    0  0.32244371690E+01 -0.49663108407E+01  0.86552058269E+01  0.10486840639E+02  0.51100000000E-03 0. -1.
        -11    1    3    3    0    0 -0.37710172948E+02  0.46960364068E+01  0.12472083590E+02  0.39995784416E+02  0.51100000000E-03 0.  1.
         12    1    3    3    0    0  0.33671182556E+02 -0.46615530471E+00 -0.20694707090E+02  0.39525140569E+02  0.00000000000E+00 0. -1.
</event>
<event>
 7    1  0.2284751E-015  0.9000783E+02  0.7816164E-02  0.1186339E+00
        -11   -1    0    0    0    0  0.00000000000E+00  0.00000000000E+00  0.45593999997E+02  0.45594000000E+02  0.51100000000E-03 0.  1.
         11   -1    0    0    0    0 -0.00000000000E+00 -0.00000000000E+00 -0.45593999997E+02  0.45594000000E+02  0.51100000000E-03 0. -1.
    9900012    2    1    2    0    0 -0.77615277778E-01 -0.22638448868E+00  0.11556511295E+01  0.90007828995E+02  0.90000091538E+02 0.  0.
         12    1    1    2    0    0  0.77615277778E-01  0.22638448868E+00 -0.11556511295E+01  0.11801710050E+01  0.00000000000E+00 0. -1.
         11    1    3    3    0    0  0.76481195968E+00  0.43475221650E+01  0.62849005528E+01  0.76802253567E+01  0.51100000000E-03 0. -1.
        -11    1    3    3    0    0 -0.19708477986E+02 -0.35644419851E+02  0.11546606310E+02  0.42335244048E+02  0.51100000000E-03 0.  1.
         12    1    3    3    0    0  0.18866050748E+02  0.31070513197E+02 -0.16675855734E+02  0.39992359591E+02  0.00000000000E+00 0. -1.
</event>
<event>
 7    1  0.2284751E-015  0.9000774E+02  0.7816164E-02  0.1186339E+00
        -11   -1    0    0    0    0  0.00000000000E+00  0.00000000000E+00  0.45593999997E+02  0.45594000000E+02  0.51100000000E-03 0. -1.
         11   -1    0    0    0    0 -0.00000000000E+00 -0.00000000000E+00 -0.45593999997E+02  0.45594000000E+02  0.51100000000E-03 0.  1.
    9900012    2    1    2    0    0 -0.47339922236E+00 -0.89328530762E+00  0.60906425035E+00  0.90007735315E+02  0.89999996622E+02 0.  0.
         12    1    1    2    0    0  0.47339922236E+00  0.89328530762E+00 -0.60906425035E+00  0.11802646845E+01  0.00000000000E+00 0. -1.
         11    1    3    3    0    0  0.18220605748E+01 -0.90108409209E+01 -0.34081454792E+01  0.98046221094E+01  0.51100000000E-03 0. -1.
        -11    1    3    3    0    0 -0.12442803457E+02  0.88689307918E+01 -0.35896247967E+02  0.39013099206E+02  0.51100000000E-03 0.  1.
         12    1    3    3    0    0  0.10147343660E+02 -0.75137517850E+00  0.39913457697E+02  0.41190014000E+02  0.00000000000E+00 0. -1.
</event>
<event>
 7    1  0.2284751E-015  0.9000777E+02  0.7816164E-02  0.1186339E+00
        -11   -1    0    0    0    0  0.00000000000E+00  0.00000000000E+00  0.45593999997E+02  0.45594000000E+02  0.51100000000E-03 0.  1.
         11   -1    0    0    0    0 -0.00000000000E+00 -0.00000000000E+00 -0.45593999997E+02  0.45594000000E+02  0.51100000000E-03 0. -1.
    9900012    2    1    2    0    0  0.44968080020E+00 -0.25897856932E+00  0.10600330613E+01  0.90007765781E+02  0.90000027489E+02 0.  0.
         12    1    1    2    0    0 -0.44968080020E+00  0.25897856932E+00 -0.10600330613E+01  0.11802342193E+01  0.00000000000E+00 0. -1.
         11    1    3    3    0    0 -0.27403385909E+02 -0.24784085191E+02 -0.52306813764E+01  0.37316972894E+02  0.51100000000E-03 0. -1.
        -11    1    3    3    0    0 -0.87359459129E+01  0.25672179666E+01  0.40344532547E+01  0.99591250824E+01  0.51100000000E-03 0.  1.
        -12    1    3    3    0    0  0.36589012622E+02  0.21957888655E+02  0.22562611831E+01  0.42731667805E+02  0.00000000000E+00 0.  1.
</event>
<event>
 7    1  0.2284751E-015  0.9000764E+02  0.7816164E-02  0.1186339E+00
        -11   -1    0    0    0    0  0.00000000000E+00  0.00000000000E+00  0.45593999997E+02  0.45594000000E+02  0.51100000000E-03 0. -1.
         11   -1    0    0    0    0 -0.00000000000E+00 -0.00000000000E+00 -0.45593999997E+02  0.45594000000E+02  0.51100000000E-03 0.  1.
    9900012    2    1    2    0    0 -0.28528998900E+00 -0.11301960416E+01  0.18575871281E+00  0.90007644219E+02  0.89999904323E+02 0.  0.
         12    1    1    2    0    0  0.28528998900E+00  0.11301960416E+01 -0.18575871281E+00  0.11803557810E+01  0.00000000000E+00 0. -1.
         11    1    3    3    0    0 -0.29411064797E+02 -0.12833226903E+02  0.11969287534E+02  0.34248595439E+02  0.51100000000E-03 0. -1.
        -11    1    3    3    0    0 -0.11456978310E+02 -0.20645371139E+01 -0.22497140439E+01  0.11856891626E+02  0.51100000000E-03 0.  1.
        -12    1    3    3    0    0  0.40582753118E+02  0.13767567976E+02 -0.95338147774E+01  0.43902157154E+02  0.00000000000E+00 0.  1.
</event>
<event>
 7    1  0.2284751E-015  0.9000761E+02  0.7816164E-02  0.1186339E+00
        -11   -1    0    0    0    0  0.00000000000E+00  0.00000000000E+00  0.45593999997E+02  0.45594000000E+02  0.51100000000E-03 0.  1.
         11   -1    0    0    0    0 -0.00000000000E+00 -0.00000000000E+00 -0.45593999997E+02  0.45594000000E+02  0.51100000000E-03 0. -1.
    9900012    2    1    2    0    0 -0.11232091018E+01  0.36216584250E+00  0.23671623248E-01  0.90007608908E+02  0.89999868546E+02 0.  0.
         12    1    1    2    0    0  0.11232091018E+01 -0.36216584250E+00 -0.23671623248E-01  0.11803910918E+01  0.00000000000E+00 0. -1.
         11    1    3    3    0    0  0.13285406188E+02 -0.68369408999E+01 -0.31408018800E+02  0.34780877270E+02  0.51100000000E-03 0. -1.
        -11    1    3    3    0    0  0.21620621903E+01 -0.81334499961E+01 -0.68048454525E+01  0.10822820503E+02  0.51100000000E-03 0.  1.
        -12    1    3    3    0    0 -0.16570677480E+02  0.15332556739E+02  0.38236535876E+02  0.44403911135E+02  0.00000000000E+00 0.  1.
</event>
<event>
 7    1  0.2284751E-015  0.9000774E+02  0.7816164E-02  0.1186339E+00
        -11   -1    0    0    0    0  0.00000000000E+00  0.00000000000E+00  0.45593999997E+02  0.45594000000E+02  0.51100000000E-03 0.  1.
         11   -1    0    0    0    0 -0.00000000000E+00 -0.00000000000E+00 -0.45593999997E+02  0.45594000000E+02  0.51100000000E-03 0. -1.
    9900012    2    1    2    0    0 -0.37038231005E-01 -0.11030676453E+01  0.41820156279E+00  0.90007736213E+02  0.89999997531E+02 0.  0.
         12    1    1    2    0    0  0.37038231005E-01  0.11030676453E+01 -0.41820156279E+00  0.11802637874E+01  0.00000000000E+00 0. -1.
         11    1    3    3    0    0  0.29525469452E+01 -0.46978857199E+01  0.70585624913E+01  0.89783611202E+01  0.51100000000E-03 0. -1.
        -11    1    3    3    0    0 -0.40404221075E+02  0.11817755696E+02 -0.72508383276E+01  0.42716918043E+02  0.51100000000E-03 0.  1.
         12    1    3    3    0    0  0.37414635898E+02 -0.82229376216E+01  0.61047739912E+00  0.38312457050E+02  0.00000000000E+00 0. -1.
</event>
<event>
 7    1  0.2284751E-015  0.9000773E+02  0.7816164E-02  0.1186339E+00
        -11   -1    0    0    0    0  0.00000000000E+00  0.00000000000E+00  0.45593999997E+02  0.45594000000E+02  0.51100000000E-03 0. -1.
         11   -1    0    0    0    0 -0.00000000000E+00 -0.00000000000E+00 -0.45593999997E+02  0.45594000000E+02  0.51100000000E-03 0.  1.
    9900012    2    1    2    0    0  0.33436582749E+00 -0.15530855924E+00 -0.11212144479E+01  0.90007727534E+02  0.89999988738E+02 0.  0.
         12    1    1    2    0    0 -0.33436582749E+00  0.15530855924E+00  0.11212144479E+01  0.11802724657E+01  0.00000000000E+00 0. -1.
         11    1    3    3    0    0  0.21039362535E+02  0.49250769261E-01  0.33903483844E+02  0.39901170642E+02  0.51100000000E-03 0. -1.
        -11    1    3    3    0    0 -0.19644368133E+01 -0.66919294166E+01  0.27064638634E+01  0.74810345685E+01  0.51100000000E-03 0.  1.
        -12    1    3    3    0    0 -0.18740559894E+02  0.64873700881E+01 -0.37731162156E+02  0.42625522324E+02  0.00000000000E+00 0.  1.
</event>
<event>
 7    1  0.2904720E-015  0.9000785E+02  0.7816164E-02  0.1186339E+00
        -11   -1    0    0    0    0  0.00000000000E+00  0.00000000000E+00  0.45593999997E+02  0.45594000000E+02  0.51100000000E-03 0.  1.
         11   -1    0    0    0    0 -0.00000000000E+00 -0.00000000000E+00 -0.45593999997E+02  0.45594000000E+02  0.51100000000E-03 0. -1.
    9900012    2    1    2    0    0  0.17531004170E+00 -0.89250198620E+00  0.75197640479E+00  0.90007846654E+02  0.90000109430E+02 0.  0.
         12    1    1    2    0    0 -0.17531004170E+00  0.89250198620E+00 -0.75197640479E+00  0.11801533457E+01  0.00000000000E+00 0. -1.
         11    1    3    3    0    0 -0.29648847168E+02  0.62372690945E+01 -0.24778967329E+02  0.39140195277E+02  0.51100000000E-03 0. -1.
        -11    1    3    3    0    0 -0.38309898331E+01 -0.85851715000E+01  0.15765298719E+01  0.95324235892E+01  0.51100000000E-03 0.  1.
        -12    1    3    3    0    0  0.33655147043E+02  0.14554004193E+01  0.23954413861E+02  0.41335227788E+02  0.00000000000E+00 0.  1.
</event>
<event>
 7    1  0.2284751E-015  0.9000773E+02  0.7816164E-02  0.1186339E+00
        -11   -1    0    0    0    0  0.00000000000E+00  0.00000000000E+00  0.45593999997E+02  0.45594000000E+02  0.51100000000E-03 0.  1.
         11   -1    0    0    0    0 -0.00000000000E+00 -0.00000000000E+00 -0.45593999997E+02  0.45594000000E+02  0.51100000000E-03 0. -1.
    9900012    2    1    2    0    0 -0.53286753496E+00 -0.45659458811E+00  0.94900793360E+00  0.90007727792E+02  0.89999988999E+02 0.  0.
         12    1    1    2    0    0  0.53286753496E+00  0.45659458811E+00 -0.94900793360E+00  0.11802722083E+01  0.00000000000E+00 0. -1.
         11    1    3    3    0    0 -0.14251823914E+02  0.34869732313E+02  0.81036113512E+01  0.38531561526E+02  0.51100000000E-03 0. -1.
        -11    1    3    3    0    0  0.15625956051E+01  0.43856420430E+01 -0.87533643044E+01  0.99144817343E+01  0.51100000000E-03 0.  1.
        -12    1    3    3    0    0  0.12156360774E+02 -0.39711968944E+02  0.15987608867E+01  0.41561684531E+02  0.00000000000E+00 0.  1.
</event>
<event>
 7    1  0.2284751E-015  0.9000767E+02  0.7816164E-02  0.1186339E+00
        -11   -1    0    0    0    0  0.00000000000E+00  0.00000000000E+00  0.45593999997E+02  0.45594000000E+02  0.51100000000E-03 0. -1.
         11   -1    0    0    0    0 -0.00000000000E+00 -0.00000000000E+00 -0.45593999997E+02  0.45594000000E+02  0.51100000000E-03 0.  1.
    9900012    2    1    2    0    0 -0.22397946503E+00  0.10183694047E+01 -0.55312532168E+00  0.90007665019E+02  0.89999925397E+02 0.  0.
         12    1    1    2    0    0  0.22397946503E+00 -0.10183694047E+01  0.55312532168E+00  0.11803349807E+01  0.00000000000E+00 0. -1.
         11    1    3    3    0    0  0.77494765015E+01 -0.47008281798E+01 -0.40749565990E+01  0.99376779565E+01  0.51100000000E-03 0. -1.
        -11    1    3    3    0    0 -0.21680336141E+02 -0.21557053979E+02 -0.24077874706E+02  0.38916418155E+02  0.51100000000E-03 0.  1.
         12    1    3    3    0    0  0.13706880175E+02  0.27276251564E+02  0.27599705983E+02  0.41153568907E+02  0.00000000000E+00 0. -1.
</event>
<event>
 7    1  0.2284751E-015  0.9000810E+02  0.7816164E-02  0.1186338E+00
        -11   -1    0    0    0    0  0.00000000000E+00  0.00000000000E+00  0.45593999997E+02  0.45594000000E+02  0.51100000000E-03 0.  1.
         11   -1    0    0    0    0 -0.00000000000E+00 -0.00000000000E+00 -0.45593999997E+02  0.45594000000E+02  0.51100000000E-03 0. -1.
    9900012    2    1    2    0    0 -0.34672109714E+00 -0.99611187190E+00  0.52887934313E+00  0.90008098419E+02  0.90000364518E+02 0.  0.
         12    1    1    2    0    0  0.34672109714E+00  0.99611187190E+00 -0.52887934313E+00  0.11799015807E+01  0.00000000000E+00 0. -1.
         11    1    3    3    0    0  0.20810752756E+02 -0.29267671483E+02  0.30516751380E+01  0.36041597435E+02  0.51100000000E-03 0. -1.
        -11    1    3    3    0    0  0.37095762045E+01 -0.86356755959E+01 -0.74092237153E+00  0.94278743541E+01  0.51100000000E-03 0.  1.
        -12    1    3    3    0    0 -0.24867050057E+02  0.36907235207E+02 -0.17818734234E+01  0.44538626630E+02  0.00000000000E+00 0.  1.
</event>
<event>
 7    1  0.2284751E-015  0.9000770E+02  0.7816164E-02  0.1186339E+00
        -11   -1    0    0    0    0  0.00000000000E+00  0.00000000000E+00  0.45593999997E+02  0.45594000000E+02  0.51100000000E-03 0.  1.
         11   -1    0    0    0    0 -0.00000000000E+00 -0.00000000000E+00 -0.45593999997E+02  0.45594000000E+02  0.51100000000E-03 0. -1.
    9900012    2    1    2    0    0 -0.34534887540E+00  0.65591224116E+00  0.91848365335E+00  0.90007703878E+02  0.89999964769E+02 0.  0.
         12    1    1    2    0    0  0.34534887540E+00 -0.65591224116E+00 -0.91848365335E+00  0.11802961219E+01  0.00000000000E+00 0. -1.
         11    1    3    3    0    0  0.16260025274E+02  0.17408607140E+02 -0.29909894917E+02  0.38236760305E+02  0.51100000000E-03 0. -1.
        -11    1    3    3    0    0  0.12076771702E+01  0.91028412720E+01  0.25852614926E+01  0.95395901703E+01  0.51100000000E-03 0.  1.
        -12    1    3    3    0    0 -0.17813051320E+02 -0.25855536170E+02  0.28243117077E+02  0.42231353403E+02  0.00000000000E+00 0.  1.
</event>
<event>
 7    1  0.2284751E-015  0.9000759E+02  0.7816164E-02  0.1186339E+00
        -11   -1    0    0    0    0  0.00000000000E+00  0.00000000000E+00  0.45593999997E+02  0.45594000000E+02  0.51100000000E-03 0. -1.
         11   -1    0    0    0    0 -0.00000000000E+00 -0.00000000000E+00 -0.45593999997E+02  0.45594000000E+02  0.51100000000E-03 0.  1.
    9900012    2    1    2    0    0  0.10556423322E+01 -0.52679678847E+00 -0.38217169895E-01  0.90007594925E+02  0.89999854378E+02 0.  0.
         12    1    1    2    0    0 -0.10556423322E+01  0.52679678847E+00  0.38217169895E-01  0.11804050754E+01  0.00000000000E+00 0. -1.
         11    1    3    3    0    0 -0.63729047178E+01 -0.44771837346E+01  0.41684390793E+01  0.88337406208E+01  0.51100000000E-03 0. -1.
        -11    1    3    3    0    0  0.20799010116E+00 -0.31373574118E+02 -0.24494329090E+02  0.39803474354E+02  0.51100000000E-03 0.  1.
         12    1    3    3    0    0  0.72205569489E+01  0.35323961064E+02  0.20287672841E+02  0.41370379950E+02  0.00000000000E+00 0. -1.
</event>
<event>
 7    1  0.2284751E-015  0.9000776E+02  0.7816164E-02  0.1186339E+00
        -11   -1    0    0    0    0  0.00000000000E+00  0.00000000000E+00  0.45593999997E+02  0.45594000000E+02  0.51100000000E-03 0.  1.
         11   -1    0    0    0    0 -0.00000000000E+00 -0.00000000000E+00 -0.45593999997E+02  0.45594000000E+02  0.51100000000E-03 0. -1.
    9900012    2    1    2    0    0 -0.30883682128E-01 -0.10977507019E+01  0.43238408758E+00  0.90007760023E+02  0.90000021655E+02 0.  0.
         12    1    1    2    0    0  0.30883682128E-01  0.10977507019E+01 -0.43238408758E+00  0.11802399775E+01  0.00000000000E+00 0. -1.
         11    1    3    3    0    0 -0.26760033309E+01  0.29970845956E+01 -0.35295430675E+02  0.35523385772E+02  0.51100000000E-03 0. -1.
        -11    1    3    3    0    0 -0.99060120145E+01  0.44075573532E+01 -0.43138683869E+01  0.11668980100E+02  0.51100000000E-03 0.  1.
        -12    1    3    3    0    0  0.12551131663E+02 -0.85023926507E+01  0.40041683150E+02  0.42815394151E+02  0.00000000000E+00 0.  1.
</event>
<event>
 7    1  0.2284751E-015  0.9000782E+02  0.7816164E-02  0.1186339E+00
        -11   -1    0    0    0    0  0.00000000000E+00  0.00000000000E+00  0.45593999997E+02  0.45594000000E+02  0.51100000000E-03 0. -1.
         11   -1    0    0    0    0 -0.00000000000E+00 -0.00000000000E+00 -0.45593999997E+02  0.45594000000E+02  0.51100000000E-03 0.  1.
    9900012    2    1    2    0    0 -0.11647601387E+01  0.55371451822E-01  0.18194395588E+00  0.90007815361E+02  0.90000077724E+02 0.  0.
         12    1    1    2    0    0  0.11647601387E+01 -0.55371451822E-01 -0.18194395588E+00  0.11801846387E+01  0.00000000000E+00 0. -1.
         11    1    3    3    0    0 -0.35100977389E+01 -0.64766122196E+01  0.34392147411E+02  0.35172248944E+02  0.51100000000E-03 0. -1.
        -11    1    3    3    0    0  0.75729343682E+01 -0.20133563108E+01  0.81505863311E+01  0.11306413949E+02  0.51100000000E-03 0.  1.
        -12    1    3    3    0    0 -0.52275967681E+01  0.85453399822E+01 -0.42360789786E+02  0.43529152469E+02  0.00000000000E+00 0.  1.
</event>
<event>
 7    1  0.2284751E-015  0.9000779E+02  0.7816164E-02  0.1186339E+00
        -11   -1    0    0    0    0  0.00000000000E+00  0.00000000000E+00  0.45593999997E+02  0.45594000000E+02  0.51100000000E-03 0. -1.
         11   -1    0    0    0    0 -0.00000000000E+00 -0.00000000000E+00 -0.45593999997E+02  0.45594000000E+02  0.51100000000E-03 0.  1.
    9900012    2    1    2    0    0  0.89244943995E-01  0.79308990509E+00 -0.86945197505E+00  0.90007786886E+02  0.90000048873E+02 0.  0.
         12    1    1    2    0    0 -0.89244943995E-01 -0.79308990509E+00  0.86945197505E+00  0.11802131140E+01  0.00000000000E+00 0. -1.
         11    1    3    3    0    0  0.33567716608E+01  0.44741854837E+01  0.36545160106E+02  0.36970731385E+02  0.51100000000E-03 0. -1.
        -11    1    3    3    0    0  0.12519608512E+02  0.10250838464E+02 -0.12701255091E+02  0.20570419725E+02  0.51100000000E-03 0.  1.
        -12    1    3    3    0    0 -0.15787135229E+02 -0.13931934043E+02 -0.24713356990E+02  0.32466635776E+02  0.00000000000E+00 0.  1.
</event>
<event>
 7    1  0.2284751E-015  0.9000768E+02  0.7816164E-02  0.1186339E+00
        -11   -1    0    0    0    0  0.00000000000E+00  0.00000000000E+00  0.45593999997E+02  0.45594000000E+02  0.51100000000E-03 0.  1.
         11   -1    0    0    0    0 -0.00000000000E+00 -0.00000000000E+00 -0.45593999997E+02  0.45594000000E+02  0.51100000000E-03 0. -1.
    9900012    2    1    2    0    0 -0.91813042238E+00  0.88250828825E-01  0.73647796517E+00  0.90007681622E+02  0.89999942219E+02 0.  0.
         12    1    1    2    0    0  0.91813042238E+00 -0.88250828825E-01 -0.73647796517E+00  0.11803183784E+01  0.00000000000E+00 0. -1.
         11    1    3    3    0    0 -0.56833170631E+01 -0.77629380975E+01 -0.86964226600E+01  0.12968849914E+02  0.51100000000E-03 0. -1.
        -11    1    3    3    0    0 -0.22978119358E+02  0.30922939717E+02 -0.35551826346E+01  0.38689294305E+02  0.51100000000E-03 0.  1.
         12    1    3    3    0    0  0.27743305999E+02 -0.23071750790E+02  0.12988083260E+02  0.38349537403E+02  0.00000000000E+00 0. -1.
</event>
<event>
 7    1  0.2284751E-015  0.9000784E+02  0.7816164E-02  0.1186339E+00
        -11   -1    0    0    0    0  0.00000000000E+00  0.00000000000E+00  0.45593999997E+02  0.45594000000E+02  0.51100000000E-03 0.  1.
         11   -1    0    0    0    0 -0.00000000000E+00 -0.00000000000E+00 -0.45593999997E+02  0.45594000000E+02  0.51100000000E-03 0. -1.
    9900012    2    1    2    0    0  0.88138253244E+00  0.21996414386E+00  0.75336043081E+00  0.90007842667E+02  0.90000105390E+02 0.  0.
         12    1    1    2    0    0 -0.88138253244E+00 -0.21996414386E+00 -0.75336043081E+00  0.11801573335E+01  0.00000000000E+00 0. -1.
         11    1    3    3    0    0 -0.20467543289E+02 -0.53098228395E+01 -0.34844209223E+02  0.40758231850E+02  0.51100000000E-03 0. -1.
        -11    1    3    3    0    0 -0.59540767270E+01  0.25417404728E+01  0.82939181107E+01  0.10521432991E+02  0.51100000000E-03 0.  1.
        -12    1    3    3    0    0  0.27303002548E+02  0.29880465105E+01  0.27303651543E+02  0.38728177826E+02  0.00000000000E+00 0.  1.
</event>
<event>
 7    1  0.2284751E-015  0.9000788E+02  0.7816164E-02  0.1186339E+00
        -11   -1    0    0    0    0  0.00000000000E+00  0.00000000000E+00  0.45593999997E+02  0.45594000000E+02  0.51100000000E-03 0. -1.
         11   -1    0    0    0    0 -0.00000000000E+00 -0.00000000000E+00 -0.45593999997E+02  0.45594000000E+02  0.51100000000E-03 0.  1.
    9900012    2    1    2    0    0  0.64889618734E+00 -0.62483678635E+00 -0.76235698447E+00  0.90007883293E+02  0.90000146552E+02 0.  0.
         12    1    1    2    0    0 -0.64889618734E+00  0.62483678635E+00  0.76235698447E+00  0.11801167075E+01  0.00000000000E+00 0. -1.
         11    1    3    3    0    0 -0.23986949491E+01 -0.12670404135E+02 -0.67235795186E+01  0.14543018951E+02  0.51100000000E-03 0. -1.
        -11    1    3    3    0    0  0.52619554333E+01  0.12624510347E+02 -0.33371531756E+02  0.36065573176E+02  0.51100000000E-03 0.  1.
         12    1    3    3    0    0 -0.22143642968E+01 -0.57894299834E+00  0.39332754291E+02  0.39399291165E+02  0.00000000000E+00 0. -1.
</event>
<event>
 7    1  0.2284751E-015  0.9000775E+02  0.7816164E-02  0.1186339E+00
        -11   -1    0    0    0    0  0.00000000000E+00  0.00000000000E+00  0.45593999997E+02  0.45594000000E+02  0.51100000000E-03 0.  1.
         11   -1    0    0    0    0 -0.00000000000E+00 -0.00000000000E+00 -0.45593999997E+02  0.45594000000E+02  0.51100000000E-03 0. -1.
    9900012    2    1    2    0    0  0.99826252292E+00  0.43237146609E+00 -0.45773901465E+00  0.90007746572E+02  0.90000008027E+02 0.  0.
         12    1    1    2    0    0 -0.99826252292E+00 -0.43237146609E+00  0.45773901465E+00  0.11802534282E+01  0.00000000000E+00 0. -1.
         11    1    3    3    0    0  0.92661871979E+01  0.90374628928E+01 -0.18340296936E+01  0.13072934862E+02  0.51100000000E-03 0. -1.
        -11    1    3    3    0    0 -0.65953052950E+01  0.32324416267E+02 -0.99065622419E+01  0.34445695154E+02  0.51100000000E-03 0.  1.
         12    1    3    3    0    0 -0.16726193800E+01 -0.40929507694E+02  0.11282852921E+02  0.42489116556E+02  0.00000000000E+00 0. -1.
</event>
<event>
 7    1  0.2284751E-015  0.9000770E+02  0.7816164E-02  0.1186339E+00
        -11   -1    0    0    0    0  0.00000000000E+00  0.00000000000E+00  0.45593999997E+02  0.45594000000E+02  0.51100000000E-03 0.  1.
         11   -1    0    0    0    0 -0.00000000000E+00 -0.00000000000E+00 -0.45593999997E+02  0.45594000000E+02  0.51100000000E-03 0. -1.
    9900012    2    1    2    0    0 -0.41318739276E+00 -0.10634594453E+01  0.30238522725E+00  0.90007700615E+02  0.89999961463E+02 0.  0.
         12    1    1    2    0    0  0.41318739276E+00  0.10634594453E+01 -0.30238522725E+00  0.11802993853E+01  0.00000000000E+00 0. -1.
         11    1    3    3    0    0 -0.86906657976E+01  0.66205805768E+01  0.40625258417E+01  0.11656066045E+02  0.51100000000E-03 0. -1.
        -11    1    3    3    0    0 -0.31842445478E+02 -0.57621005599E+01  0.12941753052E+02  0.34851572550E+02  0.51100000000E-03 0.  1.
         12    1    3    3    0    0  0.40119923883E+02 -0.19219394621E+01 -0.16701893666E+02  0.43500062019E+02  0.00000000000E+00 0. -1.
</event>
<event>
 7    1  0.2284751E-015  0.9000689E+02  0.7816164E-02  0.1186341E+00
        -11   -1    0    0    0    0  0.00000000000E+00  0.00000000000E+00  0.45593999997E+02  0.45594000000E+02  0.51100000000E-03 0.  1.
         11   -1    0    0    0    0 -0.00000000000E+00 -0.00000000000E+00 -0.45593999997E+02  0.45594000000E+02  0.51100000000E-03 0. -1.
    9900012    2    1    2    0    0 -0.86405596174E+00  0.42580606655E+00 -0.68345689944E+00  0.90006891688E+02  0.89999141854E+02 0.  0.
         12    1    1    2    0    0  0.86405596174E+00 -0.42580606655E+00  0.68345689944E+00  0.11811083120E+01  0.00000000000E+00 0. -1.
         11    1    3    3    0    0 -0.24899054524E+02 -0.28799422082E+02 -0.11362294037E+00  0.38070757004E+02  0.51100000000E-03 0. -1.
        -11    1    3    3    0    0 -0.90530396756E+01  0.39210439656E+01  0.24712327780E+01  0.10170501701E+02  0.51100000000E-03 0.  1.
        -12    1    3    3    0    0  0.33088038238E+02  0.25304184183E+02 -0.30410667371E+01  0.41765632983E+02  0.00000000000E+00 0.  1.
</event>
<event>
 7    1  0.2284751E-015  0.9000774E+02  0.7816164E-02  0.1186339E+00
        -11   -1    0    0    0    0  0.00000000000E+00  0.00000000000E+00  0.45593999997E+02  0.45594000000E+02  0.51100000000E-03 0.  1.
         11   -1    0    0    0    0 -0.00000000000E+00 -0.00000000000E+00 -0.45593999997E+02  0.45594000000E+02  0.51100000000E-03 0. -1.
    9900012    2    1    2    0    0 -0.22074011086E+00 -0.11376054297E+01 -0.22390628180E+00  0.90007743107E+02  0.90000004516E+02 0.  0.
         12    1    1    2    0    0  0.22074011086E+00  0.11376054297E+01  0.22390628180E+00  0.11802568929E+01  0.00000000000E+00 0. -1.
         11    1    3    3    0    0  0.21273098150E+01 -0.10526403213E+02  0.68732598944E+01  0.12750384837E+02  0.51100000000E-03 0. -1.
        -11    1    3    3    0    0 -0.19390160166E+02 -0.51860391005E+01  0.28696459558E+02  0.35019424670E+02  0.51100000000E-03 0.  1.
         12    1    3    3    0    0  0.17042110240E+02  0.14574836884E+02 -0.35793625734E+02  0.42237933600E+02  0.00000000000E+00 0. -1.
</event>
<event>
 7    1  0.2284751E-015  0.9000766E+02  0.7816164E-02  0.1186339E+00
        -11   -1    0    0    0    0  0.00000000000E+00  0.00000000000E+00  0.45593999997E+02  0.45594000000E+02  0.51100000000E-03 0. -1.
         11   -1    0    0    0    0 -0.00000000000E+00 -0.00000000000E+00 -0.45593999997E+02  0.45594000000E+02  0.51100000000E-03 0.  1.
    9900012    2    1    2    0    0  0.86470477239E+00  0.60593648907E+00 -0.52757793111E+00  0.90007656048E+02  0.89999916308E+02 0.  0.
         12    1    1    2    0    0 -0.86470477239E+00 -0.60593648907E+00  0.52757793111E+00  0.11803439522E+01  0.00000000000E+00 0. -1.
         11    1    3    3    0    0 -0.53588773838E+01  0.46687645715E+01  0.64099825745E+01  0.95709354980E+01  0.51100000000E-03 0. -1.
        -11    1    3    3    0    0 -0.15272613365E+02  0.18310632816E+02 -0.32449660980E+02  0.40268008284E+02  0.51100000000E-03 0.  1.
         12    1    3    3    0    0  0.21496195521E+02 -0.22373460899E+02  0.25512100475E+02  0.40168712266E+02  0.00000000000E+00 0. -1.
</event>
<event>
 7    1  0.2284751E-015  0.9000775E+02  0.7816164E-02  0.1186339E+00
        -11   -1    0    0    0    0  0.00000000000E+00  0.00000000000E+00  0.45593999997E+02  0.45594000000E+02  0.51100000000E-03 0.  1.
         11   -1    0    0    0    0 -0.00000000000E+00 -0.00000000000E+00 -0.45593999997E+02  0.45594000000E+02  0.51100000000E-03 0. -1.
    9900012    2    1    2    0    0 -0.45767148741E+00  0.10154419938E+01  0.39038856850E+00  0.90007750506E+02  0.90000012013E+02 0.  0.
         12    1    1    2    0    0  0.45767148741E+00 -0.10154419938E+01 -0.39038856850E+00  0.11802494938E+01  0.00000000000E+00 0. -1.
         11    1    3    3    0    0 -0.24612178529E+02 -0.96754110294E+01 -0.24670054183E+02  0.36166068132E+02  0.51100000000E-03 0. -1.
        -11    1    3    3    0    0 -0.70649464368E+01 -0.66621939152E+01 -0.80158287234E+00  0.97437585808E+01  0.51100000000E-03 0.  1.
        -12    1    3    3    0    0  0.31219453478E+02  0.17353046938E+02  0.25862025624E+02  0.44097923793E+02  0.00000000000E+00 0.  1.
</event>
<event>
 7    1  0.2284751E-015  0.9000763E+02  0.7816164E-02  0.1186339E+00
        -11   -1    0    0    0    0  0.00000000000E+00  0.00000000000E+00  0.45593999997E+02  0.45594000000E+02  0.51100000000E-03 0.  1.
         11   -1    0    0    0    0 -0.00000000000E+00 -0.00000000000E+00 -0.45593999997E+02  0.45594000000E+02  0.51100000000E-03 0. -1.
    9900012    2    1    2    0    0 -0.29539793132E+00 -0.10916942839E+01  0.33796949556E+00  0.90007627293E+02  0.89999887173E+02 0.  0.
         12    1    1    2    0    0  0.29539793132E+00  0.10916942839E+01 -0.33796949556E+00  0.11803727069E+01  0.00000000000E+00 0. -1.
         11    1    3    3    0    0  0.29011814909E+02  0.31733251667E+01 -0.33571647294E+02  0.44483827390E+02  0.51100000000E-03 0. -1.
        -11    1    3    3    0    0 -0.57892757234E+01 -0.17619570017E+01  0.34689751690E+01  0.69752415629E+01  0.51100000000E-03 0.  1.
        -12    1    3    3    0    0 -0.23517937117E+02 -0.25030624489E+01  0.30440641621E+02  0.38548558341E+02  0.00000000000E+00 0.  1.
</event>
<event>
 7    1  0.2284751E-015  0.9000766E+02  0.7816164E-02  0.1186339E+00
        -11   -1    0    0    0    0  0.00000000000E+00  0.00000000000E+00  0.45593999997E+02  0.45594000000E+02  0.51100000000E-03 0.  1.
         11   -1    0    0    0    0 -0.00000000000E+00 -0.00000000000E+00 -0.45593999997E+02  0.45594000000E+02  0.51100000000E-03 0. -1.
    9900012    2    1    2    0    0 -0.97635437915E+00 -0.16302523815E+00  0.64293368130E+00  0.90007657329E+02  0.89999917606E+02 0.  0.
         12    1    1    2    0    0  0.97635437915E+00  0.16302523815E+00 -0.64293368130E+00  0.11803426708E+01  0.00000000000E+00 0. -1.
         11    1    3    3    0    0 -0.23756707107E+01 -0.31278956569E+02 -0.20681533179E+02  0.37573165295E+02  0.51100000000E-03 0. -1.
        -11    1    3    3    0    0  0.10767606587E+02 -0.18511554962E+01  0.13342345207E+02  0.17244892118E+02  0.51100000000E-03 0.  1.
        -12    1    3    3    0    0 -0.93682902556E+01  0.32967086827E+02  0.79821216533E+01  0.35189599916E+02  0.00000000000E+00 0.  1.
</event>
<event>
 7    1  0.2284751E-015  0.9000771E+02  0.7816164E-02  0.1186339E+00
        -11   -1    0    0    0    0  0.00000000000E+00  0.00000000000E+00  0.45593999997E+02  0.45594000000E+02  0.51100000000E-03 0.  1.
         11   -1    0    0    0    0 -0.00000000000E+00 -0.00000000000E+00 -0.45593999997E+02  0.45594000000E+02  0.51100000000E-03 0. -1.
    9900012    2    1    2    0    0  0.23342761552E+00  0.12401069093E+00  0.11503118635E+01  0.90007709999E+02  0.89999970971E+02 0.  0.
         12    1    1    2    0    0 -0.23342761552E+00 -0.12401069093E+00 -0.11503118635E+01  0.11802900010E+01  0.00000000000E+00 0. -1.
         11    1    3    3    0    0 -0.23542504825E+02 -0.15450428806E+02 -0.24942489351E+02  0.37617722672E+02  0.51100000000E-03 0. -1.
        -11    1    3    3    0    0  0.93416641514E+00 -0.10390423528E+02  0.31807010098E+01  0.10906439711E+02  0.51100000000E-03 0.  1.
        -12    1    3    3    0    0  0.22841766025E+02  0.25964863026E+02  0.22912100204E+02  0.41483547617E+02  0.00000000000E+00 0.  1.
</event>
<event>
 7    1  0.2284751E-015  0.9000809E+02  0.7816164E-02  0.1186338E+00
        -11   -1    0    0    0    0  0.00000000000E+00  0.00000000000E+00  0.45593999997E+02  0.45594000000E+02  0.51100000000E-03 0.  1.
         11   -1    0    0    0    0 -0.00000000000E+00 -0.00000000000E+00 -0.45593999997E+02  0.45594000000E+02  0.51100000000E-03 0. -1.
    9900012    2    1    2    0    0  0.29192300355E+00 -0.11658220103E+00  0.11372687611E+01  0.90008088696E+02  0.90000354666E+02 0.  0.
         12    1    1    2    0    0 -0.29192300355E+00  0.11658220103E+00 -0.11372687611E+01  0.11799113037E+01  0.00000000000E+00 0. -1.
         11    1    3    3    0    0  0.12016091848E+02 -0.12550464706E+02 -0.32163983879E+02  0.36557112672E+02  0.51100000000E-03 0. -1.
        -11    1    3    3    0    0 -0.26981710642E+01 -0.85953665946E+01 -0.38660859206E+01  0.98034215759E+01  0.51100000000E-03 0.  1.
        -12    1    3    3    0    0 -0.90259977803E+01  0.21029249100E+02  0.37167338561E+02  0.43647554449E+02  0.00000000000E+00 0.  1.
</event>
<event>
 7    1  0.2284751E-015  0.9000800E+02  0.7816164E-02  0.1186339E+00
        -11   -1    0    0    0    0  0.00000000000E+00  0.00000000000E+00  0.45593999997E+02  0.45594000000E+02  0.51100000000E-03 0.  1.
         11   -1    0    0    0    0 -0.00000000000E+00 -0.00000000000E+00 -0.45593999997E+02  0.45594000000E+02  0.51100000000E-03 0. -1.
    9900012    2    1    2    0    0  0.31316747782E+00 -0.87480627063E+00 -0.72734396323E+00  0.90008004610E+02  0.90000269470E+02 0.  0.
         12    1    1    2    0    0 -0.31316747782E+00  0.87480627063E+00  0.72734396323E+00  0.11799953903E+01  0.00000000000E+00 0. -1.
         11    1    3    3    0    0 -0.23421270975E+01  0.91252976526E+01 -0.37212111808E+00  0.94284193255E+01  0.51100000000E-03 0. -1.
        -11    1    3    3    0    0  0.24139591506E+02 -0.25241594464E+02  0.25827860943E+02  0.43438880859E+02  0.51100000000E-03 0.  1.
         12    1    3    3    0    0 -0.21484296931E+02  0.15241490541E+02 -0.26183083788E+02  0.37140704425E+02  0.00000000000E+00 0. -1.
</event>
<event>
 7    1  0.2284751E-015  0.9000784E+02  0.7816164E-02  0.1186339E+00
        -11   -1    0    0    0    0  0.00000000000E+00  0.00000000000E+00  0.45593999997E+02  0.45594000000E+02  0.51100000000E-03 0.  1.
         11   -1    0    0    0    0 -0.00000000000E+00 -0.00000000000E+00 -0.45593999997E+02  0.45594000000E+02  0.51100000000E-03 0. -1.
    9900012    2    1    2    0    0 -0.74481709530E+00  0.80590363518E+00  0.43421867649E+00  0.90007839403E+02  0.90000102084E+02 0.  0.
         12    1    1    2    0    0  0.74481709530E+00 -0.80590363518E+00 -0.43421867649E+00  0.11801605966E+01  0.00000000000E+00 0. -1.
         11    1    3    3    0    0  0.76637722251E+01  0.22279271609E+01  0.64882364340E+01  0.10285634469E+02  0.51100000000E-03 0. -1.
        -11    1    3    3    0    0  0.26772069115E+02  0.21289070051E+02  0.87528349532E+01  0.35306944194E+02  0.51100000000E-03 0.  1.
         12    1    3    3    0    0 -0.35180658436E+02 -0.22711093577E+02 -0.14806852711E+02  0.44415260740E+02  0.00000000000E+00 0. -1.
</event>
<event>
 7    1  0.2284751E-015  0.9000778E+02  0.7816164E-02  0.1186339E+00
        -11   -1    0    0    0    0  0.00000000000E+00  0.00000000000E+00  0.45593999997E+02  0.45594000000E+02  0.51100000000E-03 0. -1.
         11   -1    0    0    0    0 -0.00000000000E+00 -0.00000000000E+00 -0.45593999997E+02  0.45594000000E+02  0.51100000000E-03 0.  1.
    9900012    2    1    2    0    0 -0.21311334169E+00 -0.23419680687E+00 -0.11369443470E+01  0.90007784812E+02  0.90000046772E+02 0.  0.
         12    1    1    2    0    0  0.21311334169E+00  0.23419680687E+00  0.11369443470E+01  0.11802151876E+01  0.00000000000E+00 0. -1.
         11    1    3    3    0    0 -0.67671865677E+01  0.62665651110E+01  0.12189838178E+01  0.93032561043E+01  0.51100000000E-03 0. -1.
        -11    1    3    3    0    0  0.90177149228E+01  0.27284550346E+02 -0.26512689917E+02  0.39098447500E+02  0.51100000000E-03 0.  1.
         12    1    3    3    0    0 -0.24636416967E+01 -0.33785312264E+02  0.24156761752E+02  0.41606081208E+02  0.00000000000E+00 0. -1.
</event>
<event>
 7    1  0.2284751E-015  0.9000762E+02  0.7816164E-02  0.1186339E+00
        -11   -1    0    0    0    0  0.00000000000E+00  0.00000000000E+00  0.45593999997E+02  0.45594000000E+02  0.51100000000E-03 0. -1.
         11   -1    0    0    0    0 -0.00000000000E+00 -0.00000000000E+00 -0.45593999997E+02  0.45594000000E+02  0.51100000000E-03 0.  1.
    9900012    2    1    2    0    0  0.77363462411E+00 -0.45788699218E+00  0.76492821307E+00  0.90007624551E+02  0.89999884395E+02 0.  0.
         12    1    1    2    0    0 -0.77363462411E+00  0.45788699218E+00 -0.76492821307E+00  0.11803754489E+01  0.00000000000E+00 0. -1.
         11    1    3    3    0    0 -0.27950694872E+01 -0.48268377052E+01 -0.44612677732E+01  0.71423865813E+01  0.51100000000E-03 0. -1.
        -11    1    3    3    0    0 -0.56688781037E+01  0.28020020452E+02 -0.28687414818E+02  0.40499697459E+02  0.51100000000E-03 0.  1.
         12    1    3    3    0    0  0.92375822150E+01 -0.23651069739E+02  0.33913610804E+02  0.42365540511E+02  0.00000000000E+00 0. -1.
</event>
<event>
 7    1  0.2284751E-015  0.9000785E+02  0.7816164E-02  0.1186339E+00
        -11   -1    0    0    0    0  0.00000000000E+00  0.00000000000E+00  0.45593999997E+02  0.45594000000E+02  0.51100000000E-03 0.  1.
         11   -1    0    0    0    0 -0.00000000000E+00 -0.00000000000E+00 -0.45593999997E+02  0.45594000000E+02  0.51100000000E-03 0. -1.
    9900012    2    1    2    0    0  0.10085726098E+01 -0.44168548799E+00  0.42479465256E+00  0.90007849469E+02  0.90000112282E+02 0.  0.
         12    1    1    2    0    0 -0.10085726098E+01  0.44168548799E+00 -0.42479465256E+00  0.11801505313E+01  0.00000000000E+00 0. -1.
         11    1    3    3    0    0  0.53363079796E+01  0.90174683053E+01  0.13308272718E+02  0.16938153397E+02  0.51100000000E-03 0. -1.
        -11    1    3    3    0    0 -0.21005754849E+02  0.36190111401E+01  0.23022764181E+02  0.31374936641E+02  0.51100000000E-03 0.  1.
         12    1    3    3    0    0  0.16678019479E+02 -0.13078164933E+02 -0.35906242247E+02  0.41694759431E+02  0.00000000000E+00 0. -1.
</event>
<event>
 7    1  0.2284751E-015  0.9000861E+02  0.7816164E-02  0.1186337E+00
        -11   -1    0    0    0    0  0.00000000000E+00  0.00000000000E+00  0.45593999997E+02  0.45594000000E+02  0.51100000000E-03 0.  1.
         11   -1    0    0    0    0 -0.00000000000E+00 -0.00000000000E+00 -0.45593999997E+02  0.45594000000E+02  0.51100000000E-03 0. -1.
    9900012    2    1    2    0    0 -0.10329292816E+01  0.46774827060E+00 -0.32438556716E+00  0.90008611454E+02  0.90000884321E+02 0.  0.
         12    1    1    2    0    0  0.10329292816E+01 -0.46774827060E+00  0.32438556716E+00  0.11793885456E+01  0.00000000000E+00 0. -1.
         11    1    3    3    0    0  0.33085493650E+02 -0.20865662896E+02 -0.45392230545E+01  0.39378043684E+02  0.51100000000E-03 0. -1.
        -11    1    3    3    0    0 -0.42536310022E+01 -0.73852130695E+01  0.34399958165E+01  0.91906648434E+01  0.51100000000E-03 0.  1.
        -12    1    3    3    0    0 -0.29864791929E+02  0.28718624236E+02  0.77484167078E+00  0.41439902927E+02  0.00000000000E+00 0.  1.
</event>
<event>
 7    1  0.2284751E-015  0.9000782E+02  0.7816164E-02  0.1186339E+00
        -11   -1    0    0    0    0  0.00000000000E+00  0.00000000000E+00  0.45593999997E+02  0.45594000000E+02  0.51100000000E-03 0.  1.
         11   -1    0    0    0    0 -0.00000000000E+00 -0.00000000000E+00 -0.45593999997E+02  0.45594000000E+02  0.51100000000E-03 0. -1.
    9900012    2    1    2    0    0 -0.45142347870E+00  0.10225528195E+01  0.37873111369E+00  0.90007815827E+02  0.90000078196E+02 0.  0.
         12    1    1    2    0    0  0.45142347870E+00 -0.10225528195E+01 -0.37873111369E+00  0.11801841731E+01  0.00000000000E+00 0. -1.
         11    1    3    3    0    0  0.25838204442E+02  0.12753341002E+02  0.30782373537E+02  0.42164143965E+02  0.51100000000E-03 0. -1.
        -11    1    3    3    0    0  0.24796234330E+01 -0.73843442902E+01 -0.53744985517E+01  0.94637364666E+01  0.51100000000E-03 0.  1.
        -12    1    3    3    0    0 -0.28769251354E+02 -0.43464438919E+01 -0.25029143871E+02  0.38379935395E+02  0.00000000000E+00 0.  1.
</event>
<event>
 7    1  0.2284751E-015  0.9000779E+02  0.7816164E-02  0.1186339E+00
        -11   -1    0    0    0    0  0.00000000000E+00  0.00000000000E+00  0.45593999997E+02  0.45594000000E+02  0.51100000000E-03 0. -1.
         11   -1    0    0    0    0 -0.00000000000E+00 -0.00000000000E+00 -0.45593999997E+02  0.45594000000E+02  0.51100000000E-03 0.  1.
    9900012    2    1    2    0    0 -0.10402844830E+01 -0.48755704798E-01 -0.55527766184E+00  0.90007787220E+02  0.90000049211E+02 0.  0.
         12    1    1    2    0    0  0.10402844830E+01  0.48755704798E-01  0.55527766184E+00  0.11802127800E+01  0.00000000000E+00 0. -1.
         11    1    3    3    0    0  0.83358874126E+01 -0.30871528295E+01  0.41122238932E+02  0.42072034258E+02  0.51100000000E-03 0. -1.
        -11    1    3    3    0    0  0.16703313748E+01  0.64055352334E+01 -0.24743666090E+01  0.70670629617E+01  0.51100000000E-03 0.  1.
        -12    1    3    3    0    0 -0.11046503270E+02 -0.33671381087E+01 -0.39203149985E+02  0.40868690000E+02  0.00000000000E+00 0.  1.
</event>
<event>
 7    1  0.2284751E-015  0.9000781E+02  0.7816164E-02  0.1186339E+00
        -11   -1    0    0    0    0  0.00000000000E+00  0.00000000000E+00  0.45593999997E+02  0.45594000000E+02  0.51100000000E-03 0. -1.
         11   -1    0    0    0    0 -0.00000000000E+00 -0.00000000000E+00 -0.45593999997E+02  0.45594000000E+02  0.51100000000E-03 0.  1.
    9900012    2    1    2    0    0 -0.22143273914E+00 -0.20099088406E+00 -0.11416752332E+01  0.90007808434E+02  0.90000070706E+02 0.  0.
         12    1    1    2    0    0  0.22143273914E+00  0.20099088406E+00  0.11416752332E+01  0.11801915656E+01  0.00000000000E+00 0. -1.
         11    1    3    3    0    0 -0.28385877453E+01  0.58973248031E+01 -0.47124090594E+01  0.80649128715E+01  0.51100000000E-03 0. -1.
        -11    1    3    3    0    0 -0.19452841405E+02  0.32182950897E+02 -0.73400182401E-01  0.37605328811E+02  0.51100000000E-03 0.  1.
         12    1    3    3    0    0  0.22069996411E+02 -0.38281266584E+02  0.36441340086E+01  0.44337566752E+02  0.00000000000E+00 0. -1.
</event>
<event>
 7    1  0.2284751E-015  0.9000788E+02  0.7816164E-02  0.1186339E+00
        -11   -1    0    0    0    0  0.00000000000E+00  0.00000000000E+00  0.45593999997E+02  0.45594000000E+02  0.51100000000E-03 0.  1.
         11   -1    0    0    0    0 -0.00000000000E+00 -0.00000000000E+00 -0.45593999997E+02  0.45594000000E+02  0.51100000000E-03 0. -1.
    9900012    2    1    2    0    0  0.11384235808E+01 -0.29398482486E+00  0.10118663152E+00  0.90007883878E+02  0.90000147145E+02 0.  0.
         12    1    1    2    0    0 -0.11384235808E+01  0.29398482486E+00 -0.10118663152E+00  0.11801161218E+01  0.00000000000E+00 0. -1.
         11    1    3    3    0    0  0.15481021456E+02 -0.18578798776E+02 -0.32573678182E+02  0.40569425678E+02  0.51100000000E-03 0. -1.
        -11    1    3    3    0    0 -0.30819738190E+01  0.78265790189E+01 -0.42637753435E+01  0.94304656407E+01  0.51100000000E-03 0.  1.
        -12    1    3    3    0    0 -0.11260624056E+02  0.10458234932E+02  0.36938640157E+02  0.40007992560E+02  0.00000000000E+00 0.  1.
</event>
<event>
 7    1  0.2284751E-015  0.9000774E+02  0.7816164E-02  0.1186339E+00
        -11   -1    0    0    0    0  0.00000000000E+00  0.00000000000E+00  0.45593999997E+02  0.45594000000E+02  0.51100000000E-03 0.  1.
         11   -1    0    0    0    0 -0.00000000000E+00 -0.00000000000E+00 -0.45593999997E+02  0.45594000000E+02  0.51100000000E-03 0. -1.
    9900012    2    1    2    0    0  0.75015019402E+00  0.77729314211E+00  0.47550321268E+00  0.90007740178E+02  0.90000001548E+02 0.  0.
         12    1    1    2    0    0 -0.75015019402E+00 -0.77729314211E+00 -0.47550321268E+00  0.11802598221E+01  0.00000000000E+00 0. -1.
         11    1    3    3    0    0  0.40263613969E+01 -0.36818337617E+00  0.81584528168E+01  0.91053554419E+01  0.51100000000E-03 0. -1.
        -11    1    3    3    0    0  0.31165311934E+02 -0.14218321655E+02  0.14445488963E+02  0.37176733184E+02  0.51100000000E-03 0.  1.
         12    1    3    3    0    0 -0.34441523136E+02  0.15363798173E+02 -0.22128438567E+02  0.43725651552E+02  0.00000000000E+00 0. -1.
</event>
<event>
 7    1  0.2284751E-015  0.9000762E+02  0.7816164E-02  0.1186339E+00
        -11   -1    0    0    0    0  0.00000000000E+00  0.00000000000E+00  0.45593999997E+02  0.45594000000E+02  0.51100000000E-03 0. -1.
         11   -1    0    0    0    0 -0.00000000000E+00 -0.00000000000E+00 -0.45593999997E+02  0.45594000000E+02  0.51100000000E-03 0.  1.
    9900012    2    1    2    0    0  0.61266862376E+00  0.94902382749E+00  0.34246398812E+00  0.90007622666E+02  0.89999882485E+02 0.  0.
         12    1    1    2    0    0 -0.61266862376E+00 -0.94902382749E+00 -0.34246398812E+00  0.11803773341E+01  0.00000000000E+00 0. -1.
         11    1    3    3    0    0  0.96999748816E+01  0.91610553903E-02  0.28298975287E+01  0.10104351385E+02  0.51100000000E-03 0. -1.
        -11    1    3    3    0    0  0.25202911519E+02 -0.24661413110E+02  0.72906781690E+01  0.36007305287E+02  0.51100000000E-03 0.  1.
         12    1    3    3    0    0 -0.34290217776E+02  0.25601275882E+02 -0.97781117095E+01  0.43895965994E+02  0.00000000000E+00 0. -1.
</event>
<event>
 7    1  0.2284751E-015  0.9000776E+02  0.7816164E-02  0.1186339E+00
        -11   -1    0    0    0    0  0.00000000000E+00  0.00000000000E+00  0.45593999997E+02  0.45594000000E+02  0.51100000000E-03 0.  1.
         11   -1    0    0    0    0 -0.00000000000E+00 -0.00000000000E+00 -0.45593999997E+02  0.45594000000E+02  0.51100000000E-03 0. -1.
    9900012    2    1    2    0    0 -0.73643411599E+00  0.92229659054E+00  0.30159139180E-02  0.90007756252E+02  0.90000017835E+02 0.  0.
         12    1    1    2    0    0  0.73643411599E+00 -0.92229659054E+00 -0.30159139180E-02  0.11802437476E+01  0.00000000000E+00 0. -1.
         11    1    3    3    0    0 -0.10073246054E+02 -0.40161537553E+01  0.11852703394E+01  0.10908924928E+02  0.51100000000E-03 0. -1.
        -11    1    3    3    0    0 -0.21994259806E+02 -0.17667923561E+02 -0.21477971560E+02  0.35457104366E+02  0.51100000000E-03 0.  1.
         12    1    3    3    0    0  0.31331071744E+02  0.22606373907E+02  0.20295717135E+02  0.43641726958E+02  0.00000000000E+00 0. -1.
</event>
<event>
 7    1  0.2284751E-015  0.9000771E+02  0.7816164E-02  0.1186339E+00
        -11   -1    0    0    0    0  0.00000000000E+00  0.00000000000E+00  0.45593999997E+02  0.45594000000E+02  0.51100000000E-03 0. -1.
         11   -1    0    0    0    0 -0.00000000000E+00 -0.00000000000E+00 -0.45593999997E+02  0.45594000000E+02  0.51100000000E-03 0.  1.
    9900012    2    1    2    0    0  0.51456417785E+00 -0.10567220154E+01 -0.10791958746E+00  0.90007710058E+02  0.89999971030E+02 0.  0.
         12    1    1    2    0    0 -0.51456417785E+00  0.10567220154E+01  0.10791958746E+00  0.11802899425E+01  0.00000000000E+00 0. -1.
         11    1    3    3    0    0 -0.58551977034E+01 -0.92109887481E+01 -0.31567898652E+01  0.11361820997E+02  0.51100000000E-03 0. -1.
        -11    1    3    3    0    0 -0.23960207209E+02  0.26865346139E+02 -0.14639071787E+02  0.38860529792E+02  0.51100000000E-03 0.  1.
         12    1    3    3    0    0  0.30329969090E+02 -0.18711079407E+02  0.17687942065E+02  0.39785359268E+02  0.00000000000E+00 0. -1.
</event>
<event>
 7    1  0.2284751E-015  0.9000665E+02  0.7816164E-02  0.1186341E+00
        -11   -1    0    0    0    0  0.00000000000E+00  0.00000000000E+00  0.45593999997E+02  0.45594000000E+02  0.51100000000E-03 0.  1.
         11   -1    0    0    0    0 -0.00000000000E+00 -0.00000000000E+00 -0.45593999997E+02  0.45594000000E+02  0.51100000000E-03 0. -1.
    9900012    2    1    2    0    0 -0.11684078366E+01 -0.14058512341E+00  0.10322609200E+00  0.90006646253E+02  0.89998893177E+02 0.  0.
         12    1    1    2    0    0  0.11684078366E+01  0.14058512341E+00 -0.10322609200E+00  0.11813537471E+01  0.00000000000E+00 0. -1.
         11    1    3    3    0    0 -0.11684315457E+02  0.25662452684E+01 -0.56660767651E+01  0.13236814898E+02  0.51100000000E-03 0. -1.
        -11    1    3    3    0    0 -0.26802037350E+02  0.16988912770E+02  0.12372881936E+02  0.34059661931E+02  0.51100000000E-03 0.  1.
         12    1    3    3    0    0  0.37317944971E+02 -0.19695743161E+02 -0.66035790789E+01  0.42710169423E+02  0.00000000000E+00 0. -1.
</event>
<event>
 7    1  0.2284751E-015  0.9000776E+02  0.7816164E-02  0.1186339E+00
        -11   -1    0    0    0    0  0.00000000000E+00  0.00000000000E+00  0.45593999997E+02  0.45594000000E+02  0.51100000000E-03 0.  1.
         11   -1    0    0    0    0 -0.00000000000E+00 -0.00000000000E+00 -0.45593999997E+02  0.45594000000E+02  0.51100000000E-03 0. -1.
    9900012    2    1    2    0    0 -0.11305189892E+01  0.32370931466E+00 -0.10048157642E+00  0.90007763815E+02  0.90000025497E+02 0.  0.
         12    1    1    2    0    0  0.11305189892E+01 -0.32370931466E+00  0.10048157642E+00  0.11802361851E+01  0.00000000000E+00 0. -1.
         11    1    3    3    0    0  0.92149482343E+01  0.38028026215E+01 -0.12399784450E+02  0.15910098473E+02  0.51100000000E-03 0. -1.
        -11    1    3    3    0    0  0.25161628427E+02  0.18522698379E+02  0.66788983121E+01  0.31950048252E+02  0.51100000000E-03 0.  1.
         12    1    3    3    0    0 -0.35507095651E+02 -0.22001791686E+02  0.56204045619E+01  0.42147617090E+02  0.00000000000E+00 0. -1.
</event>
<event>
 7    1  0.2284751E-015  0.9000679E+02  0.7816164E-02  0.1186341E+00
        -11   -1    0    0    0    0  0.00000000000E+00  0.00000000000E+00  0.45593999997E+02  0.45594000000E+02  0.51100000000E-03 0. -1.
         11   -1    0    0    0    0 -0.00000000000E+00 -0.00000000000E+00 -0.45593999997E+02  0.45594000000E+02  0.51100000000E-03 0.  1.
    9900012    2    1    2    0    0  0.10337910283E+01  0.37195616273E+00 -0.43378918438E+00  0.90006793696E+02  0.89999042567E+02 0.  0.
         12    1    1    2    0    0 -0.10337910283E+01 -0.37195616273E+00  0.43378918438E+00  0.11812063044E+01  0.00000000000E+00 0. -1.
         11    1    3    3    0    0 -0.11415773093E+02 -0.19253337105E+02  0.18123708380E+02  0.28800688719E+02  0.51100000000E-03 0. -1.
        -11    1    3    3    0    0  0.68107989931E+01 -0.10429835066E+02  0.12481553976E+02  0.17633990823E+02  0.51100000000E-03 0.  1.
        -12    1    3    3    0    0  0.56387651286E+01  0.30055128334E+02 -0.31039051540E+02  0.43572114154E+02  0.00000000000E+00 0.  1.
</event>
<event>
 7    1  0.2284751E-015  0.9000792E+02  0.7816164E-02  0.1186339E+00
        -11   -1    0    0    0    0  0.00000000000E+00  0.00000000000E+00  0.45593999997E+02  0.45594000000E+02  0.51100000000E-03 0.  1.
         11   -1    0    0    0    0 -0.00000000000E+00 -0.00000000000E+00 -0.45593999997E+02  0.45594000000E+02  0.51100000000E-03 0. -1.
    9900012    2    1    2    0    0  0.44584256428E+00 -0.47501714183E+00  0.98395649668E+00  0.90007920653E+02  0.90000184406E+02 0.  0.
         12    1    1    2    0    0 -0.44584256428E+00  0.47501714183E+00 -0.98395649668E+00  0.11800793467E+01  0.00000000000E+00 0. -1.
         11    1    3    3    0    0  0.25861555776E+02 -0.28178512984E+02  0.19272920212E+02  0.42828659971E+02  0.51100000000E-03 0. -1.
        -11    1    3    3    0    0 -0.10126341743E+02 -0.16548460243E+01 -0.28140658839E+01  0.10639561999E+02  0.51100000000E-03 0.  1.
        -12    1    3    3    0    0 -0.15289371468E+02  0.29358341866E+02 -0.15474897831E+02  0.36539698684E+02  0.00000000000E+00 0.  1.
</event>
<event>
 7    1  0.2284751E-015  0.9000782E+02  0.7816164E-02  0.1186339E+00
        -11   -1    0    0    0    0  0.00000000000E+00  0.00000000000E+00  0.45593999997E+02  0.45594000000E+02  0.51100000000E-03 0.  1.
         11   -1    0    0    0    0 -0.00000000000E+00 -0.00000000000E+00 -0.45593999997E+02  0.45594000000E+02  0.51100000000E-03 0. -1.
    9900012    2    1    2    0    0 -0.56609170113E+00 -0.90390450810E+00  0.50529263485E+00  0.90007820429E+02  0.90000082858E+02 0.  0.
         12    1    1    2    0    0  0.56609170113E+00  0.90390450810E+00 -0.50529263485E+00  0.11801795714E+01  0.00000000000E+00 0. -1.
         11    1    3    3    0    0 -0.34888605938E+02  0.76524651449E+01 -0.88215452670E+01  0.36791231405E+02  0.51100000000E-03 0. -1.
        -11    1    3    3    0    0 -0.45207423764E+01  0.86941884625E+01  0.52582588287E+00  0.98133846239E+01  0.51100000000E-03 0.  1.
        -12    1    3    3    0    0  0.38843256614E+02 -0.17250558115E+02  0.88010120190E+01  0.43403204400E+02  0.00000000000E+00 0.  1.
</event>
<event>
 7    1  0.2284751E-015  0.9000773E+02  0.7816164E-02  0.1186339E+00
        -11   -1    0    0    0    0  0.00000000000E+00  0.00000000000E+00  0.45593999997E+02  0.45594000000E+02  0.51100000000E-03 0.  1.
         11   -1    0    0    0    0 -0.00000000000E+00 -0.00000000000E+00 -0.45593999997E+02  0.45594000000E+02  0.51100000000E-03 0. -1.
    9900012    2    1    2    0    0  0.34629637536E+00 -0.11275739772E+01  0.41089644742E-01  0.90007731974E+02  0.89999993236E+02 0.  0.
         12    1    1    2    0    0 -0.34629637536E+00  0.11275739772E+01 -0.41089644742E-01  0.11802680257E+01  0.00000000000E+00 0. -1.
         11    1    3    3    0    0  0.61752377453E+01 -0.37404090334E+01  0.14233519325E+02  0.15959865087E+02  0.51100000000E-03 0. -1.
        -11    1    3    3    0    0  0.80957721375E+00 -0.31244851357E+02  0.89396366450E+01  0.32508664310E+02  0.51100000000E-03 0.  1.
         12    1    3    3    0    0 -0.66385185837E+01  0.33857686414E+02 -0.23132066326E+02  0.41539202577E+02  0.00000000000E+00 0. -1.
</event>
<event>
 7    1  0.2284751E-015  0.9000780E+02  0.7816164E-02  0.1186339E+00
        -11   -1    0    0    0    0  0.00000000000E+00  0.00000000000E+00  0.45593999997E+02  0.45594000000E+02  0.51100000000E-03 0.  1.
         11   -1    0    0    0    0 -0.00000000000E+00 -0.00000000000E+00 -0.45593999997E+02  0.45594000000E+02  0.51100000000E-03 0. -1.
    9900012    2    1    2    0    0  0.21366268037E+00  0.93845812200E+00  0.68301826556E+00  0.90007801144E+02  0.90000063319E+02 0.  0.
         12    1    1    2    0    0 -0.21366268037E+00 -0.93845812200E+00 -0.68301826556E+00  0.11801988556E+01  0.00000000000E+00 0. -1.
         11    1    3    3    0    0  0.94244346218E+01  0.43043409896E+00  0.47891254489E+01  0.10580215701E+02  0.51100000000E-03 0. -1.
        -11    1    3    3    0    0  0.19051440197E+02  0.95448878187E+01  0.28341637780E+02  0.35458577092E+02  0.51100000000E-03 0.  1.
         12    1    3    3    0    0 -0.28262212138E+02 -0.90368637956E+01 -0.32447744963E+02  0.43969008352E+02  0.00000000000E+00 0. -1.
</event>
<event>
 7    1  0.2284751E-015  0.9000781E+02  0.7816164E-02  0.1186339E+00
        -11   -1    0    0    0    0  0.00000000000E+00  0.00000000000E+00  0.45593999997E+02  0.45594000000E+02  0.51100000000E-03 0.  1.
         11   -1    0    0    0    0 -0.00000000000E+00 -0.00000000000E+00 -0.45593999997E+02  0.45594000000E+02  0.51100000000E-03 0. -1.
    9900012    2    1    2    0    0  0.84565358716E+00  0.82322784189E+00  0.41324782247E-02  0.90007808852E+02  0.90000071129E+02 0.  0.
         12    1    1    2    0    0 -0.84565358716E+00 -0.82322784189E+00 -0.41324782247E-02  0.11801911483E+01  0.00000000000E+00 0. -1.
         11    1    3    3    0    0 -0.33207426161E+02 -0.98345851138E+01 -0.11784186167E+02  0.36583046080E+02  0.51100000000E-03 0. -1.
        -11    1    3    3    0    0 -0.42363211299E+00  0.75485476994E+00 -0.10930486233E+02  0.10964706993E+02  0.51100000000E-03 0.  1.
        -12    1    3    3    0    0  0.34476711861E+02  0.99029581858E+01  0.22718804878E+02  0.42460055778E+02  0.00000000000E+00 0.  1.
</event>
<event>
 7    1  0.2284751E-015  0.9000764E+02  0.7816164E-02  0.1186339E+00
        -11   -1    0    0    0    0  0.00000000000E+00  0.00000000000E+00  0.45593999997E+02  0.45594000000E+02  0.51100000000E-03 0. -1.
         11   -1    0    0    0    0 -0.00000000000E+00 -0.00000000000E+00 -0.45593999997E+02  0.45594000000E+02  0.51100000000E-03 0.  1.
    9900012    2    1    2    0    0 -0.34135746699E+00 -0.55671803408E+00 -0.98325952791E+00  0.90007635993E+02  0.89999895988E+02 0.  0.
         12    1    1    2    0    0  0.34135746699E+00  0.55671803408E+00  0.98325952791E+00  0.11803640070E+01  0.00000000000E+00 0. -1.
         11    1    3    3    0    0  0.13868533626E+01  0.21155135313E+02  0.30237250875E+02  0.36929046198E+02  0.51100000000E-03 0. -1.
        -11    1    3    3    0    0  0.64690027200E+01 -0.61068110356E+01  0.67823858940E+01  0.11186683865E+02  0.51100000000E-03 0.  1.
        -12    1    3    3    0    0 -0.81972135496E+01 -0.15605042311E+02 -0.38002896297E+02  0.41891905930E+02  0.00000000000E+00 0.  1.
</event>
<event>
 7    1  0.2284751E-015  0.9000762E+02  0.7816164E-02  0.1186339E+00
        -11   -1    0    0    0    0  0.00000000000E+00  0.00000000000E+00  0.45593999997E+02  0.45594000000E+02  0.51100000000E-03 0.  1.
         11   -1    0    0    0    0 -0.00000000000E+00 -0.00000000000E+00 -0.45593999997E+02  0.45594000000E+02  0.51100000000E-03 0. -1.
    9900012    2    1    2    0    0 -0.96979298342E+00  0.55850483196E+00  0.37531688200E+00  0.90007623433E+02  0.89999883262E+02 0.  0.
         12    1    1    2    0    0  0.96979298342E+00 -0.55850483196E+00 -0.37531688200E+00  0.11803765670E+01  0.00000000000E+00 0. -1.
         11    1    3    3    0    0  0.25285213896E+02 -0.15279729792E+02 -0.14362578472E+02  0.32849594288E+02  0.51100000000E-03 0. -1.
        -11    1    3    3    0    0  0.44642286574E+01 -0.42322983801E+01 -0.10815511599E+02  0.12442547106E+02  0.51100000000E-03 0.  1.
        -12    1    3    3    0    0 -0.30719235537E+02  0.20070533004E+02  0.25553406953E+02  0.44715482038E+02  0.00000000000E+00 0.  1.
</event>
<event>
 7    1  0.2284751E-015  0.9000782E+02  0.7816164E-02  0.1186339E+00
        -11   -1    0    0    0    0  0.00000000000E+00  0.00000000000E+00  0.45593999997E+02  0.45594000000E+02  0.51100000000E-03 0.  1.
         11   -1    0    0    0    0 -0.00000000000E+00 -0.00000000000E+00 -0.45593999997E+02  0.45594000000E+02  0.51100000000E-03 0. -1.
    9900012    2    1    2    0    0  0.10436896111E+01  0.38603729670E+00 -0.39307135058E+00  0.90007822943E+02  0.90000085406E+02 0.  0.
         12    1    1    2    0    0 -0.10436896111E+01 -0.38603729670E+00  0.39307135058E+00  0.11801770568E+01  0.00000000000E+00 0. -1.
         11    1    3    3    0    0  0.34035950123E+01 -0.19807616457E+02 -0.18592208755E+02  0.27378757375E+02  0.51100000000E-03 0. -1.
        -11    1    3    3    0    0 -0.19088881824E+00 -0.19827669803E+02  0.67457568820E+01  0.20944645247E+02  0.51100000000E-03 0.  1.
         12    1    3    3    0    0 -0.21690165829E+01  0.40021323557E+02  0.11453380522E+02  0.41684420322E+02  0.00000000000E+00 0. -1.
</event>
<event>
 7    1  0.2284751E-015  0.9000779E+02  0.7816164E-02  0.1186339E+00
        -11   -1    0    0    0    0  0.00000000000E+00  0.00000000000E+00  0.45593999997E+02  0.45594000000E+02  0.51100000000E-03 0. -1.
         11   -1    0    0    0    0 -0.00000000000E+00 -0.00000000000E+00 -0.45593999997E+02  0.45594000000E+02  0.51100000000E-03 0.  1.
    9900012    2    1    2    0    0 -0.40913654876E-03 -0.94971597062E+00  0.70067267723E+00  0.90007786971E+02  0.90000048959E+02 0.  0.
         12    1    1    2    0    0  0.40913654875E-03  0.94971597062E+00 -0.70067267723E+00  0.11802130286E+01  0.00000000000E+00 0. -1.
         11    1    3    3    0    0  0.64222848497E+01 -0.39948712002E+01 -0.42592819364E+01  0.86802201281E+01  0.51100000000E-03 0. -1.
        -11    1    3    3    0    0 -0.21149346051E+02  0.40369508978E+01 -0.33674552672E+02  0.39969579793E+02  0.51100000000E-03 0.  1.
         12    1    3    3    0    0  0.14726652064E+02 -0.99179566817E+00  0.38634507285E+02  0.41357987050E+02  0.00000000000E+00 0. -1.
</event>
<event>
 7    1  0.2284751E-015  0.9000775E+02  0.7816164E-02  0.1186339E+00
        -11   -1    0    0    0    0  0.00000000000E+00  0.00000000000E+00  0.45593999997E+02  0.45594000000E+02  0.51100000000E-03 0.  1.
         11   -1    0    0    0    0 -0.00000000000E+00 -0.00000000000E+00 -0.45593999997E+02  0.45594000000E+02  0.51100000000E-03 0. -1.
    9900012    2    1    2    0    0  0.36711628810E+00 -0.10766560585E+01 -0.31468448600E+00  0.90007750466E+02  0.90000011972E+02 0.  0.
         12    1    1    2    0    0 -0.36711628810E+00  0.10766560585E+01  0.31468448600E+00  0.11802495343E+01  0.00000000000E+00 0. -1.
         11    1    3    3    0    0 -0.37517389932E+01  0.63065738687E+01  0.65961977917E+01  0.98670281748E+01  0.51100000000E-03 0. -1.
        -11    1    3    3    0    0  0.57015933260E+01  0.15353582446E+02  0.31484796492E+02  0.35489900969E+02  0.51100000000E-03 0.  1.
         12    1    3    3    0    0 -0.15827380447E+01 -0.22736812373E+02 -0.38395678769E+02  0.44650821322E+02  0.00000000000E+00 0. -1.
</event>
<event>
 7    1  0.2284751E-015  0.9000769E+02  0.7816164E-02  0.1186339E+00
        -11   -1    0    0    0    0  0.00000000000E+00  0.00000000000E+00  0.45593999997E+02  0.45594000000E+02  0.51100000000E-03 0. -1.
         11   -1    0    0    0    0 -0.00000000000E+00 -0.00000000000E+00 -0.45593999997E+02  0.45594000000E+02  0.51100000000E-03 0.  1.
    9900012    2    1    2    0    0 -0.89418533230E-01 -0.14571937659E+00 -0.11678578720E+01  0.90007694184E+02  0.89999954947E+02 0.  0.
         12    1    1    2    0    0  0.89418533230E-01  0.14571937659E+00  0.11678578720E+01  0.11803058163E+01  0.00000000000E+00 0. -1.
         11    1    3    3    0    0  0.59233523880E+01 -0.34475548824E+01  0.55917389135E+01  0.88452971979E+01  0.51100000000E-03 0. -1.
        -11    1    3    3    0    0  0.28826686447E+02  0.25935057537E+02 -0.80220595414E+01  0.39597455732E+02  0.51100000000E-03 0.  1.
         12    1    3    3    0    0 -0.34839457368E+02 -0.22633222031E+02  0.12624627558E+01  0.41564941253E+02  0.00000000000E+00 0. -1.
</event>
<event>
 7    1  0.2284751E-015  0.9000783E+02  0.7816164E-02  0.1186339E+00
        -11   -1    0    0    0    0  0.00000000000E+00  0.00000000000E+00  0.45593999997E+02  0.45594000000E+02  0.51100000000E-03 0. -1.
         11   -1    0    0    0    0 -0.00000000000E+00 -0.00000000000E+00 -0.45593999997E+02  0.45594000000E+02  0.51100000000E-03 0.  1.
    9900012    2    1    2    0    0  0.20739826562E-01 -0.96698206474E+00 -0.67624980461E+00  0.90007831261E+02  0.90000093834E+02 0.  0.
         12    1    1    2    0    0 -0.20739826562E-01  0.96698206474E+00  0.67624980461E+00  0.11801687389E+01  0.00000000000E+00 0. -1.
         11    1    3    3    0    0 -0.16977058371E+02 -0.35745845526E+01  0.33957274611E+02  0.38132593210E+02  0.51100000000E-03 0. -1.
        -11    1    3    3    0    0 -0.99664051554E+01 -0.21476133880E+01 -0.44523160222E+01  0.11124953627E+02  0.51100000000E-03 0.  1.
        -12    1    3    3    0    0  0.26964203353E+02  0.47552158758E+01 -0.30181208394E+02  0.40750284424E+02  0.00000000000E+00 0.  1.
</event>
<event>
 7    1  0.2284751E-015  0.9000770E+02  0.7816164E-02  0.1186339E+00
        -11   -1    0    0    0    0  0.00000000000E+00  0.00000000000E+00  0.45593999997E+02  0.45594000000E+02  0.51100000000E-03 0.  1.
         11   -1    0    0    0    0 -0.00000000000E+00 -0.00000000000E+00 -0.45593999997E+02  0.45594000000E+02  0.51100000000E-03 0. -1.
    9900012    2    1    2    0    0 -0.90132258783E+00  0.16744669717E+00 -0.74342651917E+00  0.90007701820E+02  0.89999962684E+02 0.  0.
         12    1    1    2    0    0  0.90132258783E+00 -0.16744669717E+00  0.74342651917E+00  0.11802981798E+01  0.00000000000E+00 0. -1.
         11    1    3    3    0    0  0.66056713374E+01  0.45912593971E+01  0.35672383020E+01  0.87999855701E+01  0.51100000000E-03 0. -1.
        -11    1    3    3    0    0 -0.75221778982E+01  0.88062516581E+01  0.36506698509E+02  0.38299768470E+02  0.51100000000E-03 0.  1.
         12    1    3    3    0    0  0.15183972935E-01 -0.13230064358E+02 -0.40817363330E+02  0.42907947780E+02  0.00000000000E+00 0. -1.
</event>
<event>
 7    1  0.2284751E-015  0.9000771E+02  0.7816164E-02  0.1186339E+00
        -11   -1    0    0    0    0  0.00000000000E+00  0.00000000000E+00  0.45593999997E+02  0.45594000000E+02  0.51100000000E-03 0. -1.
         11   -1    0    0    0    0 -0.00000000000E+00 -0.00000000000E+00 -0.45593999997E+02  0.45594000000E+02  0.51100000000E-03 0.  1.
    9900012    2    1    2    0    0  0.77910998168E+00 -0.84118685043E+00 -0.28014974728E+00  0.90007707002E+02  0.89999967934E+02 0.  0.
         12    1    1    2    0    0 -0.77910998168E+00  0.84118685043E+00  0.28014974728E+00  0.11802929983E+01  0.00000000000E+00 0. -1.
         11    1    3    3    0    0  0.63862481513E+01 -0.33445482187E+01  0.73225820305E+01  0.10275717790E+02  0.51100000000E-03 0. -1.
        -11    1    3    3    0    0 -0.14690410002E+02  0.38829592326E+02  0.38592375337E-01  0.41515622070E+02  0.51100000000E-03 0.  1.
         12    1    3    3    0    0  0.90832718327E+01 -0.36326230957E+02 -0.76413241531E+01  0.38216367142E+02  0.00000000000E+00 0. -1.
</event>
<event>
 7    1  0.2284751E-015  0.9000774E+02  0.7816164E-02  0.1186339E+00
        -11   -1    0    0    0    0  0.00000000000E+00  0.00000000000E+00  0.45593999997E+02  0.45594000000E+02  0.51100000000E-03 0.  1.
         11   -1    0    0    0    0 -0.00000000000E+00 -0.00000000000E+00 -0.45593999997E+02  0.45594000000E+02  0.51100000000E-03 0. -1.
    9900012    2    1    2    0    0  0.10179854775E+01  0.25760475331E-01  0.59669901800E+00  0.90007742506E+02  0.90000003907E+02 0.  0.
         12    1    1    2    0    0 -0.10179854775E+01 -0.25760475331E-01 -0.59669901800E+00  0.11802574942E+01  0.00000000000E+00 0. -1.
         11    1    3    3    0    0 -0.77708717694E+01 -0.37612606842E+02 -0.36695555022E+01  0.38581864643E+02  0.51100000000E-03 0. -1.
        -11    1    3    3    0    0  0.15500900694E+00 -0.39753644220E+01 -0.64659137112E+01  0.75918107499E+01  0.51100000000E-03 0.  1.
        -12    1    3    3    0    0  0.86338482399E+01  0.41613731739E+02  0.10732168231E+02  0.43834067113E+02  0.00000000000E+00 0.  1.
</event>
<event>
 7    1  0.2284751E-015  0.9000780E+02  0.7816164E-02  0.1186339E+00
        -11   -1    0    0    0    0  0.00000000000E+00  0.00000000000E+00  0.45593999997E+02  0.45594000000E+02  0.51100000000E-03 0.  1.
         11   -1    0    0    0    0 -0.00000000000E+00 -0.00000000000E+00 -0.45593999997E+02  0.45594000000E+02  0.51100000000E-03 0. -1.
    9900012    2    1    2    0    0  0.96019361552E+00 -0.47528929145E+00  0.49498644523E+00  0.90007795242E+02  0.90000057339E+02 0.  0.
         12    1    1    2    0    0 -0.96019361552E+00  0.47528929145E+00 -0.49498644523E+00  0.11802047580E+01  0.00000000000E+00 0. -1.
         11    1    3    3    0    0  0.79460347506E+01 -0.51865385727E+01  0.18868265362E+01  0.96746971665E+01  0.51100000000E-03 0. -1.
        -11    1    3    3    0    0  0.30597611451E+02  0.83799494313E+01  0.19439203769E+02  0.37206451355E+02  0.51100000000E-03 0.  1.
         12    1    3    3    0    0 -0.37583452586E+02 -0.36687001501E+01 -0.20831043860E+02  0.43126646721E+02  0.00000000000E+00 0. -1.
</event>
<event>
 7    1  0.2895779E-015  0.9000773E+02  0.7816164E-02  0.1186339E+00
        -11   -1    0    0    0    0  0.00000000000E+00  0.00000000000E+00  0.45593999997E+02  0.45594000000E+02  0.51100000000E-03 0.  1.
         11   -1    0    0    0    0 -0.00000000000E+00 -0.00000000000E+00 -0.45593999997E+02  0.45594000000E+02  0.51100000000E-03 0. -1.
    9900012    2    1    2    0    0  0.11295989068E+01 -0.17134705793E+00 -0.29613283714E+00  0.90007725387E+02  0.89999986562E+02 0.  0.
         12    1    1    2    0    0 -0.11295989068E+01  0.17134705793E+00  0.29613283714E+00  0.11802746129E+01  0.00000000000E+00 0. -1.
         11    1    3    3    0    0  0.23055398769E+02 -0.44350521111E+01  0.29096638852E+02  0.37387638230E+02  0.51100000000E-03 0. -1.
        -11    1    3    3    0    0 -0.39151003321E+01 -0.49192724266E+01  0.79623046045E+01  0.10145222851E+02  0.51100000000E-03 0.  1.
        -12    1    3    3    0    0 -0.18010699530E+02  0.91829774798E+01 -0.37355076294E+02  0.42474864307E+02  0.00000000000E+00 0.  1.
</event>
<event>
 7    1  0.2284751E-015  0.9000781E+02  0.7816164E-02  0.1186339E+00
        -11   -1    0    0    0    0  0.00000000000E+00  0.00000000000E+00  0.45593999997E+02  0.45594000000E+02  0.51100000000E-03 0.  1.
         11   -1    0    0    0    0 -0.00000000000E+00 -0.00000000000E+00 -0.45593999997E+02  0.45594000000E+02  0.51100000000E-03 0. -1.
    9900012    2    1    2    0    0 -0.31921608398E+00  0.99245973222E+00 -0.55314143851E+00  0.90007813286E+02  0.90000075622E+02 0.  0.
         12    1    1    2    0    0  0.31921608398E+00 -0.99245973222E+00  0.55314143851E+00  0.11801867138E+01  0.00000000000E+00 0. -1.
         11    1    3    3    0    0 -0.87462570478E+01  0.10474624050E+01  0.16618357526E+01  0.89641445864E+01  0.51100000000E-03 0. -1.
        -11    1    3    3    0    0 -0.80655896393E+01  0.32373780912E+02 -0.21673507112E+02  0.39785127091E+02  0.51100000000E-03 0.  1.
         12    1    3    3    0    0  0.16492630603E+02 -0.32428783585E+02  0.19458529921E+02  0.41258541609E+02  0.00000000000E+00 0. -1.
</event>
<event>
 7    1  0.2284751E-015  0.9000775E+02  0.7816164E-02  0.1186339E+00
        -11   -1    0    0    0    0  0.00000000000E+00  0.00000000000E+00  0.45593999997E+02  0.45594000000E+02  0.51100000000E-03 0. -1.
         11   -1    0    0    0    0 -0.00000000000E+00 -0.00000000000E+00 -0.45593999997E+02  0.45594000000E+02  0.51100000000E-03 0.  1.
    9900012    2    1    2    0    0 -0.11856597635E-03  0.11780215968E+01  0.72481580419E-01  0.90007750672E+02  0.90000012181E+02 0.  0.
         12    1    1    2    0    0  0.11856597634E-03 -0.11780215968E+01 -0.72481580419E-01  0.11802493279E+01  0.00000000000E+00 0. -1.
         11    1    3    3    0    0  0.55517136290E+01 -0.35069874547E+02 -0.19915745407E+02  0.40710619503E+02  0.51100000000E-03 0. -1.
        -11    1    3    3    0    0 -0.51033589753E+01 -0.23048087083E+01 -0.52534622522E+00  0.56242692796E+01  0.51100000000E-03 0.  1.
        -12    1    3    3    0    0 -0.44847321969E+00  0.38552704852E+02  0.20513573212E+02  0.43672861889E+02  0.00000000000E+00 0.  1.
</event>
<event>
 7    1  0.2284751E-015  0.9000772E+02  0.7816164E-02  0.1186339E+00
        -11   -1    0    0    0    0  0.00000000000E+00  0.00000000000E+00  0.45593999997E+02  0.45594000000E+02  0.51100000000E-03 0. -1.
         11   -1    0    0    0    0 -0.00000000000E+00 -0.00000000000E+00 -0.45593999997E+02  0.45594000000E+02  0.51100000000E-03 0.  1.
    9900012    2    1    2    0    0  0.99150226320E+00 -0.45254664008E+00 -0.45296467867E+00  0.90007723677E+02  0.89999984829E+02 0.  0.
         12    1    1    2    0    0 -0.99150226320E+00  0.45254664008E+00  0.45296467867E+00  0.11802763234E+01  0.00000000000E+00 0. -1.
         11    1    3    3    0    0 -0.17032147339E+02 -0.31357650444E+02 -0.11329560574E+02  0.37440021733E+02  0.51100000000E-03 0. -1.
        -11    1    3    3    0    0  0.78751579155E+01 -0.71660242279E+01 -0.25385453574E+01  0.10945968583E+02  0.51100000000E-03 0.  1.
        -12    1    3    3    0    0  0.10148491687E+02  0.38071128031E+02  0.13415141253E+02  0.41621733360E+02  0.00000000000E+00 0.  1.
</event>
<event>
 7    1  0.2284751E-015  0.9000766E+02  0.7816164E-02  0.1186339E+00
        -11   -1    0    0    0    0  0.00000000000E+00  0.00000000000E+00  0.45593999997E+02  0.45594000000E+02  0.51100000000E-03 0. -1.
         11   -1    0    0    0    0 -0.00000000000E+00 -0.00000000000E+00 -0.45593999997E+02  0.45594000000E+02  0.51100000000E-03 0.  1.
    9900012    2    1    2    0    0 -0.86215019264E+00  0.60359777468E-01 -0.80389721562E+00  0.90007662340E+02  0.89999922683E+02 0.  0.
         12    1    1    2    0    0  0.86215019264E+00 -0.60359777468E-01  0.80389721562E+00  0.11803376596E+01  0.00000000000E+00 0. -1.
         11    1    3    3    0    0 -0.28289841111E+02 -0.17832814470E+02 -0.78799486717E+01  0.34357211374E+02  0.51100000000E-03 0. -1.
        -11    1    3    3    0    0 -0.10480231782E+02 -0.33792319708E+01 -0.21348723341E+01  0.11216601405E+02  0.51100000000E-03 0.  1.
        -12    1    3    3    0    0  0.37907922701E+02  0.21272406218E+02  0.92109237902E+01  0.44433849562E+02  0.00000000000E+00 0.  1.
</event>
<event>
 7    1  0.2284751E-015  0.9000771E+02  0.7816164E-02  0.1186339E+00
        -11   -1    0    0    0    0  0.00000000000E+00  0.00000000000E+00  0.45593999997E+02  0.45594000000E+02  0.51100000000E-03 0.  1.
         11   -1    0    0    0    0 -0.00000000000E+00 -0.00000000000E+00 -0.45593999997E+02  0.45594000000E+02  0.51100000000E-03 0. -1.
    9900012    2    1    2    0    0 -0.54086455243E+00  0.35932363990E+00 -0.98561110568E+00  0.90007713088E+02  0.89999974101E+02 0.  0.
         12    1    1    2    0    0  0.54086455243E+00 -0.35932363990E+00  0.98561110568E+00  0.11802869117E+01  0.00000000000E+00 0. -1.
         11    1    3    3    0    0  0.12105793209E+02  0.23493353068E+02  0.40617762212E+01  0.26739220144E+02  0.51100000000E-03 0. -1.
        -11    1    3    3    0    0  0.18790048466E+02  0.62594885490E+01 -0.40732184964E+01  0.20219748452E+02  0.51100000000E-03 0.  1.
        -12    1    3    3    0    0 -0.31436706228E+02 -0.29393517977E+02 -0.97416883044E+00  0.43048744493E+02  0.00000000000E+00 0.  1.
</event>
<event>
 7    1  0.2284751E-015  0.9000771E+02  0.7816164E-02  0.1186339E+00
        -11   -1    0    0    0    0  0.00000000000E+00  0.00000000000E+00  0.45593999997E+02  0.45594000000E+02  0.51100000000E-03 0.  1.
         11   -1    0    0    0    0 -0.00000000000E+00 -0.00000000000E+00 -0.45593999997E+02  0.45594000000E+02  0.51100000000E-03 0. -1.
    9900012    2    1    2    0    0 -0.56577680848E+00  0.15099977288E+00  0.10247803201E+01  0.90007712309E+02  0.89999973312E+02 0.  0.
         12    1    1    2    0    0  0.56577680848E+00 -0.15099977288E+00 -0.10247803201E+01  0.11802876907E+01  0.00000000000E+00 0. -1.
         11    1    3    3    0    0 -0.12436597149E+02 -0.20635713956E+02 -0.22873785894E+02  0.33222157071E+02  0.51100000000E-03 0. -1.
        -11    1    3    3    0    0 -0.12344520790E+01 -0.95642235472E+01  0.21589693299E+02  0.23645572545E+02  0.51100000000E-03 0.  1.
        -12    1    3    3    0    0  0.13105272419E+02  0.30350937276E+02  0.23088729146E+01  0.33139982692E+02  0.00000000000E+00 0.  1.
</event>
<event>
 7    1  0.2284751E-015  0.9000775E+02  0.7816164E-02  0.1186339E+00
        -11   -1    0    0    0    0  0.00000000000E+00  0.00000000000E+00  0.45593999997E+02  0.45594000000E+02  0.51100000000E-03 0.  1.
         11   -1    0    0    0    0 -0.00000000000E+00 -0.00000000000E+00 -0.45593999997E+02  0.45594000000E+02  0.51100000000E-03 0. -1.
    9900012    2    1    2    0    0  0.81386691043E+00 -0.75306562514E+00 -0.40434818044E+00  0.90007752299E+02  0.90000013830E+02 0.  0.
         12    1    1    2    0    0 -0.81386691043E+00  0.75306562514E+00  0.40434818044E+00  0.11802477006E+01  0.00000000000E+00 0. -1.
         11    1    3    3    0    0  0.13434367318E+02 -0.22065530972E+02  0.27350717356E+02  0.37622222455E+02  0.51100000000E-03 0. -1.
        -11    1    3    3    0    0 -0.38889817342E+01 -0.81953175104E+01  0.23133846885E+01  0.93615787666E+01  0.51100000000E-03 0.  1.
        -12    1    3    3    0    0 -0.87315186732E+01  0.29507782857E+02 -0.30068450224E+02  0.43023951078E+02  0.00000000000E+00 0.  1.
</event>
<event>
 7    1  0.2284751E-015  0.9000759E+02  0.7816164E-02  0.1186339E+00
        -11   -1    0    0    0    0  0.00000000000E+00  0.00000000000E+00  0.45593999997E+02  0.45594000000E+02  0.51100000000E-03 0.  1.
         11   -1    0    0    0    0 -0.00000000000E+00 -0.00000000000E+00 -0.45593999997E+02  0.45594000000E+02  0.51100000000E-03 0. -1.
    9900012    2    1    2    0    0 -0.50072538335E+00  0.13270203677E+00  0.10606800057E+01  0.90007585744E+02  0.89999845076E+02 0.  0.
         12    1    1    2    0    0  0.50072538335E+00 -0.13270203677E+00 -0.10606800057E+01  0.11804142555E+01  0.00000000000E+00 0. -1.
         11    1    3    3    0    0  0.29713721193E+01 -0.27461978997E+02 -0.29488708541E+02  0.40405114458E+02  0.51100000000E-03 0. -1.
        -11    1    3    3    0    0 -0.20704998448E+01 -0.53374190877E+01  0.72473154336E+01  0.92357237605E+01  0.51100000000E-03 0.  1.
        -12    1    3    3    0    0 -0.14015976579E+01  0.32932100122E+02  0.23302073113E+02  0.40366747526E+02  0.00000000000E+00 0.  1.
</event>
<event>
 7    1  0.2284751E-015  0.9000758E+02  0.7816164E-02  0.1186339E+00
        -11   -1    0    0    0    0  0.00000000000E+00  0.00000000000E+00  0.45593999997E+02  0.45594000000E+02  0.51100000000E-03 0. -1.
         11   -1    0    0    0    0 -0.00000000000E+00 -0.00000000000E+00 -0.45593999997E+02  0.45594000000E+02  0.51100000000E-03 0.  1.
    9900012    2    1    2    0    0  0.25144359161E+00 -0.54307534170E+00 -0.10174672538E+01  0.90007578754E+02  0.89999837993E+02 0.  0.
         12    1    1    2    0    0 -0.25144359161E+00  0.54307534170E+00  0.10174672538E+01  0.11804212465E+01  0.00000000000E+00 0. -1.
         11    1    3    3    0    0 -0.25075304242E+02  0.11807304976E+02  0.15116399694E+02  0.31570379688E+02  0.51100000000E-03 0. -1.
        -11    1    3    3    0    0 -0.11554084438E+02  0.67571682401E+01  0.11792567600E+01  0.13436771807E+02  0.51100000000E-03 0.  1.
        -12    1    3    3    0    0  0.36880832272E+02 -0.19107548558E+02 -0.17313123708E+02  0.45000427259E+02  0.00000000000E+00 0.  1.
</event>
<event>
 7    1  0.2284751E-015  0.9000750E+02  0.7816164E-02  0.1186340E+00
        -11   -1    0    0    0    0  0.00000000000E+00  0.00000000000E+00  0.45593999997E+02  0.45594000000E+02  0.51100000000E-03 0.  1.
         11   -1    0    0    0    0 -0.00000000000E+00 -0.00000000000E+00 -0.45593999997E+02  0.45594000000E+02  0.51100000000E-03 0. -1.
    9900012    2    1    2    0    0 -0.36469109125E+00 -0.88624083409E+00  0.68932393462E+00  0.90007495915E+02  0.89999754061E+02 0.  0.
         12    1    1    2    0    0  0.36469109125E+00  0.88624083409E+00 -0.68932393462E+00  0.11805040851E+01  0.00000000000E+00 0. -1.
         11    1    3    3    0    0 -0.12656731120E+02 -0.26177065388E+02 -0.13166130833E+02  0.31918311301E+02  0.51100000000E-03 0. -1.
        -11    1    3    3    0    0  0.36463969028E+01 -0.89597418012E+01 -0.11186227110E+02  0.14788673393E+02  0.51100000000E-03 0.  1.
        -12    1    3    3    0    0  0.86456431259E+01  0.34250566355E+02  0.25041681877E+02  0.43300511220E+02  0.00000000000E+00 0.  1.
</event>
<event>
 7    1  0.2284751E-015  0.9000792E+02  0.7816164E-02  0.1186339E+00
        -11   -1    0    0    0    0  0.00000000000E+00  0.00000000000E+00  0.45593999997E+02  0.45594000000E+02  0.51100000000E-03 0. -1.
         11   -1    0    0    0    0 -0.00000000000E+00 -0.00000000000E+00 -0.45593999997E+02  0.45594000000E+02  0.51100000000E-03 0.  1.
    9900012    2    1    2    0    0  0.89411408385E+00  0.50658258103E+00 -0.58011397250E+00  0.90007916051E+02  0.90000179742E+02 0.  0.
         12    1    1    2    0    0 -0.89411408385E+00 -0.50658258103E+00  0.58011397250E+00  0.11800839493E+01  0.00000000000E+00 0. -1.
         11    1    3    3    0    0  0.25735464867E+00  0.94241265414E+01 -0.58186540711E+01  0.11078678980E+02  0.51100000000E-03 0. -1.
        -11    1    3    3    0    0  0.20275256721E+02  0.28124914694E+02 -0.67507960880E+01  0.35322374067E+02  0.51100000000E-03 0.  1.
         12    1    3    3    0    0 -0.19638497286E+02 -0.37042458654E+02  0.11989336187E+02  0.43606863004E+02  0.00000000000E+00 0. -1.
</event>
<event>
 7    1  0.2331016E-015  0.9000772E+02  0.7816164E-02  0.1186339E+00
        -11   -1    0    0    0    0  0.00000000000E+00  0.00000000000E+00  0.45593999997E+02  0.45594000000E+02  0.51100000000E-03 0.  1.
         11   -1    0    0    0    0 -0.00000000000E+00 -0.00000000000E+00 -0.45593999997E+02  0.45594000000E+02  0.51100000000E-03 0. -1.
    9900012    2    1    2    0    0 -0.75428113093E+00 -0.18992173067E+00  0.88772197110E+00  0.90007720124E+02  0.89999981229E+02 0.  0.
         12    1    1    2    0    0  0.75428113093E+00  0.18992173067E+00 -0.88772197110E+00  0.11802798762E+01  0.00000000000E+00 0. -1.
         11    1    3    3    0    0  0.15270438939E+01  0.15737842705E+02 -0.38800533160E+02  0.41898602958E+02  0.51100000000E-03 0. -1.
        -11    1    3    3    0    0 -0.44445010242E+01 -0.85067199818E+01  0.22191969183E+01  0.98510258057E+01  0.51100000000E-03 0.  1.
        -12    1    3    3    0    0  0.21631759993E+01 -0.74210444536E+01  0.37469058213E+02  0.38258091360E+02  0.00000000000E+00 0.  1.
</event>
<event>
 7    1  0.2284751E-015  0.9000762E+02  0.7816164E-02  0.1186339E+00
        -11   -1    0    0    0    0  0.00000000000E+00  0.00000000000E+00  0.45593999997E+02  0.45594000000E+02  0.51100000000E-03 0.  1.
         11   -1    0    0    0    0 -0.00000000000E+00 -0.00000000000E+00 -0.45593999997E+02  0.45594000000E+02  0.51100000000E-03 0. -1.
    9900012    2    1    2    0    0 -0.68825389668E+00 -0.85716199643E+00  0.42996911552E+00  0.90007621436E+02  0.89999881239E+02 0.  0.
         12    1    1    2    0    0  0.68825389668E+00  0.85716199643E+00 -0.42996911552E+00  0.11803785642E+01  0.00000000000E+00 0. -1.
         11    1    3    3    0    0 -0.72939754361E+01  0.60273749758E+01  0.11818647952E+01  0.95356243328E+01  0.51100000000E-03 0. -1.
        -11    1    3    3    0    0 -0.34418446519E+02 -0.15559792371E+00  0.12837472002E+02  0.36734920160E+02  0.51100000000E-03 0.  1.
         12    1    3    3    0    0  0.41024168058E+02 -0.67289390485E+01 -0.13589367682E+02  0.43737076943E+02  0.00000000000E+00 0. -1.
</event>
<event>
 7    1  0.2284751E-015  0.9000776E+02  0.7816164E-02  0.1186339E+00
        -11   -1    0    0    0    0  0.00000000000E+00  0.00000000000E+00  0.45593999997E+02  0.45594000000E+02  0.51100000000E-03 0.  1.
         11   -1    0    0    0    0 -0.00000000000E+00 -0.00000000000E+00 -0.45593999997E+02  0.45594000000E+02  0.51100000000E-03 0. -1.
    9900012    2    1    2    0    0 -0.48985060840E+00 -0.10644563515E+01 -0.14121804451E+00  0.90007761262E+02  0.90000022911E+02 0.  0.
         12    1    1    2    0    0  0.48985060840E+00  0.10644563515E+01  0.14121804451E+00  0.11802387381E+01  0.00000000000E+00 0. -1.
         11    1    3    3    0    0  0.15930329489E+01 -0.96415379454E+01  0.36869799233E+01  0.10444655530E+02  0.51100000000E-03 0. -1.
        -11    1    3    3    0    0  0.27424536571E+01 -0.12591019855E+02  0.33770812136E+02  0.36145851569E+02  0.51100000000E-03 0.  1.
         12    1    3    3    0    0 -0.48253372145E+01  0.21168101449E+02 -0.37599010104E+02  0.43417254162E+02  0.00000000000E+00 0. -1.
</event>
<event>
 7    1  0.2284751E-015  0.9000769E+02  0.7816164E-02  0.1186339E+00
        -11   -1    0    0    0    0  0.00000000000E+00  0.00000000000E+00  0.45593999997E+02  0.45594000000E+02  0.51100000000E-03 0.  1.
         11   -1    0    0    0    0 -0.00000000000E+00 -0.00000000000E+00 -0.45593999997E+02  0.45594000000E+02  0.51100000000E-03 0. -1.
    9900012    2    1    2    0    0  0.19009568029E+00 -0.71007131424E+00  0.92346538755E+00  0.90007692430E+02  0.89999953170E+02 0.  0.
         12    1    1    2    0    0 -0.19009568029E+00  0.71007131424E+00 -0.92346538755E+00  0.11803075705E+01  0.00000000000E+00 0. -1.
         11    1    3    3    0    0 -0.17117288131E+02 -0.31079259851E+02 -0.99833951582E+01  0.36859057570E+02  0.51100000000E-03 0. -1.
        -11    1    3    3    0    0  0.36678633766E+01 -0.88921211903E+01 -0.15857468077E+01  0.97487247480E+01  0.51100000000E-03 0.  1.
        -12    1    3    3    0    0  0.13639520435E+02  0.39261309727E+02  0.12492607353E+02  0.43399910111E+02  0.00000000000E+00 0.  1.
</event>
<event>
 7    1  0.2284751E-015  0.9000774E+02  0.7816164E-02  0.1186339E+00
        -11   -1    0    0    0    0  0.00000000000E+00  0.00000000000E+00  0.45593999997E+02  0.45594000000E+02  0.51100000000E-03 0. -1.
         11   -1    0    0    0    0 -0.00000000000E+00 -0.00000000000E+00 -0.45593999997E+02  0.45594000000E+02  0.51100000000E-03 0.  1.
    9900012    2    1    2    0    0 -0.57777982968E+00  0.83066529592E+00 -0.60760131641E+00  0.90007739976E+02  0.90000001343E+02 0.  0.
         12    1    1    2    0    0  0.57777982968E+00 -0.83066529592E+00  0.60760131641E+00  0.11802600244E+01  0.00000000000E+00 0. -1.
         11    1    3    3    0    0  0.72265621084E+01  0.17927704805E+02  0.18368051688E+01  0.19416478903E+02  0.51100000000E-03 0. -1.
        -11    1    3    3    0    0 -0.42629637479E+01 -0.15838625993E+02 -0.34560908292E+02  0.38255605020E+02  0.51100000000E-03 0.  1.
         12    1    3    3    0    0 -0.35413781902E+01 -0.12584135166E+01  0.32116501807E+02  0.32335656053E+02  0.00000000000E+00 0. -1.
</event>
<event>
 7    1  0.2284751E-015  0.9000761E+02  0.7816164E-02  0.1186339E+00
        -11   -1    0    0    0    0  0.00000000000E+00  0.00000000000E+00  0.45593999997E+02  0.45594000000E+02  0.51100000000E-03 0. -1.
         11   -1    0    0    0    0 -0.00000000000E+00 -0.00000000000E+00 -0.45593999997E+02  0.45594000000E+02  0.51100000000E-03 0.  1.
    9900012    2    1    2    0    0 -0.19587554276E+00 -0.11214120002E+01  0.31207774247E+00  0.90007608277E+02  0.89999867906E+02 0.  0.
         12    1    1    2    0    0  0.19587554276E+00  0.11214120002E+01 -0.31207774247E+00  0.11803917230E+01  0.00000000000E+00 0. -1.
         11    1    3    3    0    0  0.29286811278E+01 -0.41754621452E+02 -0.67672731837E+01  0.42400726083E+02  0.51100000000E-03 0. -1.
        -11    1    3    3    0    0 -0.93374465052E+01  0.44371495199E+01  0.10741154881E+01  0.10393744630E+02  0.51100000000E-03 0.  1.
        -12    1    3    3    0    0  0.62128898346E+01  0.36196059932E+02  0.60052354381E+01  0.37213137564E+02  0.00000000000E+00 0.  1.
</event>
<event>
 7    1  0.2284751E-015  0.9000776E+02  0.7816164E-02  0.1186339E+00
        -11   -1    0    0    0    0  0.00000000000E+00  0.00000000000E+00  0.45593999997E+02  0.45594000000E+02  0.51100000000E-03 0.  1.
         11   -1    0    0    0    0 -0.00000000000E+00 -0.00000000000E+00 -0.45593999997E+02  0.45594000000E+02  0.51100000000E-03 0. -1.
    9900012    2    1    2    0    0  0.18703453887E+00  0.11353566335E+01  0.26258385993E+00  0.90007759818E+02  0.90000021447E+02 0.  0.
         12    1    1    2    0    0 -0.18703453887E+00 -0.11353566335E+01 -0.26258385993E+00  0.11802401821E+01  0.00000000000E+00 0. -1.
         11    1    3    3    0    0 -0.66821580859E+01 -0.68491974039E+01  0.19159365601E+01  0.97587681049E+01  0.51100000000E-03 0. -1.
        -11    1    3    3    0    0 -0.11197409043E+02 -0.21825395004E+02  0.26006924442E+02  0.35750383991E+02  0.51100000000E-03 0.  1.
         12    1    3    3    0    0  0.18066601667E+02  0.29809949041E+02 -0.27660277142E+02  0.44498607722E+02  0.00000000000E+00 0. -1.
</event>
<event>
 7    1  0.2284751E-015  0.9000771E+02  0.7816164E-02  0.1186339E+00
        -11   -1    0    0    0    0  0.00000000000E+00  0.00000000000E+00  0.45593999997E+02  0.45594000000E+02  0.51100000000E-03 0.  1.
         11   -1    0    0    0    0 -0.00000000000E+00 -0.00000000000E+00 -0.45593999997E+02  0.45594000000E+02  0.51100000000E-03 0. -1.
    9900012    2    1    2    0    0 -0.61390199404E+00  0.80435765995E+00  0.60763324230E+00  0.90007709756E+02  0.89999970725E+02 0.  0.
         12    1    1    2    0    0  0.61390199404E+00 -0.80435765995E+00 -0.60763324230E+00  0.11802902442E+01  0.00000000000E+00 0. -1.
         11    1    3    3    0    0  0.71317200619E+01  0.56425605405E+01  0.30388268310E+00  0.90990255215E+01  0.51100000000E-03 0. -1.
        -11    1    3    3    0    0 -0.18779877574E+02  0.18837921960E+02  0.30838547759E+02  0.40725509617E+02  0.51100000000E-03 0.  1.
         12    1    3    3    0    0  0.11034255518E+02 -0.23676124840E+02 -0.30534797200E+02  0.40183174617E+02  0.00000000000E+00 0. -1.
</event>
<event>
 7    1  0.2284751E-015  0.9000774E+02  0.7816164E-02  0.1186339E+00
        -11   -1    0    0    0    0  0.00000000000E+00  0.00000000000E+00  0.45593999997E+02  0.45594000000E+02  0.51100000000E-03 0. -1.
         11   -1    0    0    0    0 -0.00000000000E+00 -0.00000000000E+00 -0.45593999997E+02  0.45594000000E+02  0.51100000000E-03 0.  1.
    9900012    2    1    2    0    0  0.10983465790E+01  0.22950436126E+00 -0.36603125602E+00  0.90007738868E+02  0.90000000221E+02 0.  0.
         12    1    1    2    0    0 -0.10983465790E+01 -0.22950436126E+00  0.36603125602E+00  0.11802611321E+01  0.00000000000E+00 0. -1.
         11    1    3    3    0    0 -0.46209234160E+01 -0.32386177886E+01 -0.68163763764E+01  0.88489866970E+01  0.51100000000E-03 0. -1.
        -11    1    3    3    0    0 -0.22059734618E+02 -0.29221255259E+02  0.10447852983E+02  0.38074549013E+02  0.51100000000E-03 0.  1.
         12    1    3    3    0    0  0.27779004613E+02  0.32689377409E+02 -0.39975078623E+01  0.43084203158E+02  0.00000000000E+00 0. -1.
</event>
<event>
 7    1  0.2284751E-015  0.9000768E+02  0.7816164E-02  0.1186339E+00
        -11   -1    0    0    0    0  0.00000000000E+00  0.00000000000E+00  0.45593999997E+02  0.45594000000E+02  0.51100000000E-03 0.  1.
         11   -1    0    0    0    0 -0.00000000000E+00 -0.00000000000E+00 -0.45593999997E+02  0.45594000000E+02  0.51100000000E-03 0. -1.
    9900012    2    1    2    0    0 -0.11218430056E+01  0.23607171587E+00  0.28086100413E+00  0.90007684581E+02  0.89999945218E+02 0.  0.
         12    1    1    2    0    0  0.11218430056E+01 -0.23607171587E+00 -0.28086100413E+00  0.11803154189E+01  0.00000000000E+00 0. -1.
         11    1    3    3    0    0  0.21632716543E+02  0.12606587362E+02 -0.27458153708E+02  0.37159799182E+02  0.51100000000E-03 0. -1.
        -11    1    3    3    0    0 -0.55535360275E+01  0.27757373803E+01 -0.81619146550E+01  0.10254917431E+02  0.51100000000E-03 0.  1.
        -12    1    3    3    0    0 -0.17201023521E+02 -0.15146253027E+02  0.35900929367E+02  0.42592967968E+02  0.00000000000E+00 0.  1.
</event>
<event>
 7    1  0.2284751E-015  0.9000781E+02  0.7816164E-02  0.1186339E+00
        -11   -1    0    0    0    0  0.00000000000E+00  0.00000000000E+00  0.45593999997E+02  0.45594000000E+02  0.51100000000E-03 0. -1.
         11   -1    0    0    0    0 -0.00000000000E+00 -0.00000000000E+00 -0.45593999997E+02  0.45594000000E+02  0.51100000000E-03 0.  1.
    9900012    2    1    2    0    0  0.47408589739E+00  0.73651500620E+00 -0.79097732805E+00  0.90007806403E+02  0.90000068648E+02 0.  0.
         12    1    1    2    0    0 -0.47408589739E+00 -0.73651500620E+00  0.79097732805E+00  0.11801935968E+01  0.00000000000E+00 0. -1.
         11    1    3    3    0    0  0.17875865804E+02 -0.14630080280E+02  0.30620011580E+02  0.38355846187E+02  0.51100000000E-03 0. -1.
        -11    1    3    3    0    0 -0.73980181450E+01 -0.77284963126E+01  0.85262656245E+00  0.10732534651E+02  0.51100000000E-03 0.  1.
        -12    1    3    3    0    0 -0.10003761762E+02  0.23095091599E+02 -0.32263615471E+02  0.40919425565E+02  0.00000000000E+00 0.  1.
</event>
<event>
 7    1  0.2284751E-015  0.9000772E+02  0.7816164E-02  0.1186339E+00
        -11   -1    0    0    0    0  0.00000000000E+00  0.00000000000E+00  0.45593999997E+02  0.45594000000E+02  0.51100000000E-03 0. -1.
         11   -1    0    0    0    0 -0.00000000000E+00 -0.00000000000E+00 -0.45593999997E+02  0.45594000000E+02  0.51100000000E-03 0.  1.
    9900012    2    1    2    0    0 -0.73620287455E+00 -0.62013989620E+00  0.68300239776E+00  0.90007720186E+02  0.89999981293E+02 0.  0.
         12    1    1    2    0    0  0.73620287455E+00  0.62013989620E+00 -0.68300239776E+00  0.11802798137E+01  0.00000000000E+00 0. -1.
         11    1    3    3    0    0 -0.36679721786E+02 -0.96083256820E+00  0.76461618025E+00  0.36700270131E+02  0.51100000000E-03 0. -1.
        -11    1    3    3    0    0 -0.83708208004E+01  0.25964508332E+01  0.15757872574E+01  0.89047910444E+01  0.51100000000E-03 0.  1.
        -12    1    3    3    0    0  0.44314339712E+02 -0.22557581612E+01 -0.16574010399E+01  0.44402659011E+02  0.00000000000E+00 0.  1.
</event>
<event>
 7    1  0.2284751E-015  0.9000805E+02  0.7816164E-02  0.1186338E+00
        -11   -1    0    0    0    0  0.00000000000E+00  0.00000000000E+00  0.45593999997E+02  0.45594000000E+02  0.51100000000E-03 0. -1.
         11   -1    0    0    0    0 -0.00000000000E+00 -0.00000000000E+00 -0.45593999997E+02  0.45594000000E+02  0.51100000000E-03 0.  1.
    9900012    2    1    2    0    0  0.72477486354E+00 -0.61103697925E+00 -0.70257655299E+00  0.90008051439E+02  0.90000316918E+02 0.  0.
         12    1    1    2    0    0 -0.72477486354E+00  0.61103697925E+00  0.70257655299E+00  0.11799485606E+01  0.00000000000E+00 0. -1.
         11    1    3    3    0    0  0.48981446297E+01 -0.74108119768E+01  0.10550439720E+01  0.89456734242E+01  0.51100000000E-03 0. -1.
        -11    1    3    3    0    0 -0.42245740689E+02  0.86993577009E-01 -0.32784279753E+01  0.42372848199E+02  0.51100000000E-03 0.  1.
         12    1    3    3    0    0  0.38072370923E+02  0.67127814205E+01  0.15208074503E+01  0.38689529816E+02  0.00000000000E+00 0. -1.
</event>
<event>
 7    1  0.2391249E-015  0.9000775E+02  0.7816164E-02  0.1186339E+00
        -11   -1    0    0    0    0  0.00000000000E+00  0.00000000000E+00  0.45593999997E+02  0.45594000000E+02  0.51100000000E-03 0. -1.
         11   -1    0    0    0    0 -0.00000000000E+00 -0.00000000000E+00 -0.45593999997E+02  0.45594000000E+02  0.51100000000E-03 0.  1.
    9900012    2    1    2    0    0 -0.87044955512E+00 -0.45126606028E+00 -0.65702017388E+00  0.90007746216E+02  0.90000007666E+02 0.  0.
         12    1    1    2    0    0  0.87044955512E+00  0.45126606028E+00  0.65702017388E+00  0.11802537838E+01  0.00000000000E+00 0. -1.
         11    1    3    3    0    0  0.76296661155E+01 -0.17507793193E+02  0.31437711194E+02  0.36784022522E+02  0.51100000000E-03 0. -1.
        -11    1    3    3    0    0 -0.31927310299E+01 -0.70727679890E-01  0.83730604926E+01  0.89613992271E+01  0.51100000000E-03 0.  1.
        -12    1    3    3    0    0 -0.53073846406E+01  0.17127254813E+02 -0.40467791860E+02  0.44262324467E+02  0.00000000000E+00 0.  1.
</event>
<event>
 7    1  0.2284751E-015  0.9000706E+02  0.7816164E-02  0.1186340E+00
        -11   -1    0    0    0    0  0.00000000000E+00  0.00000000000E+00  0.45593999997E+02  0.45594000000E+02  0.51100000000E-03 0.  1.
         11   -1    0    0    0    0 -0.00000000000E+00 -0.00000000000E+00 -0.45593999997E+02  0.45594000000E+02  0.51100000000E-03 0. -1.
    9900012    2    1    2    0    0 -0.88561503753E+00 -0.77803664074E+00  0.70440289651E-01  0.90007061033E+02  0.89999313436E+02 0.  0.
         12    1    1    2    0    0  0.88561503753E+00  0.77803664074E+00 -0.70440289651E-01  0.11809389669E+01  0.00000000000E+00 0. -1.
         11    1    3    3    0    0 -0.90529541235E+01 -0.31397301938E+01 -0.18905731452E+01  0.97666857803E+01  0.51100000000E-03 0. -1.
        -11    1    3    3    0    0 -0.15745531040E+02 -0.14579727076E+02 -0.29995242754E+02  0.36880954129E+02  0.51100000000E-03 0.  1.
         12    1    3    3    0    0  0.23912870126E+02  0.16941420629E+02  0.31956256189E+02  0.43359421124E+02  0.00000000000E+00 0. -1.
</event>
<event>
 7    1  0.2299887E-015  0.9000775E+02  0.7816164E-02  0.1186339E+00
        -11   -1    0    0    0    0  0.00000000000E+00  0.00000000000E+00  0.45593999997E+02  0.45594000000E+02  0.51100000000E-03 0. -1.
         11   -1    0    0    0    0 -0.00000000000E+00 -0.00000000000E+00 -0.45593999997E+02  0.45594000000E+02  0.51100000000E-03 0.  1.
    9900012    2    1    2    0    0  0.25730248626E+00  0.87333115196E+00 -0.75104408400E+00  0.90007754650E+02  0.90000016211E+02 0.  0.
         12    1    1    2    0    0 -0.25730248626E+00 -0.87333115196E+00  0.75104408400E+00  0.11802453501E+01  0.00000000000E+00 0. -1.
         11    1    3    3    0    0 -0.17079349427E+02 -0.17490647909E+02  0.28803747691E+02  0.37779396798E+02  0.51100000000E-03 0. -1.
        -11    1    3    3    0    0 -0.71940581234E+00 -0.88387073139E+01 -0.11313769559E+01  0.89398157577E+01  0.51100000000E-03 0.  1.
        -12    1    3    3    0    0  0.18056057725E+02  0.27202686375E+02 -0.28423414819E+02  0.43288542094E+02  0.00000000000E+00 0.  1.
</event>
<event>
 7    1  0.2284751E-015  0.9000780E+02  0.7816164E-02  0.1186339E+00
        -11   -1    0    0    0    0  0.00000000000E+00  0.00000000000E+00  0.45593999997E+02  0.45594000000E+02  0.51100000000E-03 0. -1.
         11   -1    0    0    0    0 -0.00000000000E+00 -0.00000000000E+00 -0.45593999997E+02  0.45594000000E+02  0.51100000000E-03 0.  1.
    9900012    2    1    2    0    0 -0.10523777810E+01  0.29849277526E+00 -0.44301811598E+00  0.90007804261E+02  0.90000066477E+02 0.  0.
         12    1    1    2    0    0  0.10523777810E+01 -0.29849277526E+00  0.44301811598E+00  0.11801957388E+01  0.00000000000E+00 0. -1.
         11    1    3    3    0    0 -0.99365401126E+01  0.21731498701E+00  0.10844591151E+01  0.99979051329E+01  0.51100000000E-03 0. -1.
        -11    1    3    3    0    0 -0.13927923485E+02 -0.10361017137E+02 -0.34474381418E+02  0.38598195594E+02  0.51100000000E-03 0.  1.
         12    1    3    3    0    0  0.22812085817E+02  0.10442194925E+02  0.32946904186E+02  0.41411703534E+02  0.00000000000E+00 0. -1.
</event>
<event>
 7    1  0.2284751E-015  0.9000781E+02  0.7816164E-02  0.1186339E+00
        -11   -1    0    0    0    0  0.00000000000E+00  0.00000000000E+00  0.45593999997E+02  0.45594000000E+02  0.51100000000E-03 0.  1.
         11   -1    0    0    0    0 -0.00000000000E+00 -0.00000000000E+00 -0.45593999997E+02  0.45594000000E+02  0.51100000000E-03 0. -1.
    9900012    2    1    2    0    0 -0.25684374774E+00 -0.10151292696E+01 -0.54441606303E+00  0.90007811458E+02  0.90000073769E+02 0.  0.
         12    1    1    2    0    0  0.25684374774E+00  0.10151292696E+01  0.54441606303E+00  0.11801885419E+01  0.00000000000E+00 0. -1.
         11    1    3    3    0    0 -0.49195208394E+01 -0.10583170766E+02  0.35742400411E+01  0.12205751959E+02  0.51100000000E-03 0. -1.
        -11    1    3    3    0    0  0.32317584030E+02  0.11005590019E+02  0.21277442560E+02  0.40227836275E+02  0.51100000000E-03 0.  1.
         12    1    3    3    0    0 -0.27654906938E+02 -0.14375485219E+01 -0.25396098664E+02  0.37574223224E+02  0.00000000000E+00 0. -1.
</event>
<event>
 7    1  0.2284751E-015  0.9000770E+02  0.7816164E-02  0.1186339E+00
        -11   -1    0    0    0    0  0.00000000000E+00  0.00000000000E+00  0.45593999997E+02  0.45594000000E+02  0.51100000000E-03 0.  1.
         11   -1    0    0    0    0 -0.00000000000E+00 -0.00000000000E+00 -0.45593999997E+02  0.45594000000E+02  0.51100000000E-03 0. -1.
    9900012    2    1    2    0    0 -0.24943324463E+00  0.45705037963E+00  0.10592393009E+01  0.90007703474E+02  0.89999964360E+02 0.  0.
         12    1    1    2    0    0  0.24943324463E+00 -0.45705037963E+00 -0.10592393009E+01  0.11802965261E+01  0.00000000000E+00 0. -1.
         11    1    3    3    0    0  0.23370748022E+02 -0.31512857356E+02 -0.42976034555E+01  0.39467979902E+02  0.51100000000E-03 0. -1.
        -11    1    3    3    0    0 -0.55245991523E+01 -0.51233665992E+01  0.53966707900E+01  0.92679089864E+01  0.51100000000E-03 0.  1.
        -12    1    3    3    0    0 -0.18095582114E+02  0.37093274334E+02 -0.39828033628E-01  0.41271814586E+02  0.00000000000E+00 0.  1.
</event>
<event>
 7    1  0.2284751E-015  0.9000773E+02  0.7816164E-02  0.1186339E+00
        -11   -1    0    0    0    0  0.00000000000E+00  0.00000000000E+00  0.45593999997E+02  0.45594000000E+02  0.51100000000E-03 0. -1.
         11   -1    0    0    0    0 -0.00000000000E+00 -0.00000000000E+00 -0.45593999997E+02  0.45594000000E+02  0.51100000000E-03 0.  1.
    9900012    2    1    2    0    0  0.51624402667E+00  0.43192782116E+00 -0.96951466693E+00  0.90007733832E+02  0.89999995119E+02 0.  0.
         12    1    1    2    0    0 -0.51624402667E+00 -0.43192782116E+00  0.96951466693E+00  0.11802661679E+01  0.00000000000E+00 0. -1.
         11    1    3    3    0    0  0.94655887350E+01  0.65835429363E+00 -0.51366735698E+00  0.95023499668E+01  0.51100000000E-03 0. -1.
        -11    1    3    3    0    0  0.29531939608E+02 -0.14915850176E+02 -0.15653758808E+02  0.36601341622E+02  0.51100000000E-03 0.  1.
         12    1    3    3    0    0 -0.38481284316E+02  0.14689423703E+02  0.15197911498E+02  0.43904042243E+02  0.00000000000E+00 0. -1.
</event>
<event>
 7    1  0.2284751E-015  0.9000749E+02  0.7816164E-02  0.1186340E+00
        -11   -1    0    0    0    0  0.00000000000E+00  0.00000000000E+00  0.45593999997E+02  0.45594000000E+02  0.51100000000E-03 0.  1.
         11   -1    0    0    0    0 -0.00000000000E+00 -0.00000000000E+00 -0.45593999997E+02  0.45594000000E+02  0.51100000000E-03 0. -1.
    9900012    2    1    2    0    0  0.56417243245E+00  0.10353583319E+01 -0.57925958356E-01  0.90007486203E+02  0.89999744220E+02 0.  0.
         12    1    1    2    0    0 -0.56417243245E+00 -0.10353583319E+01  0.57925958356E-01  0.11805137973E+01  0.00000000000E+00 0. -1.
         11    1    3    3    0    0  0.68043591151E+01  0.32539498421E+02 -0.28393178636E+02  0.43718312568E+02  0.51100000000E-03 0. -1.
        -11    1    3    3    0    0 -0.77389902372E+00 -0.12365096852E+02  0.93786847251E+00  0.12424738926E+02  0.51100000000E-03 0.  1.
        -12    1    3    3    0    0 -0.54662876590E+01 -0.19139043238E+02  0.27397384205E+02  0.33864434708E+02  0.00000000000E+00 0.  1.
</event>
<event>
 7    1  0.2284751E-015  0.9000779E+02  0.7816164E-02  0.1186339E+00
        -11   -1    0    0    0    0  0.00000000000E+00  0.00000000000E+00  0.45593999997E+02  0.45594000000E+02  0.51100000000E-03 0. -1.
         11   -1    0    0    0    0 -0.00000000000E+00 -0.00000000000E+00 -0.45593999997E+02  0.45594000000E+02  0.51100000000E-03 0.  1.
    9900012    2    1    2    0    0 -0.87124613801E+00  0.13965831287E+00 -0.78379191946E+00  0.90007786439E+02  0.90000048420E+02 0.  0.
         12    1    1    2    0    0  0.87124613801E+00 -0.13965831287E+00  0.78379191946E+00  0.11802135613E+01  0.00000000000E+00 0. -1.
         11    1    3    3    0    0 -0.63444073037E+01  0.18628756387E+00  0.34425483958E+00  0.63564706203E+01  0.51100000000E-03 0. -1.
        -11    1    3    3    0    0 -0.12216598189E+02  0.33410093039E+02 -0.20581925963E+02  0.41098604171E+02  0.51100000000E-03 0.  1.
         12    1    3    3    0    0  0.17689759355E+02 -0.33456722290E+02  0.19453879204E+02  0.42552711647E+02  0.00000000000E+00 0. -1.
</event>
<event>
 7    1  0.2284751E-015  0.9000778E+02  0.7816164E-02  0.1186339E+00
        -11   -1    0    0    0    0  0.00000000000E+00  0.00000000000E+00  0.45593999997E+02  0.45594000000E+02  0.51100000000E-03 0. -1.
         11   -1    0    0    0    0 -0.00000000000E+00 -0.00000000000E+00 -0.45593999997E+02  0.45594000000E+02  0.51100000000E-03 0.  1.
    9900012    2    1    2    0    0 -0.75695213411E+00 -0.88998243245E+00 -0.16692972082E+00  0.90007783581E+02  0.90000045525E+02 0.  0.
         12    1    1    2    0    0  0.75695213411E+00  0.88998243245E+00  0.16692972082E+00  0.11802164188E+01  0.00000000000E+00 0. -1.
         11    1    3    3    0    0 -0.14157549415E+01 -0.32152889878E+02 -0.20211070652E+02  0.38003948041E+02  0.51100000000E-03 0. -1.
        -11    1    3    3    0    0 -0.66784089969E+01 -0.65781040359E+01  0.28559339056E+01  0.97994366252E+01  0.51100000000E-03 0.  1.
        -12    1    3    3    0    0  0.73372118043E+01  0.37841011481E+02  0.17188207026E+02  0.42204398915E+02  0.00000000000E+00 0.  1.
</event>
<event>
 7    1  0.2284751E-015  0.9000762E+02  0.7816164E-02  0.1186339E+00
        -11   -1    0    0    0    0  0.00000000000E+00  0.00000000000E+00  0.45593999997E+02  0.45594000000E+02  0.51100000000E-03 0. -1.
         11   -1    0    0    0    0 -0.00000000000E+00 -0.00000000000E+00 -0.45593999997E+02  0.45594000000E+02  0.51100000000E-03 0.  1.
    9900012    2    1    2    0    0 -0.79213785487E-02 -0.35413453502E+00 -0.11259747505E+01  0.90007621605E+02  0.89999881410E+02 0.  0.
         12    1    1    2    0    0  0.79213785487E-02  0.35413453502E+00  0.11259747505E+01  0.11803783952E+01  0.00000000000E+00 0. -1.
         11    1    3    3    0    0 -0.68140737520E+01  0.79086771839E+01  0.31879758969E+01  0.10915217198E+02  0.51100000000E-03 0. -1.
        -11    1    3    3    0    0  0.26467706549E+02  0.25058243079E+02 -0.14271037560E+02  0.39142273177E+02  0.51100000000E-03 0.  1.
         12    1    3    3    0    0 -0.19661554176E+02 -0.33321054798E+02  0.99570869127E+01  0.39950131229E+02  0.00000000000E+00 0. -1.
</event>
<event>
 7    1  0.2284751E-015  0.9000778E+02  0.7816164E-02  0.1186339E+00
        -11   -1    0    0    0    0  0.00000000000E+00  0.00000000000E+00  0.45593999997E+02  0.45594000000E+02  0.51100000000E-03 0.  1.
         11   -1    0    0    0    0 -0.00000000000E+00 -0.00000000000E+00 -0.45593999997E+02  0.45594000000E+02  0.51100000000E-03 0. -1.
    9900012    2    1    2    0    0 -0.54884069683E+00  0.12458344914E+00  0.10373899189E+01  0.90007777568E+02  0.90000039431E+02 0.  0.
         12    1    1    2    0    0  0.54884069683E+00 -0.12458344914E+00 -0.10373899189E+01  0.11802224325E+01  0.00000000000E+00 0. -1.
         11    1    3    3    0    0 -0.28416827203E+02  0.29198872003E+02 -0.13158972158E+02  0.42816454116E+02  0.51100000000E-03 0. -1.
        -11    1    3    3    0    0  0.27244586776E+01 -0.39981469792E+01 -0.48877833660E+01  0.68773745607E+01  0.51100000000E-03 0.  1.
        -12    1    3    3    0    0  0.25143527829E+02 -0.25076141574E+02  0.19084145443E+02  0.40313948891E+02  0.00000000000E+00 0.  1.
</event>
<event>
 7    1  0.2284751E-015  0.9000778E+02  0.7816164E-02  0.1186339E+00
        -11   -1    0    0    0    0  0.00000000000E+00  0.00000000000E+00  0.45593999997E+02  0.45594000000E+02  0.51100000000E-03 0.  1.
         11   -1    0    0    0    0 -0.00000000000E+00 -0.00000000000E+00 -0.45593999997E+02  0.45594000000E+02  0.51100000000E-03 0. -1.
    9900012    2    1    2    0    0 -0.24100821942E+00 -0.22853025310E+00  0.11325228814E+01  0.90007780056E+02  0.90000041953E+02 0.  0.
         12    1    1    2    0    0  0.24100821942E+00  0.22853025310E+00 -0.11325228814E+01  0.11802199436E+01  0.00000000000E+00 0. -1.
         11    1    3    3    0    0  0.56639668154E+01 -0.34914208104E+02  0.91887872989E+01  0.36544715896E+02  0.51100000000E-03 0. -1.
        -11    1    3    3    0    0 -0.45339779463E+01 -0.81327944619E+01  0.18475430340E+01  0.94927718449E+01  0.51100000000E-03 0.  1.
        -12    1    3    3    0    0 -0.13709970885E+01  0.42818472313E+02 -0.99038074516E+01  0.43970292315E+02  0.00000000000E+00 0.  1.
</event>
<event>
 7    1  0.2284751E-015  0.9000758E+02  0.7816164E-02  0.1186339E+00
        -11   -1    0    0    0    0  0.00000000000E+00  0.00000000000E+00  0.45593999997E+02  0.45594000000E+02  0.51100000000E-03 0.  1.
         11   -1    0    0    0    0 -0.00000000000E+00 -0.00000000000E+00 -0.45593999997E+02  0.45594000000E+02  0.51100000000E-03 0. -1.
    9900012    2    1    2    0    0 -0.92252210700E+00  0.55826172380E+00 -0.48031057202E+00  0.90007575739E+02  0.89999834939E+02 0.  0.
         12    1    1    2    0    0  0.92252210700E+00 -0.55826172380E+00  0.48031057202E+00  0.11804242609E+01  0.00000000000E+00 0. -1.
         11    1    3    3    0    0 -0.19501522752E+01  0.99181990911E+01 -0.43122891699E+01  0.10989522522E+02  0.51100000000E-03 0. -1.
        -11    1    3    3    0    0 -0.35321209626E+02  0.10394512906E+02 -0.35681154217E+01  0.36991420572E+02  0.51100000000E-03 0.  1.
         12    1    3    3    0    0  0.36348839794E+02 -0.19754450274E+02  0.74000940195E+01  0.42026632645E+02  0.00000000000E+00 0. -1.
</event>
<event>
 7    1  0.2284751E-015  0.9000771E+02  0.7816164E-02  0.1186339E+00
        -11   -1    0    0    0    0  0.00000000000E+00  0.00000000000E+00  0.45593999997E+02  0.45594000000E+02  0.51100000000E-03 0.  1.
         11   -1    0    0    0    0 -0.00000000000E+00 -0.00000000000E+00 -0.45593999997E+02  0.45594000000E+02  0.51100000000E-03 0. -1.
    9900012    2    1    2    0    0 -0.69150447386E+00 -0.31341415008E+00  0.90370484222E+00  0.90007707956E+02  0.89999968901E+02 0.  0.
         12    1    1    2    0    0  0.69150447386E+00  0.31341415008E+00 -0.90370484222E+00  0.11802920438E+01  0.00000000000E+00 0. -1.
         11    1    3    3    0    0 -0.73960435883E+01  0.34302223484E+02 -0.10330078940E+02  0.36579427660E+02  0.51100000000E-03 0. -1.
        -11    1    3    3    0    0  0.74468741683E+01  0.56128984061E+01 -0.43377949508E+01  0.10284795997E+02  0.51100000000E-03 0.  1.
        -12    1    3    3    0    0 -0.74233505389E+00 -0.40228536041E+02  0.15571578733E+02  0.43143484300E+02  0.00000000000E+00 0.  1.
</event>
<event>
 7    1  0.2284751E-015  0.9000779E+02  0.7816164E-02  0.1186339E+00
        -11   -1    0    0    0    0  0.00000000000E+00  0.00000000000E+00  0.45593999997E+02  0.45594000000E+02  0.51100000000E-03 0.  1.
         11   -1    0    0    0    0 -0.00000000000E+00 -0.00000000000E+00 -0.45593999997E+02  0.45594000000E+02  0.51100000000E-03 0. -1.
    9900012    2    1    2    0    0  0.85085630422E+00  0.71951616930E+00 -0.38889588241E+00  0.90007788165E+02  0.90000050169E+02 0.  0.
         12    1    1    2    0    0 -0.85085630422E+00 -0.71951616930E+00  0.38889588241E+00  0.11802118351E+01  0.00000000000E+00 0. -1.
         11    1    3    3    0    0  0.15395954395E+02 -0.10328405479E+02  0.35579881215E+02  0.40120310555E+02  0.51100000000E-03 0. -1.
        -11    1    3    3    0    0 -0.47168492729E+01 -0.57055414268E+01  0.16189458771E+01  0.75777870154E+01  0.51100000000E-03 0.  1.
        -12    1    3    3    0    0 -0.98282488176E+01  0.16753463075E+02 -0.37587722975E+02  0.42309690595E+02  0.00000000000E+00 0.  1.
</event>
<event>
 7    1  0.2284751E-015  0.9000781E+02  0.7816164E-02  0.1186339E+00
        -11   -1    0    0    0    0  0.00000000000E+00  0.00000000000E+00  0.45593999997E+02  0.45594000000E+02  0.51100000000E-03 0.  1.
         11   -1    0    0    0    0 -0.00000000000E+00 -0.00000000000E+00 -0.45593999997E+02  0.45594000000E+02  0.51100000000E-03 0. -1.
    9900012    2    1    2    0    0  0.16794640890E+00 -0.47604788959E+00  0.10667826797E+01  0.90007808119E+02  0.90000070387E+02 0.  0.
         12    1    1    2    0    0 -0.16794640890E+00  0.47604788959E+00 -0.10667826797E+01  0.11801918806E+01  0.00000000000E+00 0. -1.
         11    1    3    3    0    0  0.42691928552E+01  0.94729911375E+01  0.49084701888E+01  0.11491590342E+02  0.51100000000E-03 0. -1.
        -11    1    3    3    0    0  0.35126077667E+02  0.41460588319E+01  0.55119871985E+01  0.35796831414E+02  0.51100000000E-03 0.  1.
         12    1    3    3    0    0 -0.39227324114E+02 -0.14095097859E+02 -0.93536747076E+01  0.42719386364E+02  0.00000000000E+00 0. -1.
</event>
<event>
 7    1  0.2284751E-015  0.9000772E+02  0.7816164E-02  0.1186339E+00
        -11   -1    0    0    0    0  0.00000000000E+00  0.00000000000E+00  0.45593999997E+02  0.45594000000E+02  0.51100000000E-03 0. -1.
         11   -1    0    0    0    0 -0.00000000000E+00 -0.00000000000E+00 -0.45593999997E+02  0.45594000000E+02  0.51100000000E-03 0.  1.
    9900012    2    1    2    0    0 -0.52802456621E+00 -0.52819234138E+00 -0.91392613213E+00  0.90007721191E+02  0.89999982311E+02 0.  0.
         12    1    1    2    0    0  0.52802456621E+00  0.52819234138E+00  0.91392613213E+00  0.11802788090E+01  0.00000000000E+00 0. -1.
         11    1    3    3    0    0 -0.47829885199E+00 -0.38142466563E+02  0.11914631438E+02  0.39962919912E+02  0.51100000000E-03 0. -1.
        -11    1    3    3    0    0 -0.35293299730E+00  0.26905198169E+01  0.86351595930E+01  0.90514882779E+01  0.51100000000E-03 0.  1.
        -12    1    3    3    0    0  0.30320728308E+00  0.34923754405E+02 -0.21463717163E+02  0.40993313001E+02  0.00000000000E+00 0.  1.
</event>
<event>
 7    1  0.2284751E-015  0.9000804E+02  0.7816164E-02  0.1186338E+00
        -11   -1    0    0    0    0  0.00000000000E+00  0.00000000000E+00  0.45593999997E+02  0.45594000000E+02  0.51100000000E-03 0. -1.
         11   -1    0    0    0    0 -0.00000000000E+00 -0.00000000000E+00 -0.45593999997E+02  0.45594000000E+02  0.51100000000E-03 0.  1.
    9900012    2    1    2    0    0  0.70008558143E+00  0.94934596414E+00 -0.30482894362E-01  0.90008039497E+02  0.90000304818E+02 0.  0.
         12    1    1    2    0    0 -0.70008558143E+00 -0.94934596414E+00  0.30482894362E-01  0.11799605026E+01  0.00000000000E+00 0. -1.
         11    1    3    3    0    0 -0.47972697190E+01  0.60560700416E+01 -0.28810895792E+01  0.82456326943E+01  0.51100000000E-03 0. -1.
        -11    1    3    3    0    0 -0.21174882073E+02  0.22145033298E+02 -0.20669874945E+02  0.36959732969E+02  0.51100000000E-03 0.  1.
         12    1    3    3    0    0  0.26672237374E+02 -0.27251757376E+02  0.23520481630E+02  0.44802673834E+02  0.00000000000E+00 0. -1.
</event>
<event>
 7    1  0.2284751E-015  0.9000782E+02  0.7816164E-02  0.1186339E+00
        -11   -1    0    0    0    0  0.00000000000E+00  0.00000000000E+00  0.45593999997E+02  0.45594000000E+02  0.51100000000E-03 0.  1.
         11   -1    0    0    0    0 -0.00000000000E+00 -0.00000000000E+00 -0.45593999997E+02  0.45594000000E+02  0.51100000000E-03 0. -1.
    9900012    2    1    2    0    0 -0.31926955279E+00  0.17827815317E+00  0.11221037954E+01  0.90007816508E+02  0.90000078886E+02 0.  0.
         12    1    1    2    0    0  0.31926955279E+00 -0.17827815317E+00 -0.11221037954E+01  0.11801834920E+01  0.00000000000E+00 0. -1.
         11    1    3    3    0    0 -0.99548936333E+01  0.40379251463E+02  0.15035496774E+01  0.41615436053E+02  0.51100000000E-03 0. -1.
        -11    1    3    3    0    0 -0.76637110129E+01 -0.51347049295E+01  0.91124381930E+00  0.92697371463E+01  0.51100000000E-03 0.  1.
        -12    1    3    3    0    0  0.17299335093E+02 -0.35066268381E+02 -0.12926897013E+01  0.39122643309E+02  0.00000000000E+00 0.  1.
</event>
<event>
 7    1  0.2284751E-015  0.9000771E+02  0.7816164E-02  0.1186339E+00
        -11   -1    0    0    0    0  0.00000000000E+00  0.00000000000E+00  0.45593999997E+02  0.45594000000E+02  0.51100000000E-03 0.  1.
         11   -1    0    0    0    0 -0.00000000000E+00 -0.00000000000E+00 -0.45593999997E+02  0.45594000000E+02  0.51100000000E-03 0. -1.
    9900012    2    1    2    0    0  0.86241281774E+00 -0.24157587930E+00  0.76875227394E+00  0.90007705616E+02  0.89999966530E+02 0.  0.
         12    1    1    2    0    0 -0.86241281774E+00  0.24157587930E+00 -0.76875227394E+00  0.11802943838E+01  0.00000000000E+00 0. -1.
         11    1    3    3    0    0  0.52146191445E+01 -0.22390050193E+02 -0.34901335700E+02  0.41792461453E+02  0.51100000000E-03 0. -1.
        -11    1    3    3    0    0 -0.10021945559E+02  0.74815223430E+01  0.44785408429E+01  0.13284197292E+02  0.51100000000E-03 0.  1.
        -12    1    3    3    0    0  0.56697392324E+01  0.14666951970E+02  0.31191547131E+02  0.34931046870E+02  0.00000000000E+00 0.  1.
</event>
<event>
 7    1  0.2284751E-015  0.9000796E+02  0.7816164E-02  0.1186339E+00
        -11   -1    0    0    0    0  0.00000000000E+00  0.00000000000E+00  0.45593999997E+02  0.45594000000E+02  0.51100000000E-03 0.  1.
         11   -1    0    0    0    0 -0.00000000000E+00 -0.00000000000E+00 -0.45593999997E+02  0.45594000000E+02  0.51100000000E-03 0. -1.
    9900012    2    1    2    0    0  0.23488553323E+00  0.37796373591E+00  0.10929135969E+01  0.90007962742E+02  0.90000227050E+02 0.  0.
         12    1    1    2    0    0 -0.23488553323E+00 -0.37796373591E+00 -0.10929135969E+01  0.11800372577E+01  0.00000000000E+00 0. -1.
         11    1    3    3    0    0  0.41326713553E+02 -0.95484681684E+01 -0.42697197628E+01  0.42629813565E+02  0.51100000000E-03 0. -1.
        -11    1    3    3    0    0 -0.82609002364E+01  0.84160243635E+00 -0.72799809156E+01  0.11043047123E+02  0.51100000000E-03 0.  1.
        -12    1    3    3    0    0 -0.32830927783E+02  0.90848294680E+01  0.12642614275E+02  0.36335102054E+02  0.00000000000E+00 0.  1.
</event>
<event>
 7    1  0.2284751E-015  0.9000774E+02  0.7816164E-02  0.1186339E+00
        -11   -1    0    0    0    0  0.00000000000E+00  0.00000000000E+00  0.45593999997E+02  0.45594000000E+02  0.51100000000E-03 0.  1.
         11   -1    0    0    0    0 -0.00000000000E+00 -0.00000000000E+00 -0.45593999997E+02  0.45594000000E+02  0.51100000000E-03 0. -1.
    9900012    2    1    2    0    0  0.11393222949E+01  0.23045466794E+00  0.20459721156E+00  0.90007735341E+02  0.89999996648E+02 0.  0.
         12    1    1    2    0    0 -0.11393222949E+01 -0.23045466794E+00 -0.20459721156E+00  0.11802646587E+01  0.00000000000E+00 0. -1.
         11    1    3    3    0    0 -0.94370318037E+01 -0.13575304990E+01  0.40661258642E+01  0.10365029577E+02  0.51100000000E-03 0. -1.
        -11    1    3    3    0    0  0.11498868533E+02  0.20920706786E+02  0.31384566286E+02  0.39432105589E+02  0.51100000000E-03 0.  1.
         12    1    3    3    0    0 -0.92251443421E+00 -0.19332721619E+02 -0.35246094939E+02  0.40210600176E+02  0.00000000000E+00 0. -1.
</event>
<event>
 7    1  0.2284751E-015  0.9000777E+02  0.7816164E-02  0.1186339E+00
        -11   -1    0    0    0    0  0.00000000000E+00  0.00000000000E+00  0.45593999997E+02  0.45594000000E+02  0.51100000000E-03 0. -1.
         11   -1    0    0    0    0 -0.00000000000E+00 -0.00000000000E+00 -0.45593999997E+02  0.45594000000E+02  0.51100000000E-03 0.  1.
    9900012    2    1    2    0    0 -0.56513744556E+00 -0.10709931442E+00 -0.10305751407E+01  0.90007773023E+02  0.90000034827E+02 0.  0.
         12    1    1    2    0    0  0.56513744556E+00  0.10709931442E+00  0.10305751407E+01  0.11802269765E+01  0.00000000000E+00 0. -1.
         11    1    3    3    0    0 -0.46587984429E+01 -0.25587425431E+01  0.32666384769E+01  0.62387894285E+01  0.51100000000E-03 0. -1.
        -11    1    3    3    0    0 -0.65324389951E+01  0.29748111816E+02 -0.31483992474E+02  0.43804847885E+02  0.51100000000E-03 0.  1.
         12    1    3    3    0    0  0.10626099992E+02 -0.27296468588E+02  0.27186778857E+02  0.39964135710E+02  0.00000000000E+00 0. -1.
</event>
<event>
 7    1  0.2284751E-015  0.9000772E+02  0.7816164E-02  0.1186339E+00
        -11   -1    0    0    0    0  0.00000000000E+00  0.00000000000E+00  0.45593999997E+02  0.45594000000E+02  0.51100000000E-03 0. -1.
         11   -1    0    0    0    0 -0.00000000000E+00 -0.00000000000E+00 -0.45593999997E+02  0.45594000000E+02  0.51100000000E-03 0.  1.
    9900012    2    1    2    0    0  0.49406617941E+00 -0.10691698762E+01  0.76342928387E-01  0.90007722975E+02  0.89999984118E+02 0.  0.
         12    1    1    2    0    0 -0.49406617941E+00  0.10691698762E+01 -0.76342928387E-01  0.11802770253E+01  0.00000000000E+00 0. -1.
         11    1    3    3    0    0  0.95045046680E+01  0.21359167964E+01 -0.96718155676E+00  0.97894427814E+01  0.51100000000E-03 0. -1.
        -11    1    3    3    0    0  0.12521850909E+02 -0.36045453534E+02  0.10987456664E+02  0.39708886598E+02  0.51100000000E-03 0.  1.
         12    1    3    3    0    0 -0.21532289398E+02  0.32840366861E+02 -0.99439321791E+01  0.40509393595E+02  0.00000000000E+00 0. -1.
</event>
<event>
 7    1  0.2284751E-015  0.9000773E+02  0.7816164E-02  0.1186339E+00
        -11   -1    0    0    0    0  0.00000000000E+00  0.00000000000E+00  0.45593999997E+02  0.45594000000E+02  0.51100000000E-03 0.  1.
         11   -1    0    0    0    0 -0.00000000000E+00 -0.00000000000E+00 -0.45593999997E+02  0.45594000000E+02  0.51100000000E-03 0. -1.
    9900012    2    1    2    0    0  0.87781902191E+00  0.77989590532E+00  0.11931204802E+00  0.90007729174E+02  0.89999990399E+02 0.  0.
         12    1    1    2    0    0 -0.87781902191E+00 -0.77989590532E+00 -0.11931204802E+00  0.11802708262E+01  0.00000000000E+00 0. -1.
         11    1    3    3    0    0 -0.91449401902E+01 -0.29361545317E+02  0.28000224931E+02  0.41590177578E+02  0.51100000000E-03 0. -1.
        -11    1    3    3    0    0  0.57952880058E+01 -0.18142114361E+01 -0.96029565168E+01  0.11361932068E+02  0.51100000000E-03 0.  1.
        -12    1    3    3    0    0  0.42274712063E+01  0.31955652659E+02 -0.18277956366E+02  0.37055619528E+02  0.00000000000E+00 0.  1.
</event>
<event>
 7    1  0.2451276E-015  0.9000774E+02  0.7816164E-02  0.1186339E+00
        -11   -1    0    0    0    0  0.00000000000E+00  0.00000000000E+00  0.45593999997E+02  0.45594000000E+02  0.51100000000E-03 0.  1.
         11   -1    0    0    0    0 -0.00000000000E+00 -0.00000000000E+00 -0.45593999997E+02  0.45594000000E+02  0.51100000000E-03 0. -1.
    9900012    2    1    2    0    0 -0.73130093017E+00  0.45806599874E+00  0.80522959771E+00  0.90007737226E+02  0.89999998558E+02 0.  0.
         12    1    1    2    0    0  0.73130093017E+00 -0.45806599874E+00 -0.80522959771E+00  0.11802627736E+01  0.00000000000E+00 0. -1.
         11    1    3    3    0    0 -0.88895928695E+01 -0.49332778273E+00 -0.35131695602E+02  0.36242299456E+02  0.51100000000E-03 0. -1.
        -11    1    3    3    0    0 -0.57197065817E+01  0.40799664166E+01 -0.61511947057E+01  0.93380065276E+01  0.51100000000E-03 0.  1.
        -12    1    3    3    0    0  0.13877998521E+02 -0.31285726352E+01  0.42088119906E+02  0.44427431243E+02  0.00000000000E+00 0.  1.
</event>
<event>
 7    1  0.2284751E-015  0.9000742E+02  0.7816164E-02  0.1186340E+00
        -11   -1    0    0    0    0  0.00000000000E+00  0.00000000000E+00  0.45593999997E+02  0.45594000000E+02  0.51100000000E-03 0. -1.
         11   -1    0    0    0    0 -0.00000000000E+00 -0.00000000000E+00 -0.45593999997E+02  0.45594000000E+02  0.51100000000E-03 0.  1.
    9900012    2    1    2    0    0  0.20505381952E+00 -0.93566006690E+00 -0.69011479130E+00  0.90007421644E+02  0.89999678809E+02 0.  0.
         12    1    1    2    0    0 -0.20505381952E+00  0.93566006690E+00  0.69011479130E+00  0.11805783561E+01  0.00000000000E+00 0. -1.
         11    1    3    3    0    0 -0.59844346919E+01  0.60722734856E+01 -0.23114791744E+01  0.88333968608E+01  0.51100000000E-03 0. -1.
        -11    1    3    3    0    0 -0.51613899169E+01 -0.30823221705E+02 -0.27678495032E+02  0.41746976293E+02  0.51100000000E-03 0.  1.
         12    1    3    3    0    0  0.11350878428E+02  0.23815288153E+02  0.29299859415E+02  0.39427048490E+02  0.00000000000E+00 0. -1.
</event>
<event>
 7    1  0.2284751E-015  0.9000771E+02  0.7816164E-02  0.1186339E+00
        -11   -1    0    0    0    0  0.00000000000E+00  0.00000000000E+00  0.45593999997E+02  0.45594000000E+02  0.51100000000E-03 0.  1.
         11   -1    0    0    0    0 -0.00000000000E+00 -0.00000000000E+00 -0.45593999997E+02  0.45594000000E+02  0.51100000000E-03 0. -1.
    9900012    2    1    2    0    0  0.67370180490E-01 -0.93541081434E+00 -0.71662261404E+00  0.90007711856E+02  0.89999972852E+02 0.  0.
         12    1    1    2    0    0 -0.67370180490E-01  0.93541081434E+00  0.71662261404E+00  0.11802881444E+01  0.00000000000E+00 0. -1.
         11    1    3    3    0    0  0.41643134338E+01 -0.48991849700E+01  0.50238916884E+01  0.81598411568E+01  0.51100000000E-03 0. -1.
        -11    1    3    3    0    0 -0.13591084637E+02 -0.34144421393E+02  0.12130055626E+02  0.38700094879E+02  0.51100000000E-03 0.  1.
         12    1    3    3    0    0  0.94941413837E+01  0.38108195549E+02 -0.17870569929E+02  0.43147775820E+02  0.00000000000E+00 0. -1.
</event>
<event>
 7    1  0.2284751E-015  0.9000772E+02  0.7816164E-02  0.1186339E+00
        -11   -1    0    0    0    0  0.00000000000E+00  0.00000000000E+00  0.45593999997E+02  0.45594000000E+02  0.51100000000E-03 0.  1.
         11   -1    0    0    0    0 -0.00000000000E+00 -0.00000000000E+00 -0.45593999997E+02  0.45594000000E+02  0.51100000000E-03 0. -1.
    9900012    2    1    2    0    0  0.53244132808E+00 -0.60017429130E+00  0.86564904101E+00  0.90007724096E+02  0.89999985254E+02 0.  0.
         12    1    1    2    0    0 -0.53244132808E+00  0.60017429130E+00 -0.86564904101E+00  0.11802759042E+01  0.00000000000E+00 0. -1.
         11    1    3    3    0    0 -0.12778092841E+02  0.37778466771E+02  0.11451773590E+02  0.41492593638E+02  0.51100000000E-03 0. -1.
        -11    1    3    3    0    0  0.81747590190E+01 -0.22123101794E+00 -0.50664385106E+01  0.96200014358E+01  0.51100000000E-03 0.  1.
        -12    1    3    3    0    0  0.51357751502E+01 -0.38157410044E+02 -0.55196860387E+01  0.38895129022E+02  0.00000000000E+00 0.  1.
</event>
<event>
 7    1  0.2284751E-015  0.9000773E+02  0.7816164E-02  0.1186339E+00
        -11   -1    0    0    0    0  0.00000000000E+00  0.00000000000E+00  0.45593999997E+02  0.45594000000E+02  0.51100000000E-03 0.  1.
         11   -1    0    0    0    0 -0.00000000000E+00 -0.00000000000E+00 -0.45593999997E+02  0.45594000000E+02  0.51100000000E-03 0. -1.
    9900012    2    1    2    0    0  0.51958557235E+00  0.48446426761E+00  0.94253047278E+00  0.90007729486E+02  0.89999990715E+02 0.  0.
         12    1    1    2    0    0 -0.51958557235E+00 -0.48446426761E+00 -0.94253047278E+00  0.11802705138E+01  0.00000000000E+00 0. -1.
         11    1    3    3    0    0 -0.18430675368E+01 -0.43496233009E+01  0.86172744183E+01  0.98271836997E+01  0.51100000000E-03 0. -1.
        -11    1    3    3    0    0 -0.19926071777E+02 -0.28424943240E+02 -0.17616628384E+02  0.38927770685E+02  0.51100000000E-03 0.  1.
         12    1    3    3    0    0  0.22288724886E+02  0.33259030808E+02  0.99418844385E+01  0.41252775101E+02  0.00000000000E+00 0. -1.
</event>
<event>
 7    1  0.2284751E-015  0.9000776E+02  0.7816164E-02  0.1186339E+00
        -11   -1    0    0    0    0  0.00000000000E+00  0.00000000000E+00  0.45593999997E+02  0.45594000000E+02  0.51100000000E-03 0. -1.
         11   -1    0    0    0    0 -0.00000000000E+00 -0.00000000000E+00 -0.45593999997E+02  0.45594000000E+02  0.51100000000E-03 0.  1.
    9900012    2    1    2    0    0 -0.99260730610E+00 -0.59869940182E+00  0.22195751842E+00  0.90007756221E+02  0.90000017803E+02 0.  0.
         12    1    1    2    0    0  0.99260730610E+00  0.59869940182E+00 -0.22195751842E+00  0.11802437790E+01  0.00000000000E+00 0. -1.
         11    1    3    3    0    0 -0.23735261405E+02 -0.11204061847E+02  0.11156903969E+02  0.28519644849E+02  0.51100000000E-03 0. -1.
        -11    1    3    3    0    0 -0.18378185354E+02  0.45510464648E+01 -0.39548552576E+01  0.19341938920E+02  0.51100000000E-03 0.  1.
        -12    1    3    3    0    0  0.41120839453E+02  0.60543159808E+01 -0.69800911930E+01  0.42146172452E+02  0.00000000000E+00 0.  1.
</event>
<event>
 7    1  0.2284751E-015  0.9000649E+02  0.7816164E-02  0.1186342E+00
        -11   -1    0    0    0    0  0.00000000000E+00  0.00000000000E+00  0.45593999997E+02  0.45594000000E+02  0.51100000000E-03 0.  1.
         11   -1    0    0    0    0 -0.00000000000E+00 -0.00000000000E+00 -0.45593999997E+02  0.45594000000E+02  0.51100000000E-03 0. -1.
    9900012    2    1    2    0    0  0.74156666844E+00  0.42138757310E+00  0.81760782479E+00  0.90006487763E+02  0.89998732593E+02 0.  0.
         12    1    1    2    0    0 -0.74156666844E+00 -0.42138757310E+00 -0.81760782479E+00  0.11815122368E+01  0.00000000000E+00 0. -1.
         11    1    3    3    0    0 -0.22604422975E+02 -0.26434431988E+02 -0.88628572044E+01  0.35892748162E+02  0.51100000000E-03 0. -1.
        -11    1    3    3    0    0 -0.60422905870E+01 -0.27451807496E+01 -0.65788112033E+01  0.93448408224E+01  0.51100000000E-03 0.  1.
        -12    1    3    3    0    0  0.29388280230E+02  0.29601000310E+02  0.16259276232E+02  0.44768898779E+02  0.00000000000E+00 0.  1.
</event>
<event>
 7    1  0.2284751E-015  0.9000765E+02  0.7816164E-02  0.1186339E+00
        -11   -1    0    0    0    0  0.00000000000E+00  0.00000000000E+00  0.45593999997E+02  0.45594000000E+02  0.51100000000E-03 0. -1.
         11   -1    0    0    0    0 -0.00000000000E+00 -0.00000000000E+00 -0.45593999997E+02  0.45594000000E+02  0.51100000000E-03 0.  1.
    9900012    2    1    2    0    0 -0.81734756217E+00  0.16513298973E-01 -0.85140291572E+00  0.90007654012E+02  0.89999914245E+02 0.  0.
         12    1    1    2    0    0  0.81734756217E+00 -0.16513298973E-01  0.85140291572E+00  0.11803459880E+01  0.00000000000E+00 0. -1.
         11    1    3    3    0    0  0.37863618321E+01  0.67481953254E+01  0.90511687130E+01  0.11907910455E+02  0.51100000000E-03 0. -1.
        -11    1    3    3    0    0 -0.26585403784E+02  0.55443024317E+01 -0.33819313538E+02  0.43373597410E+02  0.51100000000E-03 0.  1.
         12    1    3    3    0    0  0.21981694390E+02 -0.12275984458E+02  0.23916741909E+02  0.34726146147E+02  0.00000000000E+00 0. -1.
</event>
<event>
 7    1  0.2284751E-015  0.9000770E+02  0.7816164E-02  0.1186339E+00
        -11   -1    0    0    0    0  0.00000000000E+00  0.00000000000E+00  0.45593999997E+02  0.45594000000E+02  0.51100000000E-03 0.  1.
         11   -1    0    0    0    0 -0.00000000000E+00 -0.00000000000E+00 -0.45593999997E+02  0.45594000000E+02  0.51100000000E-03 0. -1.
    9900012    2    1    2    0    0 -0.38513161777E+00  0.10962450477E+01  0.20744103344E+00  0.90007698619E+02  0.89999959441E+02 0.  0.
         12    1    1    2    0    0  0.38513161777E+00 -0.10962450477E+01 -0.20744103344E+00  0.11803013810E+01  0.00000000000E+00 0. -1.
         11    1    3    3    0    0  0.14128480575E+02  0.36117867017E+00 -0.38212068577E+02  0.40741951335E+02  0.51100000000E-03 0. -1.
        -11    1    3    3    0    0 -0.87792162954E+00  0.31998947551E+01 -0.36737473238E+01  0.49504032655E+01  0.51100000000E-03 0.  1.
        -12    1    3    3    0    0 -0.13635690563E+02 -0.24648283775E+01  0.42093256935E+02  0.44315344018E+02  0.00000000000E+00 0.  1.
</event>
<event>
 7    1  0.2284751E-015  0.9000773E+02  0.7816164E-02  0.1186339E+00
        -11   -1    0    0    0    0  0.00000000000E+00  0.00000000000E+00  0.45593999997E+02  0.45594000000E+02  0.51100000000E-03 0.  1.
         11   -1    0    0    0    0 -0.00000000000E+00 -0.00000000000E+00 -0.45593999997E+02  0.45594000000E+02  0.51100000000E-03 0. -1.
    9900012    2    1    2    0    0 -0.24421671631E+00  0.17074917685E-01  0.11546053863E+01  0.90007725898E+02  0.89999987080E+02 0.  0.
         12    1    1    2    0    0  0.24421671631E+00 -0.17074917685E-01 -0.11546053863E+01  0.11802741018E+01  0.00000000000E+00 0. -1.
         11    1    3    3    0    0  0.12956296809E+01  0.89928501338E+00 -0.41092493314E+02  0.41122747681E+02  0.51100000000E-03 0. -1.
        -11    1    3    3    0    0 -0.13841678400E+00  0.61837054349E+01  0.16152924837E+00  0.61873632568E+01  0.51100000000E-03 0.  1.
        -12    1    3    3    0    0 -0.14014296132E+01 -0.70659155306E+01  0.42085569452E+02  0.42697614961E+02  0.00000000000E+00 0.  1.
</event>
<event>
 7    1  0.2284751E-015  0.9000771E+02  0.7816164E-02  0.1186339E+00
        -11   -1    0    0    0    0  0.00000000000E+00  0.00000000000E+00  0.45593999997E+02  0.45594000000E+02  0.51100000000E-03 0. -1.
         11   -1    0    0    0    0 -0.00000000000E+00 -0.00000000000E+00 -0.45593999997E+02  0.45594000000E+02  0.51100000000E-03 0.  1.
    9900012    2    1    2    0    0 -0.35051739969E+00  0.11189129980E+01  0.13508851568E+00  0.90007712894E+02  0.89999973905E+02 0.  0.
         12    1    1    2    0    0  0.35051739969E+00 -0.11189129980E+01 -0.13508851568E+00  0.11802871056E+01  0.00000000000E+00 0. -1.
         11    1    3    3    0    0  0.50228195312E+00 -0.51428512653E+01  0.42741752957E+02  0.43052974954E+02  0.51100000000E-03 0. -1.
        -11    1    3    3    0    0 -0.67900235821E+01  0.38536682303E+01 -0.61481770582E+01  0.99375681368E+01  0.51100000000E-03 0.  1.
        -12    1    3    3    0    0  0.59372242292E+01  0.24080960330E+01 -0.36458487383E+02  0.37017169804E+02  0.00000000000E+00 0.  1.
</event>
<event>
 7    1  0.2284751E-015  0.9000786E+02  0.7816164E-02  0.1186339E+00
        -11   -1    0    0    0    0  0.00000000000E+00  0.00000000000E+00  0.45593999997E+02  0.45594000000E+02  0.51100000000E-03 0. -1.
         11   -1    0    0    0    0 -0.00000000000E+00 -0.00000000000E+00 -0.45593999997E+02  0.45594000000E+02  0.51100000000E-03 0.  1.
    9900012    2    1    2    0    0 -0.88418101392E+00  0.30544450122E+00 -0.71948376156E+00  0.90007860478E+02  0.90000123436E+02 0.  0.
         12    1    1    2    0    0  0.88418101392E+00 -0.30544450122E+00  0.71948376156E+00  0.11801395222E+01  0.00000000000E+00 0. -1.
         11    1    3    3    0    0 -0.80731724378E+01 -0.13650125805E+02  0.34764671048E+02  0.38211050771E+02  0.51100000000E-03 0. -1.
        -11    1    3    3    0    0 -0.32745778653E+00 -0.80699678829E+01  0.13873218742E+01  0.81948930730E+01  0.51100000000E-03 0.  1.
        -12    1    3    3    0    0  0.75164492104E+01  0.22025538189E+02 -0.36871476684E+02  0.43601916633E+02  0.00000000000E+00 0.  1.
</event>
<event>
 7    1  0.2284751E-015  0.9000758E+02  0.7816164E-02  0.1186339E+00
        -11   -1    0    0    0    0  0.00000000000E+00  0.00000000000E+00  0.45593999997E+02  0.45594000000E+02  0.51100000000E-03 0. -1.
         11   -1    0    0    0    0 -0.00000000000E+00 -0.00000000000E+00 -0.45593999997E+02  0.45594000000E+02  0.51100000000E-03 0.  1.
    9900012    2    1    2    0    0  0.73056236454E+00  0.87733278246E+00 -0.29992649806E+00  0.90007580547E+02  0.89999839811E+02 0.  0.
         12    1    1    2    0    0 -0.73056236454E+00 -0.87733278246E+00  0.29992649806E+00  0.11804194525E+01  0.00000000000E+00 0. -1.
         11    1    3    3    0    0  0.17510948232E+02  0.19751754093E+01 -0.23292887294E+02  0.29207759665E+02  0.51100000000E-03 0. -1.
        -11    1    3    3    0    0  0.15537949984E+02 -0.21719172180E+01 -0.65487788294E+01  0.17000929931E+02  0.51100000000E-03 0.  1.
        -12    1    3    3    0    0 -0.32318335851E+02  0.10740745912E+01  0.29541739626E+02  0.43798890951E+02  0.00000000000E+00 0.  1.
</event>
<event>
 7    1  0.2284751E-015  0.9000778E+02  0.7816164E-02  0.1186339E+00
        -11   -1    0    0    0    0  0.00000000000E+00  0.00000000000E+00  0.45593999997E+02  0.45594000000E+02  0.51100000000E-03 0. -1.
         11   -1    0    0    0    0 -0.00000000000E+00 -0.00000000000E+00 -0.45593999997E+02  0.45594000000E+02  0.51100000000E-03 0.  1.
    9900012    2    1    2    0    0 -0.33027953829E+00 -0.28948706207E+00 -0.10954563382E+01  0.90007783104E+02  0.90000045041E+02 0.  0.
         12    1    1    2    0    0  0.33027953829E+00  0.28948706207E+00  0.10954563382E+01  0.11802168960E+01  0.00000000000E+00 0. -1.
         11    1    3    3    0    0 -0.53066695830E+01  0.56860748101E+01 -0.56763419817E+01  0.96287614657E+01  0.51100000000E-03 0. -1.
        -11    1    3    3    0    0  0.20624196287E+02  0.63479119674E+01 -0.32076741843E+02  0.38659679594E+02  0.51100000000E-03 0.  1.
         12    1    3    3    0    0 -0.15647806243E+02 -0.12323473840E+02  0.36657627486E+02  0.41719342044E+02  0.00000000000E+00 0. -1.
</event>
<event>
 7    1  0.2284751E-015  0.9000764E+02  0.7816164E-02  0.1186339E+00
        -11   -1    0    0    0    0  0.00000000000E+00  0.00000000000E+00  0.45593999997E+02  0.45594000000E+02  0.51100000000E-03 0. -1.
         11   -1    0    0    0    0 -0.00000000000E+00 -0.00000000000E+00 -0.45593999997E+02  0.45594000000E+02  0.51100000000E-03 0.  1.
    9900012    2    1    2    0    0  0.44433335020E+00 -0.46560075818E+00  0.98945648161E+00  0.90007643985E+02  0.89999904086E+02 0.  0.
         12    1    1    2    0    0 -0.44433335020E+00  0.46560075818E+00 -0.98945648161E+00  0.11803560146E+01  0.00000000000E+00 0. -1.
         11    1    3    3    0    0  0.13639245719E+02  0.15484138569E+02  0.35814134583E+02  0.41333277237E+02  0.51100000000E-03 0. -1.
        -11    1    3    3    0    0  0.71003539288E+01  0.14804003688E+01 -0.75517699418E+01  0.10470713475E+02  0.51100000000E-03 0.  1.
        -12    1    3    3    0    0 -0.20295266297E+02 -0.17430139696E+02 -0.27272908160E+02  0.38203653273E+02  0.00000000000E+00 0.  1.
</event>
<event>
 7    1  0.2284751E-015  0.9000777E+02  0.7816164E-02  0.1186339E+00
        -11   -1    0    0    0    0  0.00000000000E+00  0.00000000000E+00  0.45593999997E+02  0.45594000000E+02  0.51100000000E-03 0. -1.
         11   -1    0    0    0    0 -0.00000000000E+00 -0.00000000000E+00 -0.45593999997E+02  0.45594000000E+02  0.51100000000E-03 0.  1.
    9900012    2    1    2    0    0 -0.39637773454E+00 -0.11025253824E+01 -0.14237348659E+00  0.90007767931E+02  0.90000029668E+02 0.  0.
         12    1    1    2    0    0  0.39637773454E+00  0.11025253824E+01  0.14237348659E+00  0.11802320691E+01  0.00000000000E+00 0. -1.
         11    1    3    3    0    0  0.37030727607E+02 -0.32384784484E+00  0.25376949882E+01  0.37118991913E+02  0.51100000000E-03 0. -1.
        -11    1    3    3    0    0  0.71605937434E+01 -0.30554549700E+01 -0.27086432906E+01  0.82429761960E+01  0.51100000000E-03 0.  1.
        -12    1    3    3    0    0 -0.44587699085E+02  0.22767774325E+01  0.28574815824E-01  0.44645799822E+02  0.00000000000E+00 0.  1.
</event>
<event>
 7    1  0.2284751E-015  0.9000773E+02  0.7816164E-02  0.1186339E+00
        -11   -1    0    0    0    0  0.00000000000E+00  0.00000000000E+00  0.45593999997E+02  0.45594000000E+02  0.51100000000E-03 0.  1.
         11   -1    0    0    0    0 -0.00000000000E+00 -0.00000000000E+00 -0.45593999997E+02  0.45594000000E+02  0.51100000000E-03 0. -1.
    9900012    2    1    2    0    0 -0.22666741511E+00 -0.78205440286E+00  0.85443582031E+00  0.90007725550E+02  0.89999986727E+02 0.  0.
         12    1    1    2    0    0  0.22666741511E+00  0.78205440286E+00 -0.85443582031E+00  0.11802744499E+01  0.00000000000E+00 0. -1.
         11    1    3    3    0    0  0.73737988565E+01 -0.48139401041E+01  0.27319998301E+01  0.92201275606E+01  0.51100000000E-03 0. -1.
        -11    1    3    3    0    0 -0.96329511255E+01 -0.49535544913E+01  0.38178719893E+02  0.39685590615E+02  0.51100000000E-03 0.  1.
         12    1    3    3    0    0  0.20324848539E+01  0.89854401926E+01 -0.40056283903E+02  0.41102007375E+02  0.00000000000E+00 0. -1.
</event>
<event>
 7    1  0.2284751E-015  0.9000770E+02  0.7816164E-02  0.1186339E+00
        -11   -1    0    0    0    0  0.00000000000E+00  0.00000000000E+00  0.45593999997E+02  0.45594000000E+02  0.51100000000E-03 0.  1.
         11   -1    0    0    0    0 -0.00000000000E+00 -0.00000000000E+00 -0.45593999997E+02  0.45594000000E+02  0.51100000000E-03 0. -1.
    9900012    2    1    2    0    0  0.36721872889E+00  0.51605383575E+00  0.99597115515E+00  0.90007695083E+02  0.89999955858E+02 0.  0.
         12    1    1    2    0    0 -0.36721872889E+00 -0.51605383575E+00 -0.99597115515E+00  0.11803049174E+01  0.00000000000E+00 0. -1.
         11    1    3    3    0    0 -0.56843173181E+01  0.38665142724E+01  0.98143552109E+01  0.11982610920E+02  0.51100000000E-03 0. -1.
        -11    1    3    3    0    0  0.25223628684E+02  0.28852199653E+01  0.26913167810E+02  0.36998304556E+02  0.51100000000E-03 0.  1.
         12    1    3    3    0    0 -0.19172092637E+02 -0.62356804020E+01 -0.35731551866E+02  0.41026779606E+02  0.00000000000E+00 0. -1.
</event>
<event>
 7    1  0.2284751E-015  0.9000784E+02  0.7816164E-02  0.1186339E+00
        -11   -1    0    0    0    0  0.00000000000E+00  0.00000000000E+00  0.45593999997E+02  0.45594000000E+02  0.51100000000E-03 0.  1.
         11   -1    0    0    0    0 -0.00000000000E+00 -0.00000000000E+00 -0.45593999997E+02  0.45594000000E+02  0.51100000000E-03 0. -1.
    9900012    2    1    2    0    0 -0.11240218348E+00 -0.88683405262E+00  0.77049345349E+00  0.90007843633E+02  0.90000106369E+02 0.  0.
         12    1    1    2    0    0  0.11240218348E+00  0.88683405262E+00 -0.77049345349E+00  0.11801563666E+01  0.00000000000E+00 0. -1.
         11    1    3    3    0    0  0.18484080420E+01 -0.18206996905E+02  0.33668548964E+02  0.38320784676E+02  0.51100000000E-03 0. -1.
        -11    1    3    3    0    0  0.62537988697E+01  0.32162200871E+01  0.61644594605E+01  0.93517181658E+01  0.51100000000E-03 0.  1.
        -12    1    3    3    0    0 -0.82146090952E+01  0.14103942766E+02 -0.39062514971E+02  0.42335340792E+02  0.00000000000E+00 0.  1.
</event>
<event>
 7    1  0.2284751E-015  0.9000727E+02  0.7816164E-02  0.1186340E+00
        -11   -1    0    0    0    0  0.00000000000E+00  0.00000000000E+00  0.45593999997E+02  0.45594000000E+02  0.51100000000E-03 0. -1.
         11   -1    0    0    0    0 -0.00000000000E+00 -0.00000000000E+00 -0.45593999997E+02  0.45594000000E+02  0.51100000000E-03 0.  1.
    9900012    2    1    2    0    0  0.88143670691E+00  0.47770768681E+00 -0.62369294273E+00  0.90007267944E+02  0.89999523079E+02 0.  0.
         12    1    1    2    0    0 -0.88143670691E+00 -0.47770768681E+00  0.62369294273E+00  0.11807320564E+01  0.00000000000E+00 0. -1.
         11    1    3    3    0    0  0.77666962634E+00 -0.71296737045E+00  0.85026599897E+01  0.85677748186E+01  0.51100000000E-03 0. -1.
        -11    1    3    3    0    0 -0.35667757271E+02 -0.15322863749E+02  0.59110802217E+01  0.39267288318E+02  0.51100000000E-03 0.  1.
         12    1    3    3    0    0  0.35772524351E+02  0.16513538807E+02 -0.15037433154E+02  0.42172204807E+02  0.00000000000E+00 0. -1.
</event>
<event>
 7    1  0.2284751E-015  0.9000759E+02  0.7816164E-02  0.1186339E+00
        -11   -1    0    0    0    0  0.00000000000E+00  0.00000000000E+00  0.45593999997E+02  0.45594000000E+02  0.51100000000E-03 0. -1.
         11   -1    0    0    0    0 -0.00000000000E+00 -0.00000000000E+00 -0.45593999997E+02  0.45594000000E+02  0.51100000000E-03 0.  1.
    9900012    2    1    2    0    0  0.10458028619E+01 -0.14442360188E+00 -0.52802799392E+00  0.90007586782E+02  0.89999846127E+02 0.  0.
         12    1    1    2    0    0 -0.10458028619E+01  0.14442360188E+00  0.52802799392E+00  0.11804132180E+01  0.00000000000E+00 0. -1.
         11    1    3    3    0    0  0.76796741455E-01  0.20652745617E+02 -0.16355287007E+02  0.26344586021E+02  0.51100000000E-03 0. -1.
        -11    1    3    3    0    0  0.12860342783E+02 -0.33825995750E+02 -0.48188012036E+01  0.36507632768E+02  0.51100000000E-03 0.  1.
         12    1    3    3    0    0 -0.11891336662E+02  0.13028826531E+02  0.20646060217E+02  0.27155367994E+02  0.00000000000E+00 0. -1.
</event>
<event>
 7    1  0.2284751E-015  0.9000789E+02  0.7816164E-02  0.1186339E+00
        -11   -1    0    0    0    0  0.00000000000E+00  0.00000000000E+00  0.45593999997E+02  0.45594000000E+02  0.51100000000E-03 0.  1.
         11   -1    0    0    0    0 -0.00000000000E+00 -0.00000000000E+00 -0.45593999997E+02  0.45594000000E+02  0.51100000000E-03 0. -1.
    9900012    2    1    2    0    0  0.95617522644E+00 -0.66446652030E+00  0.19205292179E+00  0.90007885114E+02  0.90000148397E+02 0.  0.
         12    1    1    2    0    0 -0.95617522644E+00  0.66446652030E+00 -0.19205292179E+00  0.11801148864E+01  0.00000000000E+00 0. -1.
         11    1    3    3    0    0 -0.14636836336E+01  0.76519885685E+01 -0.22795479613E+01  0.81173664449E+01  0.51100000000E-03 0. -1.
        -11    1    3    3    0    0 -0.14721336747E+02 -0.22772985369E+01  0.38640444112E+02  0.41412410768E+02  0.51100000000E-03 0.  1.
         12    1    3    3    0    0  0.17141195607E+02 -0.60391565520E+01 -0.36168843228E+02  0.40478107900E+02  0.00000000000E+00 0. -1.
</event>
<event>
 7    1  0.2284751E-015  0.9000769E+02  0.7816164E-02  0.1186339E+00
        -11   -1    0    0    0    0  0.00000000000E+00  0.00000000000E+00  0.45593999997E+02  0.45594000000E+02  0.51100000000E-03 0. -1.
         11   -1    0    0    0    0 -0.00000000000E+00 -0.00000000000E+00 -0.45593999997E+02  0.45594000000E+02  0.51100000000E-03 0.  1.
    9900012    2    1    2    0    0 -0.91627797745E+00 -0.54097698714E+00 -0.51079733652E+00  0.90007688451E+02  0.89999949139E+02 0.  0.
         12    1    1    2    0    0  0.91627797745E+00  0.54097698714E+00  0.51079733652E+00  0.11803115485E+01  0.00000000000E+00 0. -1.
         11    1    3    3    0    0 -0.65086040556E+01 -0.64672033765E+01 -0.34626418051E+01  0.98069635870E+01  0.51100000000E-03 0. -1.
        -11    1    3    3    0    0 -0.17643761270E+02  0.28840094631E+02 -0.20928710392E+02  0.39762599123E+02  0.51100000000E-03 0.  1.
         12    1    3    3    0    0  0.23236087348E+02 -0.22913868242E+02  0.23880554860E+02  0.40438125742E+02  0.00000000000E+00 0. -1.
</event>
<event>
 7    1  0.2284751E-015  0.9000769E+02  0.7816164E-02  0.1186339E+00
        -11   -1    0    0    0    0  0.00000000000E+00  0.00000000000E+00  0.45593999997E+02  0.45594000000E+02  0.51100000000E-03 0. -1.
         11   -1    0    0    0    0 -0.00000000000E+00 -0.00000000000E+00 -0.45593999997E+02  0.45594000000E+02  0.51100000000E-03 0.  1.
    9900012    2    1    2    0    0  0.11618241377E+01 -0.51716650518E-01 -0.20155051592E+00  0.90007689639E+02  0.89999950342E+02 0.  0.
         12    1    1    2    0    0 -0.11618241377E+01  0.51716650518E-01  0.20155051592E+00  0.11803103614E+01  0.00000000000E+00 0. -1.
         11    1    3    3    0    0 -0.36678078396E+02  0.15579413270E+01  0.21294990297E+02  0.42440372619E+02  0.51100000000E-03 0. -1.
        -11    1    3    3    0    0  0.25269547658E+01 -0.61181108398E+01 -0.51865852135E+01  0.84093666274E+01  0.51100000000E-03 0.  1.
        -12    1    3    3    0    0  0.35312947768E+02  0.45084528622E+01 -0.16309955599E+02  0.39157950392E+02  0.00000000000E+00 0.  1.
</event>
<event>
 7    1  0.2284751E-015  0.9000763E+02  0.7816164E-02  0.1186339E+00
        -11   -1    0    0    0    0  0.00000000000E+00  0.00000000000E+00  0.45593999997E+02  0.45594000000E+02  0.51100000000E-03 0.  1.
         11   -1    0    0    0    0 -0.00000000000E+00 -0.00000000000E+00 -0.45593999997E+02  0.45594000000E+02  0.51100000000E-03 0. -1.
    9900012    2    1    2    0    0  0.23673501960E+00 -0.11079800776E+01 -0.33107449145E+00  0.90007629871E+02  0.89999889785E+02 0.  0.
         12    1    1    2    0    0 -0.23673501960E+00  0.11079800776E+01  0.33107449145E+00  0.11803701288E+01  0.00000000000E+00 0. -1.
         11    1    3    3    0    0  0.38044594046E+02  0.40047510895E+01  0.10360894405E+02  0.39633032946E+02  0.51100000000E-03 0. -1.
        -11    1    3    3    0    0  0.66047578413E+00  0.69401283712E+01 -0.70229716858E+01  0.98956425577E+01  0.51100000000E-03 0.  1.
        -12    1    3    3    0    0 -0.38468334810E+02 -0.12052859538E+02 -0.36689972104E+01  0.40478954367E+02  0.00000000000E+00 0.  1.
</event>
<event>
 7    1  0.2284751E-015  0.9000775E+02  0.7816164E-02  0.1186339E+00
        -11   -1    0    0    0    0  0.00000000000E+00  0.00000000000E+00  0.45593999997E+02  0.45594000000E+02  0.51100000000E-03 0. -1.
         11   -1    0    0    0    0 -0.00000000000E+00 -0.00000000000E+00 -0.45593999997E+02  0.45594000000E+02  0.51100000000E-03 0.  1.
    9900012    2    1    2    0    0 -0.91902537920E-01  0.11197859263E+01 -0.36142069548E+00  0.90007749384E+02  0.90000010876E+02 0.  0.
         12    1    1    2    0    0  0.91902537920E-01 -0.11197859263E+01  0.36142069548E+00  0.11802506159E+01  0.00000000000E+00 0. -1.
         11    1    3    3    0    0 -0.19644302950E+00 -0.30837389085E+01 -0.18147965764E+02  0.18409147105E+02  0.51100000000E-03 0. -1.
        -11    1    3    3    0    0 -0.23071842606E+02 -0.11348963833E+02 -0.14016888958E+02  0.29284502346E+02  0.51100000000E-03 0.  1.
         12    1    3    3    0    0  0.23176383098E+02  0.15552488668E+02  0.31803434026E+02  0.42314099933E+02  0.00000000000E+00 0. -1.
</event>
<event>
 7    1  0.2284751E-015  0.9000769E+02  0.7816164E-02  0.1186339E+00
        -11   -1    0    0    0    0  0.00000000000E+00  0.00000000000E+00  0.45593999997E+02  0.45594000000E+02  0.51100000000E-03 0.  1.
         11   -1    0    0    0    0 -0.00000000000E+00 -0.00000000000E+00 -0.45593999997E+02  0.45594000000E+02  0.51100000000E-03 0. -1.
    9900012    2    1    2    0    0 -0.62969888435E+00  0.20298075891E+00  0.97745327267E+00  0.90007687849E+02  0.89999948529E+02 0.  0.
         12    1    1    2    0    0  0.62969888435E+00 -0.20298075891E+00 -0.97745327267E+00  0.11803121510E+01  0.00000000000E+00 0. -1.
         11    1    3    3    0    0  0.88356007057E+01  0.96093852017E+00  0.66176409279E+01  0.11080812894E+02  0.51100000000E-03 0. -1.
        -11    1    3    3    0    0 -0.20884210527E+02  0.34230404581E+02  0.54989435694E+01  0.40473562084E+02  0.51100000000E-03 0.  1.
         12    1    3    3    0    0  0.11418910937E+02 -0.34988362342E+02 -0.11139131225E+02  0.38453312872E+02  0.00000000000E+00 0. -1.
</event>
<event>
 7    1  0.2284751E-015  0.9000744E+02  0.7816164E-02  0.1186340E+00
        -11   -1    0    0    0    0  0.00000000000E+00  0.00000000000E+00  0.45593999997E+02  0.45594000000E+02  0.51100000000E-03 0. -1.
         11   -1    0    0    0    0 -0.00000000000E+00 -0.00000000000E+00 -0.45593999997E+02  0.45594000000E+02  0.51100000000E-03 0.  1.
    9900012    2    1    2    0    0  0.16733175247E+00 -0.30667487382E+00 -0.11276817083E+01  0.90007442747E+02  0.89999700190E+02 0.  0.
         12    1    1    2    0    0 -0.16733175247E+00  0.30667487382E+00  0.11276817083E+01  0.11805572535E+01  0.00000000000E+00 0. -1.
         11    1    3    3    0    0  0.85346670829E+01 -0.20494997569E+01 -0.63537699215E+00  0.88002667944E+01  0.51100000000E-03 0. -1.
        -11    1    3    3    0    0  0.32987790937E+02 -0.32038210086E+01 -0.15950080769E+02  0.36781298193E+02  0.51100000000E-03 0.  1.
         12    1    3    3    0    0 -0.41355126267E+02  0.49466458917E+01  0.15457776053E+02  0.44425877759E+02  0.00000000000E+00 0. -1.
</event>
<event>
 7    1  0.2284751E-015  0.9000772E+02  0.7816164E-02  0.1186339E+00
        -11   -1    0    0    0    0  0.00000000000E+00  0.00000000000E+00  0.45593999997E+02  0.45594000000E+02  0.51100000000E-03 0. -1.
         11   -1    0    0    0    0 -0.00000000000E+00 -0.00000000000E+00 -0.45593999997E+02  0.45594000000E+02  0.51100000000E-03 0.  1.
    9900012    2    1    2    0    0 -0.11868731066E+00  0.47216564519E+00 -0.10751880467E+01  0.90007721893E+02  0.89999983022E+02 0.  0.
         12    1    1    2    0    0  0.11868731066E+00 -0.47216564519E+00  0.10751880467E+01  0.11802781070E+01  0.00000000000E+00 0. -1.
         11    1    3    3    0    0  0.19484759463E+01  0.11422716083E+02  0.23894743893E+01  0.11831508329E+02  0.51100000000E-03 0. -1.
        -11    1    3    3    0    0  0.27211585466E+02  0.18932474639E+02 -0.12406629803E+02  0.35395387311E+02  0.51100000000E-03 0.  1.
         12    1    3    3    0    0 -0.29278748723E+02 -0.29883025077E+02  0.89419673675E+01  0.42780826253E+02  0.00000000000E+00 0. -1.
</event>
<event>
 7    1  0.2284751E-015  0.9000784E+02  0.7816164E-02  0.1186339E+00
        -11   -1    0    0    0    0  0.00000000000E+00  0.00000000000E+00  0.45593999997E+02  0.45594000000E+02  0.51100000000E-03 0.  1.
         11   -1    0    0    0    0 -0.00000000000E+00 -0.00000000000E+00 -0.45593999997E+02  0.45594000000E+02  0.51100000000E-03 0. -1.
    9900012    2    1    2    0    0 -0.83921799744E+00 -0.76546711390E+00  0.32021933937E+00  0.90007844428E+02  0.90000107174E+02 0.  0.
         12    1    1    2    0    0  0.83921799744E+00  0.76546711390E+00 -0.32021933937E+00  0.11801555724E+01  0.00000000000E+00 0. -1.
         11    1    3    3    0    0 -0.58703145636E+01 -0.47504604608E+01 -0.41971738136E+01  0.86396606385E+01  0.51100000000E-03 0. -1.
        -11    1    3    3    0    0  0.21726984851E+02 -0.24857497861E+02  0.25735872101E+02  0.41860389197E+02  0.51100000000E-03 0.  1.
         12    1    3    3    0    0 -0.16695888285E+02  0.28842491208E+02 -0.21218478948E+02  0.39507794593E+02  0.00000000000E+00 0. -1.
</event>
<event>
 7    1  0.2284751E-015  0.9000764E+02  0.7816164E-02  0.1186339E+00
        -11   -1    0    0    0    0  0.00000000000E+00  0.00000000000E+00  0.45593999997E+02  0.45594000000E+02  0.51100000000E-03 0. -1.
         11   -1    0    0    0    0 -0.00000000000E+00 -0.00000000000E+00 -0.45593999997E+02  0.45594000000E+02  0.51100000000E-03 0.  1.
    9900012    2    1    2    0    0  0.11123158702E+01  0.35214781313E+00 -0.17890071692E+00  0.90007635588E+02  0.89999895578E+02 0.  0.
         12    1    1    2    0    0 -0.11123158702E+01 -0.35214781313E+00  0.17890071692E+00  0.11803644115E+01  0.00000000000E+00 0. -1.
         11    1    3    3    0    0  0.23213276748E+02  0.25341695532E+02 -0.25473995372E+02  0.42778291109E+02  0.51100000000E-03 0. -1.
        -11    1    3    3    0    0 -0.29399328208E+01  0.38798517820E+01  0.54167018925E+01  0.72826584771E+01  0.51100000000E-03 0.  1.
        -12    1    3    3    0    0 -0.19161028057E+02 -0.28869399501E+02  0.19878392762E+02  0.39946686002E+02  0.00000000000E+00 0.  1.
</event>
<event>
 7    1  0.2284751E-015  0.9000775E+02  0.7816164E-02  0.1186339E+00
        -11   -1    0    0    0    0  0.00000000000E+00  0.00000000000E+00  0.45593999997E+02  0.45594000000E+02  0.51100000000E-03 0.  1.
         11   -1    0    0    0    0 -0.00000000000E+00 -0.00000000000E+00 -0.45593999997E+02  0.45594000000E+02  0.51100000000E-03 0. -1.
    9900012    2    1    2    0    0  0.63687261497E+00  0.68790548124E+00 -0.71705508274E+00  0.90007750590E+02  0.90000012097E+02 0.  0.
         12    1    1    2    0    0 -0.63687261497E+00 -0.68790548124E+00  0.71705508274E+00  0.11802494103E+01  0.00000000000E+00 0. -1.
         11    1    3    3    0    0 -0.10440278977E+02 -0.65888288724E+01  0.88065417419E+01  0.15164671732E+02  0.51100000000E-03 0. -1.
        -11    1    3    3    0    0  0.31298973538E+01  0.26124721693E+02  0.23972886316E+02  0.35594895976E+02  0.51100000000E-03 0.  1.
         12    1    3    3    0    0  0.79472542383E+01 -0.18847987340E+02 -0.33496483141E+02  0.39248182881E+02  0.00000000000E+00 0. -1.
</event>
<event>
 7    1  0.2284751E-015  0.9000772E+02  0.7816164E-02  0.1186339E+00
        -11   -1    0    0    0    0  0.00000000000E+00  0.00000000000E+00  0.45593999997E+02  0.45594000000E+02  0.51100000000E-03 0. -1.
         11   -1    0    0    0    0 -0.00000000000E+00 -0.00000000000E+00 -0.45593999997E+02  0.45594000000E+02  0.51100000000E-03 0.  1.
    9900012    2    1    2    0    0  0.39449356688E+00  0.14923271706E+00 -0.11023438939E+01  0.90007721373E+02  0.89999982495E+02 0.  0.
         12    1    1    2    0    0 -0.39449356688E+00 -0.14923271706E+00  0.11023438939E+01  0.11802786275E+01  0.00000000000E+00 0. -1.
         11    1    3    3    0    0  0.89540126440E+01 -0.79627410652E+00 -0.70500068163E+01  0.11424140723E+02  0.51100000000E-03 0. -1.
        -11    1    3    3    0    0 -0.16552044830E+02  0.50430958168E+01 -0.33726101904E+02  0.37905843262E+02  0.51100000000E-03 0.  1.
         12    1    3    3    0    0  0.79925257529E+01 -0.40975889933E+01  0.39673764827E+02  0.40677737388E+02  0.00000000000E+00 0. -1.
</event>
<event>
 7    1  0.2284751E-015  0.9000772E+02  0.7816164E-02  0.1186339E+00
        -11   -1    0    0    0    0  0.00000000000E+00  0.00000000000E+00  0.45593999997E+02  0.45594000000E+02  0.51100000000E-03 0. -1.
         11   -1    0    0    0    0 -0.00000000000E+00 -0.00000000000E+00 -0.45593999997E+02  0.45594000000E+02  0.51100000000E-03 0.  1.
    9900012    2    1    2    0    0 -0.11359811129E+01  0.97668952470E-01 -0.30505564610E+00  0.90007724074E+02  0.89999985232E+02 0.  0.
         12    1    1    2    0    0  0.11359811129E+01 -0.97668952470E-01  0.30505564610E+00  0.11802759255E+01  0.00000000000E+00 0. -1.
         11    1    3    3    0    0  0.18657595711E+02  0.17987027479E+02  0.33706070330E+02  0.42517504779E+02  0.51100000000E-03 0. -1.
        -11    1    3    3    0    0 -0.45514194835E+01  0.42734741772E+01 -0.61536820102E+01  0.87661738177E+01  0.51100000000E-03 0.  1.
        -12    1    3    3    0    0 -0.15242157341E+02 -0.22162832704E+02 -0.27857443966E+02  0.38724045478E+02  0.00000000000E+00 0.  1.
</event>
<event>
 7    1  0.2284751E-015  0.9000774E+02  0.7816164E-02  0.1186339E+00
        -11   -1    0    0    0    0  0.00000000000E+00  0.00000000000E+00  0.45593999997E+02  0.45594000000E+02  0.51100000000E-03 0.  1.
         11   -1    0    0    0    0 -0.00000000000E+00 -0.00000000000E+00 -0.45593999997E+02  0.45594000000E+02  0.51100000000E-03 0. -1.
    9900012    2    1    2    0    0 -0.67026095621E+00  0.72241617580E+00 -0.64952134101E+00  0.90007740345E+02  0.90000001718E+02 0.  0.
         12    1    1    2    0    0  0.67026095621E+00 -0.72241617580E+00  0.64952134101E+00  0.11802596549E+01  0.00000000000E+00 0. -1.
         11    1    3    3    0    0  0.12470161671E+02  0.19317017930E+02 -0.28653667132E+02  0.36738055939E+02  0.51100000000E-03 0. -1.
        -11    1    3    3    0    0  0.56394701291E+01  0.45718233747E+01 -0.49791395330E+01  0.88032393502E+01  0.51100000000E-03 0.  1.
        -12    1    3    3    0    0 -0.18779892756E+02 -0.23166425129E+02  0.32983285324E+02  0.44466445056E+02  0.00000000000E+00 0.  1.
</event>
<event>
 7    1  0.2284751E-015  0.9000807E+02  0.7816164E-02  0.1186338E+00
        -11   -1    0    0    0    0  0.00000000000E+00  0.00000000000E+00  0.45593999997E+02  0.45594000000E+02  0.51100000000E-03 0.  1.
         11   -1    0    0    0    0 -0.00000000000E+00 -0.00000000000E+00 -0.45593999997E+02  0.45594000000E+02  0.51100000000E-03 0. -1.
    9900012    2    1    2    0    0  0.28651770873E+00  0.74207400080E+00  0.87147202866E+00  0.90008072156E+02  0.90000337908E+02 0.  0.
         12    1    1    2    0    0 -0.28651770873E+00 -0.74207400080E+00 -0.87147202866E+00  0.11799278439E+01  0.00000000000E+00 0. -1.
         11    1    3    3    0    0  0.46673353001E+01 -0.75029665824E+01 -0.23964260952E+01  0.91554019372E+01  0.51100000000E-03 0. -1.
        -11    1    3    3    0    0 -0.25176068608E+02  0.38888478140E+01  0.34618146841E+02  0.42981084896E+02  0.51100000000E-03 0.  1.
         12    1    3    3    0    0  0.20795251016E+02  0.43561927692E+01 -0.31350248717E+02  0.37871585323E+02  0.00000000000E+00 0. -1.
</event>
<event>
 7    1  0.2284751E-015  0.9000771E+02  0.7816164E-02  0.1186339E+00
        -11   -1    0    0    0    0  0.00000000000E+00  0.00000000000E+00  0.45593999997E+02  0.45594000000E+02  0.51100000000E-03 0. -1.
         11   -1    0    0    0    0 -0.00000000000E+00 -0.00000000000E+00 -0.45593999997E+02  0.45594000000E+02  0.51100000000E-03 0.  1.
    9900012    2    1    2    0    0  0.77254716798E+00  0.83398376930E+00 -0.31736455773E+00  0.90007712613E+02  0.89999973619E+02 0.  0.
         12    1    1    2    0    0 -0.77254716798E+00 -0.83398376930E+00  0.31736455773E+00  0.11802873873E+01  0.00000000000E+00 0. -1.
         11    1    3    3    0    0 -0.40012790131E+01 -0.28276735663E+01 -0.71648975637E+01  0.86799613420E+01  0.51100000000E-03 0. -1.
        -11    1    3    3    0    0 -0.33911732120E+02  0.19185214954E+02 -0.68562129402E+00  0.38968553027E+02  0.51100000000E-03 0.  1.
         12    1    3    3    0    0  0.38685558301E+02 -0.15523557618E+02  0.75331543000E+01  0.42359198244E+02  0.00000000000E+00 0. -1.
</event>
<event>
 7    1  0.2284751E-015  0.9000779E+02  0.7816164E-02  0.1186339E+00
        -11   -1    0    0    0    0  0.00000000000E+00  0.00000000000E+00  0.45593999997E+02  0.45594000000E+02  0.51100000000E-03 0. -1.
         11   -1    0    0    0    0 -0.00000000000E+00 -0.00000000000E+00 -0.45593999997E+02  0.45594000000E+02  0.51100000000E-03 0.  1.
    9900012    2    1    2    0    0  0.18983421417E+00  0.24139948439E+00 -0.11395525723E+01  0.90007792050E+02  0.90000054105E+02 0.  0.
         12    1    1    2    0    0 -0.18983421417E+00 -0.24139948439E+00  0.11395525723E+01  0.11802079499E+01  0.00000000000E+00 0. -1.
         11    1    3    3    0    0 -0.12753299229E+02  0.25306434985E+02  0.47173005464E+01  0.28728299943E+02  0.51100000000E-03 0. -1.
        -11    1    3    3    0    0 -0.17644116102E+02 -0.40894773686E+01 -0.14495529780E+02  0.23198255151E+02  0.51100000000E-03 0.  1.
         12    1    3    3    0    0  0.30587249545E+02 -0.20975558132E+02  0.86386766611E+01  0.38081236957E+02  0.00000000000E+00 0. -1.
</event>
<event>
 7    1  0.2284751E-015  0.9000777E+02  0.7816164E-02  0.1186339E+00
        -11   -1    0    0    0    0  0.00000000000E+00  0.00000000000E+00  0.45593999997E+02  0.45594000000E+02  0.51100000000E-03 0. -1.
         11   -1    0    0    0    0 -0.00000000000E+00 -0.00000000000E+00 -0.45593999997E+02  0.45594000000E+02  0.51100000000E-03 0.  1.
    9900012    2    1    2    0    0  0.91730433898E+00  0.67118291999E+00 -0.31782964916E+00  0.90007767206E+02  0.90000028933E+02 0.  0.
         12    1    1    2    0    0 -0.91730433898E+00 -0.67118291999E+00  0.31782964916E+00  0.11802327941E+01  0.00000000000E+00 0. -1.
         11    1    3    3    0    0  0.89330102170E+01  0.39165400444E+02 -0.83605995057E+00  0.40179923593E+02  0.51100000000E-03 0. -1.
        -11    1    3    3    0    0  0.36450199761E+01  0.44667347361E+00  0.77168327484E+01  0.85460631724E+01  0.51100000000E-03 0.  1.
        -12    1    3    3    0    0 -0.11660725854E+02 -0.38940890997E+02 -0.71986024470E+01  0.41281780440E+02  0.00000000000E+00 0.  1.
</event>
<event>
 7    1  0.2284751E-015  0.9000772E+02  0.7816164E-02  0.1186339E+00
        -11   -1    0    0    0    0  0.00000000000E+00  0.00000000000E+00  0.45593999997E+02  0.45594000000E+02  0.51100000000E-03 0.  1.
         11   -1    0    0    0    0 -0.00000000000E+00 -0.00000000000E+00 -0.45593999997E+02  0.45594000000E+02  0.51100000000E-03 0. -1.
    9900012    2    1    2    0    0 -0.59269693087E+00  0.10091979654E+01  0.15257843544E+00  0.90007724454E+02  0.89999985617E+02 0.  0.
         12    1    1    2    0    0  0.59269693087E+00 -0.10091979654E+01 -0.15257843544E+00  0.11802755459E+01  0.00000000000E+00 0. -1.
         11    1    3    3    0    0 -0.58344174076E+01 -0.59904780785E+01  0.20368921349E+01  0.86066941345E+01  0.51100000000E-03 0. -1.
        -11    1    3    3    0    0 -0.36248239388E+01 -0.27937011179E+02  0.24013963260E+02  0.37017379349E+02  0.51100000000E-03 0.  1.
         12    1    3    3    0    0  0.88665444155E+01  0.34936687223E+02 -0.25898276959E+02  0.44383650970E+02  0.00000000000E+00 0. -1.
</event>
<event>
 7    1  0.2284751E-015  0.9000777E+02  0.7816164E-02  0.1186339E+00
        -11   -1    0    0    0    0  0.00000000000E+00  0.00000000000E+00  0.45593999997E+02  0.45594000000E+02  0.51100000000E-03 0. -1.
         11   -1    0    0    0    0 -0.00000000000E+00 -0.00000000000E+00 -0.45593999997E+02  0.45594000000E+02  0.51100000000E-03 0.  1.
    9900012    2    1    2    0    0 -0.27437050106E-01  0.11623919383E+01  0.20259031189E+00  0.90007766699E+02  0.90000028420E+02 0.  0.
         12    1    1    2    0    0  0.27437050106E-01 -0.11623919383E+01 -0.20259031189E+00  0.11802333008E+01  0.00000000000E+00 0. -1.
         11    1    3    3    0    0 -0.10735594176E+02  0.38414601315E+02 -0.16244399933E+01  0.39919586447E+02  0.51100000000E-03 0. -1.
        -11    1    3    3    0    0 -0.65839748378E+01 -0.15264358510E+01 -0.66727576720E+01  0.94976010804E+01  0.51100000000E-03 0.  1.
        -12    1    3    3    0    0  0.17292131964E+02 -0.35725773526E+02  0.84997879772E+01  0.40590579172E+02  0.00000000000E+00 0.  1.
</event>
<event>
 7    1  0.2284751E-015  0.9000782E+02  0.7816164E-02  0.1186339E+00
        -11   -1    0    0    0    0  0.00000000000E+00  0.00000000000E+00  0.45593999997E+02  0.45594000000E+02  0.51100000000E-03 0. -1.
         11   -1    0    0    0    0 -0.00000000000E+00 -0.00000000000E+00 -0.45593999997E+02  0.45594000000E+02  0.51100000000E-03 0.  1.
    9900012    2    1    2    0    0  0.82593810274E-01  0.21465123103E+00 -0.11575508030E+01  0.90007821730E+02  0.90000084176E+02 0.  0.
         12    1    1    2    0    0 -0.82593810274E-01 -0.21465123103E+00  0.11575508030E+01  0.11801782705E+01  0.00000000000E+00 0. -1.
         11    1    3    3    0    0 -0.29708508759E+02  0.19302142724E+02 -0.17303695159E+02  0.39428239535E+02  0.51100000000E-03 0. -1.
        -11    1    3    3    0    0 -0.59698083848E+01  0.97552817529E-01  0.65802878679E+01  0.88852865676E+01  0.51100000000E-03 0.  1.
        -12    1    3    3    0    0  0.35760910954E+02 -0.19185044310E+02  0.95658564882E+01  0.41694295627E+02  0.00000000000E+00 0.  1.
</event>
<event>
 7    1  0.2284751E-015  0.9000773E+02  0.7816164E-02  0.1186339E+00
        -11   -1    0    0    0    0  0.00000000000E+00  0.00000000000E+00  0.45593999997E+02  0.45594000000E+02  0.51100000000E-03 0.  1.
         11   -1    0    0    0    0 -0.00000000000E+00 -0.00000000000E+00 -0.45593999997E+02  0.45594000000E+02  0.51100000000E-03 0. -1.
    9900012    2    1    2    0    0  0.88770962101E+00  0.48176289497E-01 -0.77632707254E+00  0.90007731789E+02  0.89999993049E+02 0.  0.
         12    1    1    2    0    0 -0.88770962101E+00 -0.48176289497E-01  0.77632707254E+00  0.11802682109E+01  0.00000000000E+00 0. -1.
         11    1    3    3    0    0  0.93751648284E+00 -0.46285884634E+01 -0.49629338719E+00  0.47485867062E+01  0.51100000000E-03 0. -1.
        -11    1    3    3    0    0  0.38596015765E+02 -0.63712747214E+01 -0.15778438440E+02  0.42180619891E+02  0.51100000000E-03 0.  1.
         12    1    3    3    0    0 -0.38645822627E+02  0.11048039474E+02  0.15498404755E+02  0.43078525192E+02  0.00000000000E+00 0. -1.
</event>
<event>
 7    1  0.2284751E-015  0.9000783E+02  0.7816164E-02  0.1186339E+00
        -11   -1    0    0    0    0  0.00000000000E+00  0.00000000000E+00  0.45593999997E+02  0.45594000000E+02  0.51100000000E-03 0. -1.
         11   -1    0    0    0    0 -0.00000000000E+00 -0.00000000000E+00 -0.45593999997E+02  0.45594000000E+02  0.51100000000E-03 0.  1.
    9900012    2    1    2    0    0 -0.30382032068E+00 -0.82151425343E+00 -0.79095291686E+00  0.90007830956E+02  0.90000093525E+02 0.  0.
         12    1    1    2    0    0  0.30382032068E+00  0.82151425343E+00  0.79095291686E+00  0.11801690441E+01  0.00000000000E+00 0. -1.
         11    1    3    3    0    0 -0.11328469817E+02  0.61734867862E+01  0.48487857146E+01  0.13782484924E+02  0.51100000000E-03 0. -1.
        -11    1    3    3    0    0  0.13649961208E+02  0.29426394389E+02 -0.18702246083E+02  0.37443399105E+02  0.51100000000E-03 0.  1.
         12    1    3    3    0    0 -0.26253117109E+01 -0.36421395429E+02  0.13062507452E+02  0.38781946927E+02  0.00000000000E+00 0. -1.
</event>
<event>
 7    1  0.2284751E-015  0.9000773E+02  0.7816164E-02  0.1186339E+00
        -11   -1    0    0    0    0  0.00000000000E+00  0.00000000000E+00  0.45593999997E+02  0.45594000000E+02  0.51100000000E-03 0. -1.
         11   -1    0    0    0    0 -0.00000000000E+00 -0.00000000000E+00 -0.45593999997E+02  0.45594000000E+02  0.51100000000E-03 0.  1.
    9900012    2    1    2    0    0  0.72247317704E+00  0.65526122415E+00  0.66460071220E+00  0.90007733560E+02  0.89999994843E+02 0.  0.
         12    1    1    2    0    0 -0.72247317704E+00 -0.65526122415E+00 -0.66460071220E+00  0.11802664403E+01  0.00000000000E+00 0. -1.
         11    1    3    3    0    0  0.13087777340E+02 -0.84984306859E+01 -0.50046999539E+01  0.16387808326E+02  0.51100000000E-03 0. -1.
        -11    1    3    3    0    0  0.27555683962E+02  0.64751487747E+01 -0.10875232084E+02  0.30323488312E+02  0.51100000000E-03 0.  1.
         12    1    3    3    0    0 -0.39920988125E+02  0.26785431353E+01  0.16544532750E+02  0.43296436922E+02  0.00000000000E+00 0. -1.
</event>
<event>
 7    1  0.2284751E-015  0.9000771E+02  0.7816164E-02  0.1186339E+00
        -11   -1    0    0    0    0  0.00000000000E+00  0.00000000000E+00  0.45593999997E+02  0.45594000000E+02  0.51100000000E-03 0. -1.
         11   -1    0    0    0    0 -0.00000000000E+00 -0.00000000000E+00 -0.45593999997E+02  0.45594000000E+02  0.51100000000E-03 0.  1.
    9900012    2    1    2    0    0 -0.23236863911E+00  0.10411219507E+01 -0.50512811799E+00  0.90007709986E+02  0.89999970958E+02 0.  0.
         12    1    1    2    0    0  0.23236863911E+00 -0.10411219507E+01  0.50512811799E+00  0.11802900136E+01  0.00000000000E+00 0. -1.
         11    1    3    3    0    0  0.83495294345E+01  0.71709140491E+00  0.37075758725E+00  0.83884637038E+01  0.51100000000E-03 0. -1.
        -11    1    3    3    0    0  0.13425146717E+02 -0.89157819881E+01 -0.35833364314E+02  0.39290657046E+02  0.51100000000E-03 0.  1.
         12    1    3    3    0    0 -0.22007044790E+02  0.92398125338E+01  0.34957478609E+02  0.42328589236E+02  0.00000000000E+00 0. -1.
</event>
<event>
 7    1  0.2284751E-015  0.9000765E+02  0.7816164E-02  0.1186339E+00
        -11   -1    0    0    0    0  0.00000000000E+00  0.00000000000E+00  0.45593999997E+02  0.45594000000E+02  0.51100000000E-03 0. -1.
         11   -1    0    0    0    0 -0.00000000000E+00 -0.00000000000E+00 -0.45593999997E+02  0.45594000000E+02  0.51100000000E-03 0.  1.
    9900012    2    1    2    0    0  0.74428746441E+00  0.87646571120E+00 -0.26661032220E+00  0.90007645377E+02  0.89999905496E+02 0.  0.
         12    1    1    2    0    0 -0.74428746441E+00 -0.87646571120E+00  0.26661032220E+00  0.11803546232E+01  0.00000000000E+00 0. -1.
         11    1    3    3    0    0  0.83693616139E-01 -0.93467740170E+01 -0.58602789542E+01  0.11032318833E+02  0.51100000000E-03 0. -1.
        -11    1    3    3    0    0  0.26980141714E+02 -0.15955919134E+02  0.22095891658E+02  0.38350330256E+02  0.51100000000E-03 0.  1.
         12    1    3    3    0    0 -0.26319547866E+02  0.26179158862E+02 -0.16502223026E+02  0.40624996288E+02  0.00000000000E+00 0. -1.
</event>
<event>
 7    1  0.2284751E-015  0.9000776E+02  0.7816164E-02  0.1186339E+00
        -11   -1    0    0    0    0  0.00000000000E+00  0.00000000000E+00  0.45593999997E+02  0.45594000000E+02  0.51100000000E-03 0.  1.
         11   -1    0    0    0    0 -0.00000000000E+00 -0.00000000000E+00 -0.45593999997E+02  0.45594000000E+02  0.51100000000E-03 0. -1.
    9900012    2    1    2    0    0  0.99378446562E+00 -0.14586040356E+00 -0.61975314036E+00  0.90007755629E+02  0.90000017203E+02 0.  0.
         12    1    1    2    0    0 -0.99378446562E+00  0.14586040356E+00  0.61975314036E+00  0.11802443715E+01  0.00000000000E+00 0. -1.
         11    1    3    3    0    0 -0.15063542186E+02  0.17792668042E+02 -0.28060435535E+02  0.36481192167E+02  0.51100000000E-03 0. -1.
        -11    1    3    3    0    0  0.22779587559E+01 -0.40048207404E+01 -0.10143235755E+02  0.11140597700E+02  0.51100000000E-03 0.  1.
        -12    1    3    3    0    0  0.13779367896E+02 -0.13933707706E+02  0.37583918150E+02  0.42385965762E+02  0.00000000000E+00 0.  1.
</event>
<event>
 7    1  0.2284751E-015  0.9000769E+02  0.7816164E-02  0.1186339E+00
        -11   -1    0    0    0    0  0.00000000000E+00  0.00000000000E+00  0.45593999997E+02  0.45594000000E+02  0.51100000000E-03 0.  1.
         11   -1    0    0    0    0 -0.00000000000E+00 -0.00000000000E+00 -0.45593999997E+02  0.45594000000E+02  0.51100000000E-03 0. -1.
    9900012    2    1    2    0    0 -0.34668638169E+00  0.45359849450E+00  0.10330476341E+01  0.90007690525E+02  0.89999951240E+02 0.  0.
         12    1    1    2    0    0  0.34668638169E+00 -0.45359849450E+00 -0.10330476341E+01  0.11803094746E+01  0.00000000000E+00 0. -1.
         11    1    3    3    0    0 -0.31077988838E+02 -0.19402244686E+02 -0.19194070134E+02  0.41360619165E+02  0.51100000000E-03 0. -1.
        -11    1    3    3    0    0  0.82008912496E+01  0.20902004765E+01 -0.55136401522E+01  0.10100682319E+02  0.51100000000E-03 0.  1.
        -12    1    3    3    0    0  0.22530411207E+02  0.17765642704E+02  0.25740757921E+02  0.38546389042E+02  0.00000000000E+00 0.  1.
</event>
<event>
 7    1  0.2284751E-015  0.9000766E+02  0.7816164E-02  0.1186339E+00
        -11   -1    0    0    0    0  0.00000000000E+00  0.00000000000E+00  0.45593999997E+02  0.45594000000E+02  0.51100000000E-03 0. -1.
         11   -1    0    0    0    0 -0.00000000000E+00 -0.00000000000E+00 -0.45593999997E+02  0.45594000000E+02  0.51100000000E-03 0.  1.
    9900012    2    1    2    0    0 -0.28823014599E+00  0.40374227595E+00 -0.10710350275E+01  0.90007660865E+02  0.89999921189E+02 0.  0.
         12    1    1    2    0    0  0.28823014599E+00 -0.40374227595E+00  0.10710350275E+01  0.11803391346E+01  0.00000000000E+00 0. -1.
         11    1    3    3    0    0  0.24401168431E+02 -0.19206040153E+02 -0.14018486188E+02  0.34070617171E+02  0.51100000000E-03 0. -1.
        -11    1    3    3    0    0  0.22012163317E+01 -0.11400628950E+02 -0.28506795678E+01  0.11956005523E+02  0.51100000000E-03 0.  1.
        -12    1    3    3    0    0 -0.26890614909E+02  0.31010411380E+02  0.15798130729E+02  0.43981038171E+02  0.00000000000E+00 0.  1.
</event>
<event>
 7    1  0.2284751E-015  0.9000760E+02  0.7816164E-02  0.1186339E+00
        -11   -1    0    0    0    0  0.00000000000E+00  0.00000000000E+00  0.45593999997E+02  0.45594000000E+02  0.51100000000E-03 0. -1.
         11   -1    0    0    0    0 -0.00000000000E+00 -0.00000000000E+00 -0.45593999997E+02  0.45594000000E+02  0.51100000000E-03 0.  1.
    9900012    2    1    2    0    0  0.77189671965E-03  0.68321208376E+00  0.96258765743E+00  0.90007595686E+02  0.89999855149E+02 0.  0.
         12    1    1    2    0    0 -0.77189671965E-03 -0.68321208376E+00 -0.96258765743E+00  0.11804043144E+01  0.00000000000E+00 0. -1.
         11    1    3    3    0    0  0.30638396691E+02 -0.14478963065E+02  0.16724520691E+02  0.37789698541E+02  0.51100000000E-03 0. -1.
        -11    1    3    3    0    0  0.67913895214E+01 -0.22005854320E+01 -0.70796148097E+01  0.10054177937E+02  0.51100000000E-03 0.  1.
        -12    1    3    3    0    0 -0.37429014316E+02  0.17362760581E+02 -0.86823182241E+01  0.42163719207E+02  0.00000000000E+00 0.  1.
</event>
<event>
 7    1  0.2284751E-015  0.9000769E+02  0.7816164E-02  0.1186339E+00
        -11   -1    0    0    0    0  0.00000000000E+00  0.00000000000E+00  0.45593999997E+02  0.45594000000E+02  0.51100000000E-03 0. -1.
         11   -1    0    0    0    0 -0.00000000000E+00 -0.00000000000E+00 -0.45593999997E+02  0.45594000000E+02  0.51100000000E-03 0.  1.
    9900012    2    1    2    0    0  0.11091309295E+01  0.22397439095E-01  0.40307546692E+00  0.90007685256E+02  0.89999945901E+02 0.  0.
         12    1    1    2    0    0 -0.11091309295E+01 -0.22397439095E-01 -0.40307546692E+00  0.11803147445E+01  0.00000000000E+00 0. -1.
         11    1    3    3    0    0 -0.25252930625E+02 -0.17751712181E+02  0.17251363393E+02  0.35361608132E+02  0.51100000000E-03 0. -1.
        -11    1    3    3    0    0 -0.63985364571E+01  0.13742918075E+00  0.77443674860E+01  0.10046660320E+02  0.51100000000E-03 0.  1.
        -12    1    3    3    0    0  0.32760598011E+02  0.17636680439E+02 -0.24592655412E+02  0.44599416803E+02  0.00000000000E+00 0.  1.
</event>
<event>
 7    1  0.2284751E-015  0.9000774E+02  0.7816164E-02  0.1186339E+00
        -11   -1    0    0    0    0  0.00000000000E+00  0.00000000000E+00  0.45593999997E+02  0.45594000000E+02  0.51100000000E-03 0.  1.
         11   -1    0    0    0    0 -0.00000000000E+00 -0.00000000000E+00 -0.45593999997E+02  0.45594000000E+02  0.51100000000E-03 0. -1.
    9900012    2    1    2    0    0  0.21246923461E+00 -0.10797990450E+00  0.11559416156E+01  0.90007744157E+02  0.90000005580E+02 0.  0.
         12    1    1    2    0    0 -0.21246923461E+00  0.10797990450E+00 -0.11559416156E+01  0.11802558427E+01  0.00000000000E+00 0. -1.
         11    1    3    3    0    0 -0.88994144141E+00 -0.10383262642E+02  0.23355395840E+01  0.10679835405E+02  0.51100000000E-03 0. -1.
        -11    1    3    3    0    0  0.12462884938E+02  0.40056470143E+02  0.13728052094E+02  0.44139593517E+02  0.51100000000E-03 0.  1.
         12    1    3    3    0    0 -0.11360474262E+02 -0.29781187405E+02 -0.14907650062E+02  0.35188315236E+02  0.00000000000E+00 0. -1.
</event>
<event>
 7    1  0.2284751E-015  0.9000746E+02  0.7816164E-02  0.1186340E+00
        -11   -1    0    0    0    0  0.00000000000E+00  0.00000000000E+00  0.45593999997E+02  0.45594000000E+02  0.51100000000E-03 0.  1.
         11   -1    0    0    0    0 -0.00000000000E+00 -0.00000000000E+00 -0.45593999997E+02  0.45594000000E+02  0.51100000000E-03 0. -1.
    9900012    2    1    2    0    0  0.74687919487E-01  0.28812828292E+00  0.11424002031E+01  0.90007460116E+02  0.89999717789E+02 0.  0.
         12    1    1    2    0    0 -0.74687919487E-01 -0.28812828292E+00 -0.11424002031E+01  0.11805398836E+01  0.00000000000E+00 0. -1.
         11    1    3    3    0    0 -0.43302890808E+01  0.12319673271E+02 -0.15822394810E+01  0.13154057741E+02  0.51100000000E-03 0. -1.
        -11    1    3    3    0    0 -0.96939775781E+00  0.31019391743E+02  0.10528938257E+02  0.32771953515E+02  0.51100000000E-03 0.  1.
         12    1    3    3    0    0  0.53743747581E+01 -0.43050936730E+02 -0.78042985730E+01  0.44081448860E+02  0.00000000000E+00 0. -1.
</event>
<event>
 7    1  0.2284751E-015  0.9000783E+02  0.7816164E-02  0.1186339E+00
        -11   -1    0    0    0    0  0.00000000000E+00  0.00000000000E+00  0.45593999997E+02  0.45594000000E+02  0.51100000000E-03 0. -1.
         11   -1    0    0    0    0 -0.00000000000E+00 -0.00000000000E+00 -0.45593999997E+02  0.45594000000E+02  0.51100000000E-03 0.  1.
    9900012    2    1    2    0    0  0.52737561118E+00 -0.41028420043E-01 -0.10549822541E+01  0.90007832248E+02  0.90000094834E+02 0.  0.
         12    1    1    2    0    0 -0.52737561118E+00  0.41028420043E-01  0.10549822541E+01  0.11801677521E+01  0.00000000000E+00 0. -1.
         11    1    3    3    0    0  0.16541931609E+01  0.79040849188E+01 -0.50633409640E+01  0.95314393140E+01  0.51100000000E-03 0. -1.
        -11    1    3    3    0    0  0.23779213478E+02  0.20070080972E+02 -0.19032456374E+02  0.36475930964E+02  0.51100000000E-03 0.  1.
         12    1    3    3    0    0 -0.24906031028E+02 -0.28015194311E+02  0.23040815083E+02  0.44000461970E+02  0.00000000000E+00 0. -1.
</event>
<event>
 7    1  0.2284751E-015  0.9000775E+02  0.7816164E-02  0.1186339E+00
        -11   -1    0    0    0    0  0.00000000000E+00  0.00000000000E+00  0.45593999997E+02  0.45594000000E+02  0.51100000000E-03 0. -1.
         11   -1    0    0    0    0 -0.00000000000E+00 -0.00000000000E+00 -0.45593999997E+02  0.45594000000E+02  0.51100000000E-03 0.  1.
    9900012    2    1    2    0    0 -0.70683355751E+00 -0.56610915376E+00 -0.75689425152E+00  0.90007753348E+02  0.90000014892E+02 0.  0.
         12    1    1    2    0    0  0.70683355751E+00  0.56610915376E+00  0.75689425152E+00  0.11802466522E+01  0.00000000000E+00 0. -1.
         11    1    3    3    0    0  0.24386010097E+02  0.21872634263E+02 -0.15154996982E+02  0.36093815978E+02  0.51100000000E-03 0. -1.
        -11    1    3    3    0    0  0.81090148257E+01  0.44335092406E+01  0.25528477678E+01  0.95879694209E+01  0.51100000000E-03 0.  1.
        -12    1    3    3    0    0 -0.33201858481E+02 -0.26872252657E+02  0.11845254963E+02  0.44325967949E+02  0.00000000000E+00 0.  1.
</event>
<event>
 7    1  0.2284751E-015  0.9000774E+02  0.7816164E-02  0.1186339E+00
        -11   -1    0    0    0    0  0.00000000000E+00  0.00000000000E+00  0.45593999997E+02  0.45594000000E+02  0.51100000000E-03 0.  1.
         11   -1    0    0    0    0 -0.00000000000E+00 -0.00000000000E+00 -0.45593999997E+02  0.45594000000E+02  0.51100000000E-03 0. -1.
    9900012    2    1    2    0    0  0.72534994233E+00  0.74379677532E+00  0.56004185818E+00  0.90007740255E+02  0.90000001627E+02 0.  0.
         12    1    1    2    0    0 -0.72534994233E+00 -0.74379677532E+00 -0.56004185818E+00  0.11802597446E+01  0.00000000000E+00 0. -1.
         11    1    3    3    0    0  0.74852705437E+01 -0.71338144951E+01  0.61840901950E+01  0.12048383965E+02  0.51100000000E-03 0. -1.
        -11    1    3    3    0    0  0.61844058094E+01  0.32499143929E+02  0.21219284641E+02  0.39302662407E+02  0.51100000000E-03 0.  1.
         12    1    3    3    0    0 -0.12944326411E+02 -0.24621532658E+02 -0.26843332978E+02  0.38656693884E+02  0.00000000000E+00 0. -1.
</event>
<event>
 7    1  0.2284751E-015  0.9000777E+02  0.7816164E-02  0.1186339E+00
        -11   -1    0    0    0    0  0.00000000000E+00  0.00000000000E+00  0.45593999997E+02  0.45594000000E+02  0.51100000000E-03 0.  1.
         11   -1    0    0    0    0 -0.00000000000E+00 -0.00000000000E+00 -0.45593999997E+02  0.45594000000E+02  0.51100000000E-03 0. -1.
    9900012    2    1    2    0    0 -0.76433290780E+00  0.56346115994E+00  0.70089767193E+00  0.90007766625E+02  0.90000028345E+02 0.  0.
         12    1    1    2    0    0  0.76433290780E+00 -0.56346115994E+00 -0.70089767193E+00  0.11802333749E+01  0.00000000000E+00 0. -1.
         11    1    3    3    0    0 -0.28303124779E+01  0.67480367217E+01 -0.25510067271E+01  0.77494712015E+01  0.51100000000E-03 0. -1.
        -11    1    3    3    0    0 -0.47971695477E+01  0.16555129759E+02  0.37099476632E+02  0.40907900504E+02  0.51100000000E-03 0.  1.
         12    1    3    3    0    0  0.68631491178E+01 -0.22739705321E+02 -0.33847572233E+02  0.41350394919E+02  0.00000000000E+00 0. -1.
</event>
<event>
 7    1  0.2284751E-015  0.9000739E+02  0.7816164E-02  0.1186340E+00
        -11   -1    0    0    0    0  0.00000000000E+00  0.00000000000E+00  0.45593999997E+02  0.45594000000E+02  0.51100000000E-03 0. -1.
         11   -1    0    0    0    0 -0.00000000000E+00 -0.00000000000E+00 -0.45593999997E+02  0.45594000000E+02  0.51100000000E-03 0.  1.
    9900012    2    1    2    0    0  0.66407954969E+00 -0.16117972862E+00 -0.96273885687E+00  0.90007387168E+02  0.89999643878E+02 0.  0.
         12    1    1    2    0    0 -0.66407954969E+00  0.16117972862E+00  0.96273885687E+00  0.11806128323E+01  0.00000000000E+00 0. -1.
         11    1    3    3    0    0  0.16685062071E+01 -0.13531662104E+02  0.32496863784E+02  0.35241111622E+02  0.51100000000E-03 0. -1.
        -11    1    3    3    0    0 -0.90130322692E+01 -0.43535527586E+01  0.53546705614E+01  0.11351681346E+02  0.51100000000E-03 0.  1.
        -12    1    3    3    0    0  0.80086056118E+01  0.17724035134E+02 -0.38814273203E+02  0.43414594200E+02  0.00000000000E+00 0.  1.
</event>
<event>
 7    1  0.2284751E-015  0.9000769E+02  0.7816164E-02  0.1186339E+00
        -11   -1    0    0    0    0  0.00000000000E+00  0.00000000000E+00  0.45593999997E+02  0.45594000000E+02  0.51100000000E-03 0. -1.
         11   -1    0    0    0    0 -0.00000000000E+00 -0.00000000000E+00 -0.45593999997E+02  0.45594000000E+02  0.51100000000E-03 0.  1.
    9900012    2    1    2    0    0 -0.83169120740E+00  0.41301389234E+00 -0.72859136436E+00  0.90007688128E+02  0.89999948811E+02 0.  0.
         12    1    1    2    0    0  0.83169120740E+00 -0.41301389234E+00  0.72859136436E+00  0.11803118723E+01  0.00000000000E+00 0. -1.
         11    1    3    3    0    0  0.81111701523E+01 -0.13202735397E+01 -0.33201871833E+01  0.88632864476E+01  0.51100000000E-03 0. -1.
        -11    1    3    3    0    0  0.98742971555E+01  0.18477066461E+02 -0.32064464513E+02  0.38301874812E+02  0.51100000000E-03 0.  1.
         12    1    3    3    0    0 -0.18817158515E+02 -0.16743779029E+02  0.34656060332E+02  0.42842526869E+02  0.00000000000E+00 0. -1.
</event>
<event>
 7    1  0.2284751E-015  0.9000748E+02  0.7816164E-02  0.1186340E+00
        -11   -1    0    0    0    0  0.00000000000E+00  0.00000000000E+00  0.45593999997E+02  0.45594000000E+02  0.51100000000E-03 0.  1.
         11   -1    0    0    0    0 -0.00000000000E+00 -0.00000000000E+00 -0.45593999997E+02  0.45594000000E+02  0.51100000000E-03 0. -1.
    9900012    2    1    2    0    0 -0.32021730786E+00 -0.10297958495E+01  0.48021163775E+00  0.90007482388E+02  0.89999740355E+02 0.  0.
         12    1    1    2    0    0  0.32021730786E+00  0.10297958495E+01 -0.48021163775E+00  0.11805176123E+01  0.00000000000E+00 0. -1.
         11    1    3    3    0    0  0.19226635524E+02 -0.26245783505E+02  0.83666795384E+01  0.33593243251E+02  0.51100000000E-03 0. -1.
        -11    1    3    3    0    0 -0.96839342843E+01 -0.30502621487E+01  0.15428134555E+02  0.18469163990E+02  0.51100000000E-03 0.  1.
         12    1    3    3    0    0 -0.98629185471E+01  0.28266249804E+02 -0.23314602456E+02  0.37945075147E+02  0.00000000000E+00 0. -1.
</event>
<event>
 7    1  0.2284751E-015  0.9000790E+02  0.7816164E-02  0.1186339E+00
        -11   -1    0    0    0    0  0.00000000000E+00  0.00000000000E+00  0.45593999997E+02  0.45594000000E+02  0.51100000000E-03 0. -1.
         11   -1    0    0    0    0 -0.00000000000E+00 -0.00000000000E+00 -0.45593999997E+02  0.45594000000E+02  0.51100000000E-03 0.  1.
    9900012    2    1    2    0    0  0.87384911098E+00 -0.54973244215E+00 -0.57167811127E+00  0.90007900898E+02  0.90000164390E+02 0.  0.
         12    1    1    2    0    0 -0.87384911098E+00  0.54973244215E+00  0.57167811127E+00  0.11800991016E+01  0.00000000000E+00 0. -1.
         11    1    3    3    0    0  0.94034564707E+00 -0.15411343152E+01  0.87693914040E+01  0.89532994349E+01  0.51100000000E-03 0. -1.
        -11    1    3    3    0    0  0.33017202249E+02  0.10221085360E+02 -0.25641446785E+02  0.43035915509E+02  0.51100000000E-03 0.  1.
         12    1    3    3    0    0 -0.33083698785E+02 -0.92296834874E+01  0.16300377269E+02  0.38018685954E+02  0.00000000000E+00 0. -1.
</event>
<event>
 7    1  0.2284751E-015  0.9000772E+02  0.7816164E-02  0.1186339E+00
        -11   -1    0    0    0    0  0.00000000000E+00  0.00000000000E+00  0.45593999997E+02  0.45594000000E+02  0.51100000000E-03 0.  1.
         11   -1    0    0    0    0 -0.00000000000E+00 -0.00000000000E+00 -0.45593999997E+02  0.45594000000E+02  0.51100000000E-03 0. -1.
    9900012    2    1    2    0    0  0.10327340693E+01  0.49646060294E+00 -0.28293221174E+00  0.90007718921E+02  0.89999980011E+02 0.  0.
         12    1    1    2    0    0 -0.10327340693E+01 -0.49646060294E+00  0.28293221174E+00  0.11802810787E+01  0.00000000000E+00 0. -1.
         11    1    3    3    0    0  0.18089592119E+02 -0.24560813881E+02  0.13468512204E+02  0.33344680877E+02  0.51100000000E-03 0. -1.
        -11    1    3    3    0    0  0.27955741284E+01 -0.12294794930E+02 -0.20487384891E+01  0.12773979284E+02  0.51100000000E-03 0.  1.
        -12    1    3    3    0    0 -0.19852432178E+02  0.37352069414E+02 -0.11702705927E+02  0.43889058761E+02  0.00000000000E+00 0.  1.
</event>
<event>
 7    1  0.2284751E-015  0.9000764E+02  0.7816164E-02  0.1186339E+00
        -11   -1    0    0    0    0  0.00000000000E+00  0.00000000000E+00  0.45593999997E+02  0.45594000000E+02  0.51100000000E-03 0. -1.
         11   -1    0    0    0    0 -0.00000000000E+00 -0.00000000000E+00 -0.45593999997E+02  0.45594000000E+02  0.51100000000E-03 0.  1.
    9900012    2    1    2    0    0  0.64426004560E+00 -0.34948208639E+00 -0.92522913029E+00  0.90007636633E+02  0.89999896636E+02 0.  0.
         12    1    1    2    0    0 -0.64426004560E+00  0.34948208639E+00  0.92522913029E+00  0.11803633672E+01  0.00000000000E+00 0. -1.
         11    1    3    3    0    0  0.59943281472E+00  0.29079013420E+01  0.24758179806E+02  0.24935570526E+02  0.51100000000E-03 0. -1.
        -11    1    3    3    0    0  0.25977886017E+02 -0.15607682156E+02 -0.80098283039E+01  0.31346573241E+02  0.51100000000E-03 0.  1.
         12    1    3    3    0    0 -0.25933058786E+02  0.12350298728E+02 -0.17673580632E+02  0.33725492866E+02  0.00000000000E+00 0. -1.
</event>
<event>
 7    1  0.2284751E-015  0.9000761E+02  0.7816164E-02  0.1186339E+00
        -11   -1    0    0    0    0  0.00000000000E+00  0.00000000000E+00  0.45593999997E+02  0.45594000000E+02  0.51100000000E-03 0.  1.
         11   -1    0    0    0    0 -0.00000000000E+00 -0.00000000000E+00 -0.45593999997E+02  0.45594000000E+02  0.51100000000E-03 0. -1.
    9900012    2    1    2    0    0  0.33538664517E+00 -0.39797651596E+00  0.10594554922E+01  0.90007612162E+02  0.89999871842E+02 0.  0.
         12    1    1    2    0    0 -0.33538664517E+00  0.39797651596E+00 -0.10594554922E+01  0.11803878384E+01  0.00000000000E+00 0. -1.
         11    1    3    3    0    0 -0.19974209931E+02 -0.26985842328E+02  0.30932962347E+01  0.33716067836E+02  0.51100000000E-03 0. -1.
        -11    1    3    3    0    0 -0.32975147410E+01 -0.81598997683E+01 -0.10226046729E+02  0.13491834555E+02  0.51100000000E-03 0.  1.
        -12    1    3    3    0    0  0.23607111317E+02  0.34747765580E+02  0.81922059861E+01  0.42799709771E+02  0.00000000000E+00 0.  1.
</event>
<event>
 7    1  0.2284751E-015  0.9000784E+02  0.7816164E-02  0.1186339E+00
        -11   -1    0    0    0    0  0.00000000000E+00  0.00000000000E+00  0.45593999997E+02  0.45594000000E+02  0.51100000000E-03 0. -1.
         11   -1    0    0    0    0 -0.00000000000E+00 -0.00000000000E+00 -0.45593999997E+02  0.45594000000E+02  0.51100000000E-03 0.  1.
    9900012    2    1    2    0    0  0.14832676218E+00 -0.11691088824E+01 -0.63008865031E-01  0.90007836230E+02  0.90000098868E+02 0.  0.
         12    1    1    2    0    0 -0.14832676218E+00  0.11691088824E+01  0.63008865031E-01  0.11801637702E+01  0.00000000000E+00 0. -1.
         11    1    3    3    0    0  0.20260930697E+02  0.18360971840E+02  0.27805964539E+02  0.38997464839E+02  0.51100000000E-03 0. -1.
        -11    1    3    3    0    0  0.87574317016E+01 -0.39319214867E+01 -0.38414352523E+01  0.10339692531E+02  0.51100000000E-03 0.  1.
        -12    1    3    3    0    0 -0.28870035637E+02 -0.15598159236E+02 -0.24027538152E+02  0.40670678859E+02  0.00000000000E+00 0.  1.
</event>
<event>
 7    1  0.2284751E-015  0.9000775E+02  0.7816164E-02  0.1186339E+00
        -11   -1    0    0    0    0  0.00000000000E+00  0.00000000000E+00  0.45593999997E+02  0.45594000000E+02  0.51100000000E-03 0. -1.
         11   -1    0    0    0    0 -0.00000000000E+00 -0.00000000000E+00 -0.45593999997E+02  0.45594000000E+02  0.51100000000E-03 0.  1.
    9900012    2    1    2    0    0 -0.80136491968E+00 -0.66762219463E+00 -0.55233855829E+00  0.90007752987E+02  0.90000014526E+02 0.  0.
         12    1    1    2    0    0  0.80136491968E+00  0.66762219463E+00  0.55233855829E+00  0.11802470132E+01  0.00000000000E+00 0. -1.
         11    1    3    3    0    0  0.12309404870E+02 -0.23917343347E+02  0.29639739809E+02  0.40025928312E+02  0.51100000000E-03 0. -1.
        -11    1    3    3    0    0  0.47118932597E+00  0.84043139689E+01  0.47465461547E+01  0.96635507620E+01  0.51100000000E-03 0.  1.
        -12    1    3    3    0    0 -0.13581959116E+02  0.14845407183E+02 -0.34938624522E+02  0.40318273913E+02  0.00000000000E+00 0.  1.
</event>
<event>
 7    1  0.2284751E-015  0.9000773E+02  0.7816164E-02  0.1186339E+00
        -11   -1    0    0    0    0  0.00000000000E+00  0.00000000000E+00  0.45593999997E+02  0.45594000000E+02  0.51100000000E-03 0.  1.
         11   -1    0    0    0    0 -0.00000000000E+00 -0.00000000000E+00 -0.45593999997E+02  0.45594000000E+02  0.51100000000E-03 0. -1.
    9900012    2    1    2    0    0  0.42636531122E+00  0.52681034405E+00  0.96629426850E+00  0.90007728366E+02  0.89999989580E+02 0.  0.
         12    1    1    2    0    0 -0.42636531122E+00 -0.52681034405E+00 -0.96629426850E+00  0.11802716342E+01  0.00000000000E+00 0. -1.
         11    1    3    3    0    0 -0.14552271741E+02 -0.64128066906E+01 -0.28472653922E+02  0.32612646689E+02  0.51100000000E-03 0. -1.
        -11    1    3    3    0    0  0.21893464163E+01 -0.15255721574E+02 -0.33641072051E+01  0.15774900824E+02  0.51100000000E-03 0.  1.
        -12    1    3    3    0    0  0.12789290636E+02  0.22195338608E+02  0.32803055395E+02  0.41620180852E+02  0.00000000000E+00 0.  1.
</event>
<event>
 7    1  0.2284751E-015  0.9000777E+02  0.7816164E-02  0.1186339E+00
        -11   -1    0    0    0    0  0.00000000000E+00  0.00000000000E+00  0.45593999997E+02  0.45594000000E+02  0.51100000000E-03 0. -1.
         11   -1    0    0    0    0 -0.00000000000E+00 -0.00000000000E+00 -0.45593999997E+02  0.45594000000E+02  0.51100000000E-03 0.  1.
    9900012    2    1    2    0    0 -0.53040791863E+00  0.99477953566E+00  0.34933546953E+00  0.90007765212E+02  0.90000026913E+02 0.  0.
         12    1    1    2    0    0  0.53040791863E+00 -0.99477953566E+00 -0.34933546953E+00  0.11802347881E+01  0.00000000000E+00 0. -1.
         11    1    3    3    0    0 -0.33870781953E+01 -0.18795886154E+01  0.94154295341E+01  0.10181132827E+02  0.51100000000E-03 0. -1.
        -11    1    3    3    0    0  0.30428609512E+01 -0.26781167414E+02 -0.32360841469E+02  0.42115483990E+02  0.51100000000E-03 0.  1.
         12    1    3    3    0    0 -0.18619067455E+00  0.29655535565E+02  0.23294747405E+02  0.37711148395E+02  0.00000000000E+00 0. -1.
</event>
<event>
 7    1  0.2284751E-015  0.9000745E+02  0.7816164E-02  0.1186340E+00
        -11   -1    0    0    0    0  0.00000000000E+00  0.00000000000E+00  0.45593999997E+02  0.45594000000E+02  0.51100000000E-03 0.  1.
         11   -1    0    0    0    0 -0.00000000000E+00 -0.00000000000E+00 -0.45593999997E+02  0.45594000000E+02  0.51100000000E-03 0. -1.
    9900012    2    1    2    0    0 -0.23929658178E+00  0.10095069023E+00  0.11516293880E+01  0.90007447526E+02  0.89999705033E+02 0.  0.
         12    1    1    2    0    0  0.23929658178E+00 -0.10095069023E+00 -0.11516293880E+01  0.11805524737E+01  0.00000000000E+00 0. -1.
         11    1    3    3    0    0  0.35202386038E+01  0.15163456134E+01 -0.36193907638E+02  0.36396295611E+02  0.51100000000E-03 0. -1.
        -11    1    3    3    0    0  0.42147554766E+01 -0.39685629775E+01 -0.66552560816E+01  0.88207760206E+01  0.51100000000E-03 0.  1.
        -12    1    3    3    0    0 -0.79742906621E+01  0.25531680543E+01  0.44000793108E+02  0.44790375894E+02  0.00000000000E+00 0.  1.
</event>
<event>
 7    1  0.2284751E-015  0.9000785E+02  0.7816164E-02  0.1186339E+00
        -11   -1    0    0    0    0  0.00000000000E+00  0.00000000000E+00  0.45593999997E+02  0.45594000000E+02  0.51100000000E-03 0. -1.
         11   -1    0    0    0    0 -0.00000000000E+00 -0.00000000000E+00 -0.45593999997E+02  0.45594000000E+02  0.51100000000E-03 0.  1.
    9900012    2    1    2    0    0  0.39748450329E-01 -0.43031079844E+00 -0.10981791442E+01  0.90007853926E+02  0.90000116798E+02 0.  0.
         12    1    1    2    0    0 -0.39748450329E-01  0.43031079844E+00  0.10981791442E+01  0.11801460737E+01  0.00000000000E+00 0. -1.
         11    1    3    3    0    0  0.39957450134E+01  0.75437806771E+01 -0.19683516243E+01  0.87606514309E+01  0.51100000000E-03 0. -1.
        -11    1    3    3    0    0  0.28048046906E+01 -0.26583077477E+02 -0.32723302355E+02  0.42253301112E+02  0.51100000000E-03 0.  1.
         12    1    3    3    0    0 -0.67608012537E+01  0.18608986002E+02  0.33593474835E+02  0.38993901384E+02  0.00000000000E+00 0. -1.
</event>
<event>
 7    1  0.2284751E-015  0.9000769E+02  0.7816164E-02  0.1186339E+00
        -11   -1    0    0    0    0  0.00000000000E+00  0.00000000000E+00  0.45593999997E+02  0.45594000000E+02  0.51100000000E-03 0. -1.
         11   -1    0    0    0    0 -0.00000000000E+00 -0.00000000000E+00 -0.45593999997E+02  0.45594000000E+02  0.51100000000E-03 0.  1.
    9900012    2    1    2    0    0 -0.53101825425E+00  0.97364111054E+00  0.40394296562E+00  0.90007691855E+02  0.89999952587E+02 0.  0.
         12    1    1    2    0    0  0.53101825425E+00 -0.97364111054E+00 -0.40394296562E+00  0.11803081453E+01  0.00000000000E+00 0. -1.
         11    1    3    3    0    0 -0.27676741314E+01  0.90917824279E+01  0.14727296616E+02  0.17527515332E+02  0.51100000000E-03 0. -1.
        -11    1    3    3    0    0  0.67521710423E+01  0.14419341431E+02 -0.36945148710E+02  0.40230004158E+02  0.51100000000E-03 0.  1.
         12    1    3    3    0    0 -0.45155151652E+01 -0.22537482748E+02  0.22621795059E+02  0.32250172365E+02  0.00000000000E+00 0. -1.
</event>
<event>
 7    1  0.2284751E-015  0.9000748E+02  0.7816164E-02  0.1186340E+00
        -11   -1    0    0    0    0  0.00000000000E+00  0.00000000000E+00  0.45593999997E+02  0.45594000000E+02  0.51100000000E-03 0. -1.
         11   -1    0    0    0    0 -0.00000000000E+00 -0.00000000000E+00 -0.45593999997E+02  0.45594000000E+02  0.51100000000E-03 0.  1.
    9900012    2    1    2    0    0  0.70971394990E+00 -0.84976319011E+00  0.40968769459E+00  0.90007476651E+02  0.89999734543E+02 0.  0.
         12    1    1    2    0    0 -0.70971394990E+00  0.84976319011E+00 -0.40968769459E+00  0.11805233488E+01  0.00000000000E+00 0. -1.
         11    1    3    3    0    0 -0.22774548589E+01  0.90987739914E+01  0.22301768784E+00  0.93821226773E+01  0.51100000000E-03 0. -1.
        -11    1    3    3    0    0  0.12275877731E+02  0.24809305920E+02 -0.24522024361E+02  0.36980109698E+02  0.51100000000E-03 0.  1.
         12    1    3    3    0    0 -0.92887089219E+01 -0.34757843102E+02  0.24708694368E+02  0.43645244275E+02  0.00000000000E+00 0. -1.
</event>
<event>
 7    1  0.2284751E-015  0.9000771E+02  0.7816164E-02  0.1186339E+00
        -11   -1    0    0    0    0  0.00000000000E+00  0.00000000000E+00  0.45593999997E+02  0.45594000000E+02  0.51100000000E-03 0.  1.
         11   -1    0    0    0    0 -0.00000000000E+00 -0.00000000000E+00 -0.45593999997E+02  0.45594000000E+02  0.51100000000E-03 0. -1.
    9900012    2    1    2    0    0 -0.51944745838E+00  0.31487424658E-01  0.10593667420E+01  0.90007714012E+02  0.89999975037E+02 0.  0.
         12    1    1    2    0    0  0.51944745838E+00 -0.31487424658E-01 -0.10593667420E+01  0.11802859882E+01  0.00000000000E+00 0. -1.
         11    1    3    3    0    0 -0.31717512507E+01 -0.25756150075E+01  0.15239849227E+02  0.15778048148E+02  0.51100000000E-03 0. -1.
        -11    1    3    3    0    0 -0.25096861131E+02  0.11432077539E+01  0.18598001742E+02  0.31257719553E+02  0.51100000000E-03 0.  1.
         12    1    3    3    0    0  0.27749164923E+02  0.14638946782E+01 -0.32778484226E+02  0.42971946311E+02  0.00000000000E+00 0. -1.
</event>
<event>
 7    1  0.2284751E-015  0.9000776E+02  0.7816164E-02  0.1186339E+00
        -11   -1    0    0    0    0  0.00000000000E+00  0.00000000000E+00  0.45593999997E+02  0.45594000000E+02  0.51100000000E-03 0.  1.
         11   -1    0    0    0    0 -0.00000000000E+00 -0.00000000000E+00 -0.45593999997E+02  0.45594000000E+02  0.51100000000E-03 0. -1.
    9900012    2    1    2    0    0  0.29982127865E+00 -0.10828894021E+01  0.36112766180E+00  0.90007764666E+02  0.90000026359E+02 0.  0.
         12    1    1    2    0    0 -0.29982127865E+00  0.10828894021E+01 -0.36112766180E+00  0.11802353344E+01  0.00000000000E+00 0. -1.
         11    1    3    3    0    0 -0.37711834384E+01  0.17381992225E+01 -0.13971182027E+02  0.14575221733E+02  0.51100000000E-03 0. -1.
        -11    1    3    3    0    0  0.17823641422E+02 -0.34377183347E+02  0.13470319330E+02  0.40999054032E+02  0.51100000000E-03 0.  1.
         12    1    3    3    0    0 -0.13752636705E+02  0.31556094723E+02  0.86199035876E+00  0.34433488901E+02  0.00000000000E+00 0. -1.
</event>
<event>
 7    1  0.2284751E-015  0.9000772E+02  0.7816164E-02  0.1186339E+00
        -11   -1    0    0    0    0  0.00000000000E+00  0.00000000000E+00  0.45593999997E+02  0.45594000000E+02  0.51100000000E-03 0.  1.
         11   -1    0    0    0    0 -0.00000000000E+00 -0.00000000000E+00 -0.45593999997E+02  0.45594000000E+02  0.51100000000E-03 0. -1.
    9900012    2    1    2    0    0  0.15332000875E+00 -0.93254103845E+00  0.70704538814E+00  0.90007723340E+02  0.89999984488E+02 0.  0.
         12    1    1    2    0    0 -0.15332000875E+00  0.93254103845E+00 -0.70704538814E+00  0.11802766601E+01  0.00000000000E+00 0. -1.
         11    1    3    3    0    0 -0.57885989618E+01  0.10184464649E+02 -0.20464970820E+01  0.11891986743E+02  0.51100000000E-03 0. -1.
        -11    1    3    3    0    0  0.93516429689E+01  0.21417726362E+02  0.28233093139E+02  0.36650781399E+02  0.51100000000E-03 0.  1.
         12    1    3    3    0    0 -0.34097239983E+01 -0.32534732049E+02 -0.25479550669E+02  0.41464955198E+02  0.00000000000E+00 0. -1.
</event>
<event>
 7    1  0.2284751E-015  0.9000778E+02  0.7816164E-02  0.1186339E+00
        -11   -1    0    0    0    0  0.00000000000E+00  0.00000000000E+00  0.45593999997E+02  0.45594000000E+02  0.51100000000E-03 0.  1.
         11   -1    0    0    0    0 -0.00000000000E+00 -0.00000000000E+00 -0.45593999997E+02  0.45594000000E+02  0.51100000000E-03 0. -1.
    9900012    2    1    2    0    0  0.20770768961E+00  0.93659754907E+00  0.68743772007E+00  0.90007776262E+02  0.90000038108E+02 0.  0.
         12    1    1    2    0    0 -0.20770768961E+00 -0.93659754907E+00 -0.68743772007E+00  0.11802237382E+01  0.00000000000E+00 0. -1.
         11    1    3    3    0    0  0.36130305704E+02 -0.91714214746E+01 -0.20466384861E+01  0.37332327699E+02  0.51100000000E-03 0. -1.
        -11    1    3    3    0    0  0.62930537131E+01  0.43640439990E+01 -0.53087962014E+01  0.93183004046E+01  0.51100000000E-03 0.  1.
        -12    1    3    3    0    0 -0.42215651727E+02  0.57439750247E+01  0.80428724075E+01  0.43357148158E+02  0.00000000000E+00 0.  1.
</event>
<event>
 7    1  0.2284751E-015  0.9000765E+02  0.7816164E-02  0.1186339E+00
        -11   -1    0    0    0    0  0.00000000000E+00  0.00000000000E+00  0.45593999997E+02  0.45594000000E+02  0.51100000000E-03 0.  1.
         11   -1    0    0    0    0 -0.00000000000E+00 -0.00000000000E+00 -0.45593999997E+02  0.45594000000E+02  0.51100000000E-03 0. -1.
    9900012    2    1    2    0    0 -0.10871795523E+01 -0.32899956680E+00  0.32097042077E+00  0.90007651702E+02  0.89999911904E+02 0.  0.
         12    1    1    2    0    0  0.10871795523E+01  0.32899956680E+00 -0.32097042077E+00  0.11803482982E+01  0.00000000000E+00 0. -1.
         11    1    3    3    0    0 -0.11922353200E+02 -0.33001856458E+02 -0.85598331988E+01  0.36118357938E+02  0.51100000000E-03 0. -1.
        -11    1    3    3    0    0  0.18598901192E+01 -0.81603816909E+01 -0.51054057701E+01  0.98038864200E+01  0.51100000000E-03 0.  1.
        -12    1    3    3    0    0  0.89752835283E+01  0.40833238582E+02  0.13986209390E+02  0.44085407343E+02  0.00000000000E+00 0.  1.
</event>
<event>
 7    1  0.2284751E-015  0.9000779E+02  0.7816164E-02  0.1186339E+00
        -11   -1    0    0    0    0  0.00000000000E+00  0.00000000000E+00  0.45593999997E+02  0.45594000000E+02  0.51100000000E-03 0.  1.
         11   -1    0    0    0    0 -0.00000000000E+00 -0.00000000000E+00 -0.45593999997E+02  0.45594000000E+02  0.51100000000E-03 0. -1.
    9900012    2    1    2    0    0  0.27159586318E+00  0.97405461892E+00  0.60855400152E+00  0.90007794642E+02  0.90000056732E+02 0.  0.
         12    1    1    2    0    0 -0.27159586318E+00 -0.97405461892E+00 -0.60855400152E+00  0.11802053577E+01  0.00000000000E+00 0. -1.
         11    1    3    3    0    0 -0.10507937447E+02 -0.71502305613E+01 -0.40284028231E+02  0.42241513671E+02  0.51100000000E-03 0. -1.
        -11    1    3    3    0    0  0.69923551349E+01 -0.56627242756E+01  0.85848151247E+01  0.12436178173E+02  0.51100000000E-03 0.  1.
        -12    1    3    3    0    0  0.37871781754E+01  0.13787009456E+02  0.32307767108E+02  0.35330102798E+02  0.00000000000E+00 0.  1.
</event>
<event>
 7    1  0.2284751E-015  0.9000771E+02  0.7816164E-02  0.1186339E+00
        -11   -1    0    0    0    0  0.00000000000E+00  0.00000000000E+00  0.45593999997E+02  0.45594000000E+02  0.51100000000E-03 0. -1.
         11   -1    0    0    0    0 -0.00000000000E+00 -0.00000000000E+00 -0.45593999997E+02  0.45594000000E+02  0.51100000000E-03 0.  1.
    9900012    2    1    2    0    0  0.68245054094E+00 -0.90142586832E+00  0.33878040863E+00  0.90007712110E+02  0.89999973110E+02 0.  0.
         12    1    1    2    0    0 -0.68245054094E+00  0.90142586832E+00 -0.33878040863E+00  0.11802878895E+01  0.00000000000E+00 0. -1.
         11    1    3    3    0    0  0.44288459712E-01 -0.46687317639E+01 -0.76843823933E+01  0.89915933393E+01  0.51100000000E-03 0. -1.
        -11    1    3    3    0    0  0.40420067793E+02  0.39367410345E+01  0.10334323961E+01  0.40624472835E+02  0.51100000000E-03 0.  1.
         12    1    3    3    0    0 -0.39781905711E+02 -0.16943513889E+00  0.69897304058E+01  0.40391645936E+02  0.00000000000E+00 0. -1.
</event>
<event>
 7    1  0.2284751E-015  0.9000767E+02  0.7816164E-02  0.1186339E+00
        -11   -1    0    0    0    0  0.00000000000E+00  0.00000000000E+00  0.45593999997E+02  0.45594000000E+02  0.51100000000E-03 0.  1.
         11   -1    0    0    0    0 -0.00000000000E+00 -0.00000000000E+00 -0.45593999997E+02  0.45594000000E+02  0.51100000000E-03 0. -1.
    9900012    2    1    2    0    0 -0.15856531860E+00 -0.94882639778E+00  0.68393534745E+00  0.90007668668E+02  0.89999929095E+02 0.  0.
         12    1    1    2    0    0  0.15856531860E+00  0.94882639778E+00 -0.68393534745E+00  0.11803313318E+01  0.00000000000E+00 0. -1.
         11    1    3    3    0    0 -0.20777942544E+01  0.13440175366E+02 -0.33512064415E+02  0.36166476252E+02  0.51100000000E-03 0. -1.
        -11    1    3    3    0    0  0.10719705046E+01  0.14790399882E+01 -0.82857423952E+01  0.84847043172E+01  0.51100000000E-03 0.  1.
        -12    1    3    3    0    0  0.84725843125E+00 -0.15868041752E+02  0.42481742158E+02  0.45356488099E+02  0.00000000000E+00 0.  1.
</event>
<event>
 7    1  0.2284751E-015  0.9000771E+02  0.7816164E-02  0.1186339E+00
        -11   -1    0    0    0    0  0.00000000000E+00  0.00000000000E+00  0.45593999997E+02  0.45594000000E+02  0.51100000000E-03 0.  1.
         11   -1    0    0    0    0 -0.00000000000E+00 -0.00000000000E+00 -0.45593999997E+02  0.45594000000E+02  0.51100000000E-03 0. -1.
    9900012    2    1    2    0    0  0.79521165365E+00 -0.29813532893E+00 -0.81966420516E+00  0.90007705267E+02  0.89999966176E+02 0.  0.
         12    1    1    2    0    0 -0.79521165365E+00  0.29813532893E+00  0.81966420516E+00  0.11802947334E+01  0.00000000000E+00 0. -1.
         11    1    3    3    0    0 -0.10856021785E+02  0.33754600548E+00 -0.34130851715E+01  0.11384915325E+02  0.51100000000E-03 0. -1.
        -11    1    3    3    0    0  0.65211927675E+01  0.34654984661E+02  0.18214934767E+02  0.39689769032E+02  0.51100000000E-03 0.  1.
         12    1    3    3    0    0  0.51300406714E+01 -0.35290665996E+02 -0.15621513801E+02  0.38933020910E+02  0.00000000000E+00 0. -1.
</event>
<event>
 7    1  0.2284751E-015  0.9000790E+02  0.7816164E-02  0.1186339E+00
        -11   -1    0    0    0    0  0.00000000000E+00  0.00000000000E+00  0.45593999997E+02  0.45594000000E+02  0.51100000000E-03 0. -1.
         11   -1    0    0    0    0 -0.00000000000E+00 -0.00000000000E+00 -0.45593999997E+02  0.45594000000E+02  0.51100000000E-03 0.  1.
    9900012    2    1    2    0    0  0.11729005933E-01  0.46550527977E+00 -0.10843415951E+01  0.90007902788E+02  0.90000166305E+02 0.  0.
         12    1    1    2    0    0 -0.11729005933E-01 -0.46550527977E+00  0.10843415951E+01  0.11800972121E+01  0.00000000000E+00 0. -1.
         11    1    3    3    0    0  0.12549741834E+02 -0.35666675990E+02 -0.49239671324E+01  0.38129427597E+02  0.51100000000E-03 0. -1.
        -11    1    3    3    0    0 -0.68920443469E+01 -0.17623310922E+01 -0.89995361729E+01  0.11471605718E+02  0.51100000000E-03 0.  1.
        -12    1    3    3    0    0 -0.56459684811E+01  0.37894512362E+02  0.12839161710E+02  0.40406869473E+02  0.00000000000E+00 0.  1.
</event>
<event>
 7    1  0.2284751E-015  0.9000779E+02  0.7816164E-02  0.1186339E+00
        -11   -1    0    0    0    0  0.00000000000E+00  0.00000000000E+00  0.45593999997E+02  0.45594000000E+02  0.51100000000E-03 0. -1.
         11   -1    0    0    0    0 -0.00000000000E+00 -0.00000000000E+00 -0.45593999997E+02  0.45594000000E+02  0.51100000000E-03 0.  1.
    9900012    2    1    2    0    0 -0.87716327413E+00 -0.18285682494E+00 -0.76814735927E+00  0.90007787141E+02  0.90000049131E+02 0.  0.
         12    1    1    2    0    0  0.87716327413E+00  0.18285682494E+00  0.76814735927E+00  0.11802128594E+01  0.00000000000E+00 0. -1.
         11    1    3    3    0    0 -0.20475223505E+02  0.35738421177E+02  0.19317820377E+01  0.41233497401E+02  0.51100000000E-03 0. -1.
        -11    1    3    3    0    0  0.84813930445E+01  0.18083519661E+01  0.26755929498E+01  0.90754042722E+01  0.51100000000E-03 0.  1.
        -12    1    3    3    0    0  0.11116667187E+02 -0.37729629968E+02 -0.53755223468E+01  0.39698885468E+02  0.00000000000E+00 0.  1.
</event>
<event>
 7    1  0.2284751E-015  0.9000776E+02  0.7816164E-02  0.1186339E+00
        -11   -1    0    0    0    0  0.00000000000E+00  0.00000000000E+00  0.45593999997E+02  0.45594000000E+02  0.51100000000E-03 0.  1.
         11   -1    0    0    0    0 -0.00000000000E+00 -0.00000000000E+00 -0.45593999997E+02  0.45594000000E+02  0.51100000000E-03 0. -1.
    9900012    2    1    2    0    0 -0.81954267385E-01  0.25465684873E+00  0.11495252741E+01  0.90007756394E+02  0.90000017979E+02 0.  0.
         12    1    1    2    0    0  0.81954267385E-01 -0.25465684873E+00 -0.11495252741E+01  0.11802436055E+01  0.00000000000E+00 0. -1.
         11    1    3    3    0    0 -0.49866289648E+01 -0.29389355009E+01  0.81492360289E+01  0.99956919934E+01  0.51100000000E-03 0. -1.
        -11    1    3    3    0    0 -0.29463008064E+02  0.12953747645E+02  0.17554580580E+02  0.36661038199E+02  0.51100000000E-03 0.  1.
         12    1    3    3    0    0  0.34367682761E+02 -0.97601552953E+01 -0.24554291335E+02  0.43351026202E+02  0.00000000000E+00 0. -1.
</event>
<event>
 7    1  0.2284751E-015  0.9000773E+02  0.7816164E-02  0.1186339E+00
        -11   -1    0    0    0    0  0.00000000000E+00  0.00000000000E+00  0.45593999997E+02  0.45594000000E+02  0.51100000000E-03 0. -1.
         11   -1    0    0    0    0 -0.00000000000E+00 -0.00000000000E+00 -0.45593999997E+02  0.45594000000E+02  0.51100000000E-03 0.  1.
    9900012    2    1    2    0    0 -0.85296961446E+00  0.69407544901E-01  0.81281579299E+00  0.90007727115E+02  0.89999988313E+02 0.  0.
         12    1    1    2    0    0  0.85296961446E+00 -0.69407544901E-01 -0.81281579299E+00  0.11802728853E+01  0.00000000000E+00 0. -1.
         11    1    3    3    0    0  0.72555870169E+01  0.18875891980E+01 -0.72918650260E+01  0.10458385715E+02  0.51100000000E-03 0. -1.
        -11    1    3    3    0    0  0.27196002831E+02 -0.23889793106E+02 -0.33860129232E+01  0.36356703212E+02  0.51100000000E-03 0.  1.
         12    1    3    3    0    0 -0.35304559463E+02  0.22071611453E+02  0.11490693742E+02  0.43192638188E+02  0.00000000000E+00 0. -1.
</event>
<event>
 7    1  0.2284751E-015  0.9000774E+02  0.7816164E-02  0.1186339E+00
        -11   -1    0    0    0    0  0.00000000000E+00  0.00000000000E+00  0.45593999997E+02  0.45594000000E+02  0.51100000000E-03 0.  1.
         11   -1    0    0    0    0 -0.00000000000E+00 -0.00000000000E+00 -0.45593999997E+02  0.45594000000E+02  0.51100000000E-03 0. -1.
    9900012    2    1    2    0    0 -0.90050612332E+00 -0.38274631434E+00  0.66001048188E+00  0.90007737379E+02  0.89999998712E+02 0.  0.
         12    1    1    2    0    0  0.90050612332E+00  0.38274631434E+00 -0.66001048188E+00  0.11802626214E+01  0.00000000000E+00 0. -1.
         11    1    3    3    0    0 -0.19066841714E+02  0.90491656185E+01  0.62428333793E+01  0.22009198536E+02  0.51100000000E-03 0. -1.
        -11    1    3    3    0    0 -0.19808312040E+02  0.77814734003E+01 -0.13986151332E+02  0.25466310755E+02  0.51100000000E-03 0.  1.
         12    1    3    3    0    0  0.37974647630E+02 -0.17213385333E+02  0.84033284347E+01  0.42532228087E+02  0.00000000000E+00 0. -1.
</event>
<event>
 7    1  0.2284751E-015  0.9000772E+02  0.7816164E-02  0.1186339E+00
        -11   -1    0    0    0    0  0.00000000000E+00  0.00000000000E+00  0.45593999997E+02  0.45594000000E+02  0.51100000000E-03 0. -1.
         11   -1    0    0    0    0 -0.00000000000E+00 -0.00000000000E+00 -0.45593999997E+02  0.45594000000E+02  0.51100000000E-03 0.  1.
    9900012    2    1    2    0    0  0.73378887430E+00 -0.53760718337E+00  0.75206224855E+00  0.90007718160E+02  0.89999979240E+02 0.  0.
         12    1    1    2    0    0 -0.73378887430E+00  0.53760718337E+00 -0.75206224855E+00  0.11802818398E+01  0.00000000000E+00 0. -1.
         11    1    3    3    0    0 -0.21255830825E+02 -0.24925707990E+02  0.15673486297E+02  0.36314727533E+02  0.51100000000E-03 0. -1.
        -11    1    3    3    0    0 -0.84611419540E+01  0.30191824902E+01  0.61991905039E+01  0.10914959883E+02  0.51100000000E-03 0.  1.
        -12    1    3    3    0    0  0.30450761654E+02  0.21368918316E+02 -0.21120614552E+02  0.42778030744E+02  0.00000000000E+00 0.  1.
</event>
<event>
 7    1  0.2284751E-015  0.9000761E+02  0.7816164E-02  0.1186339E+00
        -11   -1    0    0    0    0  0.00000000000E+00  0.00000000000E+00  0.45593999997E+02  0.45594000000E+02  0.51100000000E-03 0. -1.
         11   -1    0    0    0    0 -0.00000000000E+00 -0.00000000000E+00 -0.45593999997E+02  0.45594000000E+02  0.51100000000E-03 0.  1.
    9900012    2    1    2    0    0 -0.96197199048E+00  0.20155627120E+00  0.65367900815E+00  0.90007613925E+02  0.89999873628E+02 0.  0.
         12    1    1    2    0    0  0.96197199048E+00 -0.20155627120E+00 -0.65367900815E+00  0.11803860752E+01  0.00000000000E+00 0. -1.
         11    1    3    3    0    0 -0.10569055603E+02 -0.96211152117E+01 -0.28230066971E+01  0.14568464618E+02  0.51100000000E-03 0. -1.
        -11    1    3    3    0    0 -0.13597452907E+02 -0.27303301490E+02 -0.48156382000E+01  0.30879627092E+02  0.51100000000E-03 0.  1.
         12    1    3    3    0    0  0.23204536520E+02  0.37125972973E+02  0.82923239052E+01  0.44559522215E+02  0.00000000000E+00 0. -1.
</event>
<event>
 7    1  0.2284751E-015  0.9000776E+02  0.7816164E-02  0.1186339E+00
        -11   -1    0    0    0    0  0.00000000000E+00  0.00000000000E+00  0.45593999997E+02  0.45594000000E+02  0.51100000000E-03 0. -1.
         11   -1    0    0    0    0 -0.00000000000E+00 -0.00000000000E+00 -0.45593999997E+02  0.45594000000E+02  0.51100000000E-03 0.  1.
    9900012    2    1    2    0    0 -0.89795357005E+00  0.74383963268E+00  0.18264534164E+00  0.90007755392E+02  0.90000016964E+02 0.  0.
         12    1    1    2    0    0  0.89795357005E+00 -0.74383963268E+00 -0.18264534164E+00  0.11802446077E+01  0.00000000000E+00 0. -1.
         11    1    3    3    0    0  0.32880968346E+02  0.20524123390E+02 -0.31561391806E+01  0.38889059324E+02  0.51100000000E-03 0. -1.
        -11    1    3    3    0    0  0.51774073919E+01 -0.40203542621E+01 -0.50393095376E+01  0.82682184642E+01  0.51100000000E-03 0.  1.
        -12    1    3    3    0    0 -0.38956329308E+02 -0.15759929495E+02  0.83780940599E+01  0.42850477604E+02  0.00000000000E+00 0.  1.
</event>
<event>
 7    1  0.2284751E-015  0.9000777E+02  0.7816164E-02  0.1186339E+00
        -11   -1    0    0    0    0  0.00000000000E+00  0.00000000000E+00  0.45593999997E+02  0.45594000000E+02  0.51100000000E-03 0.  1.
         11   -1    0    0    0    0 -0.00000000000E+00 -0.00000000000E+00 -0.45593999997E+02  0.45594000000E+02  0.51100000000E-03 0. -1.
    9900012    2    1    2    0    0 -0.26829936886E+00 -0.31748902090E+00  0.11046077129E+01  0.90007770349E+02  0.90000032118E+02 0.  0.
         12    1    1    2    0    0  0.26829936886E+00  0.31748902090E+00 -0.11046077129E+01  0.11802296510E+01  0.00000000000E+00 0. -1.
         11    1    3    3    0    0 -0.22020913713E+01  0.15873670808E+01 -0.10291640646E+02  0.10643627582E+02  0.51100000000E-03 0. -1.
        -11    1    3    3    0    0 -0.70594251618E+01  0.50134229570E+01  0.43999294564E+02  0.44843146809E+02  0.51100000000E-03 0.  1.
         12    1    3    3    0    0  0.89932171643E+01 -0.69182790586E+01 -0.32603046205E+02  0.34520995958E+02  0.00000000000E+00 0. -1.
</event>
<event>
 7    1  0.2284751E-015  0.9000770E+02  0.7816164E-02  0.1186339E+00
        -11   -1    0    0    0    0  0.00000000000E+00  0.00000000000E+00  0.45593999997E+02  0.45594000000E+02  0.51100000000E-03 0.  1.
         11   -1    0    0    0    0 -0.00000000000E+00 -0.00000000000E+00 -0.45593999997E+02  0.45594000000E+02  0.51100000000E-03 0. -1.
    9900012    2    1    2    0    0 -0.11758291670E+01 -0.99935806861E-01  0.23446571610E-01  0.90007698709E+02  0.89999959532E+02 0.  0.
         12    1    1    2    0    0  0.11758291670E+01  0.99935806861E-01 -0.23446571610E-01  0.11803012909E+01  0.00000000000E+00 0. -1.
         11    1    3    3    0    0 -0.39420898673E+01 -0.97471570331E+01  0.11709121446E+02  0.15736920539E+02  0.51100000000E-03 0. -1.
        -11    1    3    3    0    0  0.35973400125E+02 -0.25009268832E+01 -0.14351078023E+02  0.38810998345E+02  0.51100000000E-03 0.  1.
         12    1    3    3    0    0 -0.33207139425E+02  0.12148148109E+02  0.26654031484E+01  0.35459779825E+02  0.00000000000E+00 0. -1.
</event>
<event>
 7    1  0.2284751E-015  0.9000773E+02  0.7816164E-02  0.1186339E+00
        -11   -1    0    0    0    0  0.00000000000E+00  0.00000000000E+00  0.45593999997E+02  0.45594000000E+02  0.51100000000E-03 0. -1.
         11   -1    0    0    0    0 -0.00000000000E+00 -0.00000000000E+00 -0.45593999997E+02  0.45594000000E+02  0.51100000000E-03 0.  1.
    9900012    2    1    2    0    0  0.72223258360E+00  0.84044743803E+00 -0.40629083633E+00  0.90007727131E+02  0.89999988329E+02 0.  0.
         12    1    1    2    0    0 -0.72223258360E+00 -0.84044743803E+00  0.40629083633E+00  0.11802728687E+01  0.00000000000E+00 0. -1.
         11    1    3    3    0    0 -0.97074139680E+01  0.12432196118E+01 -0.15276600875E+02  0.18142602225E+02  0.51100000000E-03 0. -1.
        -11    1    3    3    0    0 -0.93413503320E+01  0.23443576245E+02 -0.14561662095E+02  0.29135958821E+02  0.51100000000E-03 0.  1.
        -12    1    3    3    0    0  0.19770996884E+02 -0.23846348419E+02  0.29431972133E+02  0.42729166085E+02  0.00000000000E+00 0.  1.
</event>
<event>
 7    1  0.2331434E-015  0.9000775E+02  0.7816164E-02  0.1186339E+00
        -11   -1    0    0    0    0  0.00000000000E+00  0.00000000000E+00  0.45593999997E+02  0.45594000000E+02  0.51100000000E-03 0. -1.
         11   -1    0    0    0    0 -0.00000000000E+00 -0.00000000000E+00 -0.45593999997E+02  0.45594000000E+02  0.51100000000E-03 0.  1.
    9900012    2    1    2    0    0 -0.91754937151E+00 -0.18153689199E+00 -0.71981426392E+00  0.90007752116E+02  0.90000013644E+02 0.  0.
         12    1    1    2    0    0  0.91754937151E+00  0.18153689199E+00  0.71981426392E+00  0.11802478837E+01  0.00000000000E+00 0. -1.
         11    1    3    3    0    0 -0.19857846649E+02  0.28325919367E+02  0.12148261299E+02  0.36664315545E+02  0.51100000000E-03 0. -1.
        -11    1    3    3    0    0 -0.60456086957E+01  0.18043098918E+01  0.69151435390E+01  0.93607760957E+01  0.51100000000E-03 0.  1.
        -12    1    3    3    0    0  0.24985905974E+02 -0.30311766151E+02 -0.19783219102E+02  0.43982660476E+02  0.00000000000E+00 0.  1.
</event>
<event>
 7    1  0.2284751E-015  0.9000769E+02  0.7816164E-02  0.1186339E+00
        -11   -1    0    0    0    0  0.00000000000E+00  0.00000000000E+00  0.45593999997E+02  0.45594000000E+02  0.51100000000E-03 0.  1.
         11   -1    0    0    0    0 -0.00000000000E+00 -0.00000000000E+00 -0.45593999997E+02  0.45594000000E+02  0.51100000000E-03 0. -1.
    9900012    2    1    2    0    0 -0.40520176009E+00 -0.36231506436E+00  0.10476948522E+01  0.90007692762E+02  0.89999953507E+02 0.  0.
         12    1    1    2    0    0  0.40520176009E+00  0.36231506436E+00 -0.10476948522E+01  0.11803072378E+01  0.00000000000E+00 0. -1.
         11    1    3    3    0    0  0.93640539571E+01 -0.64689721558E-01 -0.13158316884E+01  0.94562732915E+01  0.51100000000E-03 0. -1.
        -11    1    3    3    0    0  0.17255132204E+00  0.22918253568E+02  0.33419180469E+02  0.40523052008E+02  0.51100000000E-03 0.  1.
         12    1    3    3    0    0 -0.99418070392E+01 -0.23215878911E+02 -0.31055653928E+02  0.40028367463E+02  0.00000000000E+00 0. -1.
</event>
<event>
 7    1  0.2284751E-015  0.9000774E+02  0.7816164E-02  0.1186339E+00
        -11   -1    0    0    0    0  0.00000000000E+00  0.00000000000E+00  0.45593999997E+02  0.45594000000E+02  0.51100000000E-03 0.  1.
         11   -1    0    0    0    0 -0.00000000000E+00 -0.00000000000E+00 -0.45593999997E+02  0.45594000000E+02  0.51100000000E-03 0. -1.
    9900012    2    1    2    0    0 -0.49180344187E+00  0.77168765669E+00  0.74541934811E+00  0.90007736271E+02  0.89999997590E+02 0.  0.
         12    1    1    2    0    0  0.49180344187E+00 -0.77168765669E+00 -0.74541934811E+00  0.11802637288E+01  0.00000000000E+00 0. -1.
         11    1    3    3    0    0  0.34917229147E+01  0.33468801172E+01 -0.14545695302E+02  0.15328763405E+02  0.51100000000E-03 0. -1.
        -11    1    3    3    0    0 -0.26359377665E+02 -0.26120708975E+02 -0.32952204127E+01  0.37255425189E+02  0.51100000000E-03 0.  1.
         12    1    3    3    0    0  0.22375851308E+02  0.23545516514E+02  0.18586335063E+02  0.37423547677E+02  0.00000000000E+00 0. -1.
</event>
<event>
 7    1  0.2284751E-015  0.9000765E+02  0.7816164E-02  0.1186339E+00
        -11   -1    0    0    0    0  0.00000000000E+00  0.00000000000E+00  0.45593999997E+02  0.45594000000E+02  0.51100000000E-03 0. -1.
         11   -1    0    0    0    0 -0.00000000000E+00 -0.00000000000E+00 -0.45593999997E+02  0.45594000000E+02  0.51100000000E-03 0.  1.
    9900012    2    1    2    0    0  0.36870748366E+00  0.45009462159E+00 -0.10269887108E+01  0.90007645736E+02  0.89999905859E+02 0.  0.
         12    1    1    2    0    0 -0.36870748366E+00 -0.45009462159E+00  0.10269887108E+01  0.11803542642E+01  0.00000000000E+00 0. -1.
         11    1    3    3    0    0 -0.40988193463E+01  0.67629118160E+01 -0.10379446772E+02  0.13048762846E+02  0.51100000000E-03 0. -1.
        -11    1    3    3    0    0 -0.16442867221E+02  0.61558931996E+00 -0.28646912255E+02  0.33036228820E+02  0.51100000000E-03 0.  1.
         12    1    3    3    0    0  0.20910394051E+02 -0.69284065144E+01  0.37999370315E+02  0.43922654070E+02  0.00000000000E+00 0. -1.
</event>
<event>
 7    1  0.2284751E-015  0.9000771E+02  0.7816164E-02  0.1186339E+00
        -11   -1    0    0    0    0  0.00000000000E+00  0.00000000000E+00  0.45593999997E+02  0.45594000000E+02  0.51100000000E-03 0. -1.
         11   -1    0    0    0    0 -0.00000000000E+00 -0.00000000000E+00 -0.45593999997E+02  0.45594000000E+02  0.51100000000E-03 0.  1.
    9900012    2    1    2    0    0 -0.59054285911E+00  0.93225416422E+00 -0.41862951420E+00  0.90007707932E+02  0.89999968877E+02 0.  0.
         12    1    1    2    0    0  0.59054285911E+00 -0.93225416422E+00  0.41862951420E+00  0.11802920678E+01  0.00000000000E+00 0. -1.
         11    1    3    3    0    0  0.67250660051E+01  0.39282371801E+02  0.60544005170E+01  0.40311127657E+02  0.51100000000E-03 0. -1.
        -11    1    3    3    0    0  0.62448747007E+01 -0.22642783955E+01 -0.88594153640E+01  0.11073150298E+02  0.51100000000E-03 0.  1.
        -12    1    3    3    0    0 -0.13560483565E+02 -0.36085839241E+02  0.23863853328E+01  0.38623429977E+02  0.00000000000E+00 0.  1.
</event>
<event>
 7    1  0.2284751E-015  0.9000773E+02  0.7816164E-02  0.1186339E+00
        -11   -1    0    0    0    0  0.00000000000E+00  0.00000000000E+00  0.45593999997E+02  0.45594000000E+02  0.51100000000E-03 0. -1.
         11   -1    0    0    0    0 -0.00000000000E+00 -0.00000000000E+00 -0.45593999997E+02  0.45594000000E+02  0.51100000000E-03 0.  1.
    9900012    2    1    2    0    0  0.90371860965E-01 -0.27653380002E+00 -0.11438556955E+01  0.90007727206E+02  0.89999988405E+02 0.  0.
         12    1    1    2    0    0 -0.90371860965E-01  0.27653380002E+00  0.11438556955E+01  0.11802727938E+01  0.00000000000E+00 0. -1.
         11    1    3    3    0    0 -0.81571119834E+01  0.10881372273E+01 -0.72102354628E+01  0.10941207165E+02  0.51100000000E-03 0. -1.
        -11    1    3    3    0    0 -0.25134465283E+02  0.50232881857E+01  0.28509464639E+02  0.38337505703E+02  0.51100000000E-03 0.  1.
         12    1    3    3    0    0  0.33381949127E+02 -0.63879592131E+01 -0.22443084871E+02  0.40729014339E+02  0.00000000000E+00 0. -1.
</event>
<event>
 7    1  0.2284751E-015  0.9000774E+02  0.7816164E-02  0.1186339E+00
        -11   -1    0    0    0    0  0.00000000000E+00  0.00000000000E+00  0.45593999997E+02  0.45594000000E+02  0.51100000000E-03 0.  1.
         11   -1    0    0    0    0 -0.00000000000E+00 -0.00000000000E+00 -0.45593999997E+02  0.45594000000E+02  0.51100000000E-03 0. -1.
    9900012    2    1    2    0    0 -0.17182258661E+00 -0.99383131854E+00  0.61301262347E+00  0.90007742330E+02  0.90000003729E+02 0.  0.
         12    1    1    2    0    0  0.17182258661E+00  0.99383131854E+00 -0.61301262347E+00  0.11802576700E+01  0.00000000000E+00 0. -1.
         11    1    3    3    0    0  0.48986218698E+00  0.77701781443E+01 -0.67179816917E+01  0.10283331738E+02  0.51100000000E-03 0. -1.
        -11    1    3    3    0    0 -0.30215202954E+02  0.19712699690E+02  0.12886633999E+02  0.38309455161E+02  0.51100000000E-03 0.  1.
         12    1    3    3    0    0  0.29553518181E+02 -0.28476709153E+02 -0.55556396838E+01  0.41414955431E+02  0.00000000000E+00 0. -1.
</event>
<event>
 7    1  0.2284751E-015  0.9000765E+02  0.7816164E-02  0.1186339E+00
        -11   -1    0    0    0    0  0.00000000000E+00  0.00000000000E+00  0.45593999997E+02  0.45594000000E+02  0.51100000000E-03 0. -1.
         11   -1    0    0    0    0 -0.00000000000E+00 -0.00000000000E+00 -0.45593999997E+02  0.45594000000E+02  0.51100000000E-03 0.  1.
    9900012    2    1    2    0    0 -0.23211671379E+00 -0.16063916370E+00 -0.11460957926E+01  0.90007653155E+02  0.89999913376E+02 0.  0.
         12    1    1    2    0    0  0.23211671379E+00  0.16063916370E+00  0.11460957926E+01  0.11803468455E+01  0.00000000000E+00 0. -1.
         11    1    3    3    0    0  0.53434999535E+00 -0.14276918229E+01 -0.83993010246E+01  0.85365152036E+01  0.51100000000E-03 0. -1.
        -11    1    3    3    0    0 -0.32152717505E+02 -0.24288840696E+02  0.75418460144E+01  0.40995420073E+02  0.51100000000E-03 0.  1.
         12    1    3    3    0    0  0.31386250796E+02  0.25555893356E+02 -0.28864078243E+00  0.40475717878E+02  0.00000000000E+00 0. -1.
</event>
<event>
 7    1  0.2284751E-015  0.9000774E+02  0.7816164E-02  0.1186339E+00
        -11   -1    0    0    0    0  0.00000000000E+00  0.00000000000E+00  0.45593999997E+02  0.45594000000E+02  0.51100000000E-03 0. -1.
         11   -1    0    0    0    0 -0.00000000000E+00 -0.00000000000E+00 -0.45593999997E+02  0.45594000000E+02  0.51100000000E-03 0.  1.
    9900012    2    1    2    0    0  0.90089470745E-01  0.43162884158E+00 -0.10948046057E+01  0.90007738718E+02  0.90000000069E+02 0.  0.
         12    1    1    2    0    0 -0.90089470745E-01 -0.43162884158E+00  0.10948046057E+01  0.11802612822E+01  0.00000000000E+00 0. -1.
         11    1    3    3    0    0 -0.28796283036E+00  0.70392700712E+01 -0.62160632841E+01  0.93954078538E+01  0.51100000000E-03 0. -1.
        -11    1    3    3    0    0  0.29727659645E+02  0.23160141901E+02  0.86361569380E+01  0.38661468257E+02  0.51100000000E-03 0.  1.
         12    1    3    3    0    0 -0.29349607344E+02 -0.29767783130E+02 -0.35148982595E+01  0.41950862607E+02  0.00000000000E+00 0. -1.
</event>
<event>
 7    1  0.2284751E-015  0.9000783E+02  0.7816164E-02  0.1186339E+00
        -11   -1    0    0    0    0  0.00000000000E+00  0.00000000000E+00  0.45593999997E+02  0.45594000000E+02  0.51100000000E-03 0. -1.
         11   -1    0    0    0    0 -0.00000000000E+00 -0.00000000000E+00 -0.45593999997E+02  0.45594000000E+02  0.51100000000E-03 0.  1.
    9900012    2    1    2    0    0  0.69974991154E+00 -0.63354310504E+00 -0.70836296042E+00  0.90007828450E+02  0.90000090985E+02 0.  0.
         12    1    1    2    0    0 -0.69974991154E+00  0.63354310504E+00  0.70836296042E+00  0.11801715504E+01  0.00000000000E+00 0. -1.
         11    1    3    3    0    0  0.21184179760E+02 -0.30309169676E+02 -0.38238152230E+01  0.37175755563E+02  0.51100000000E-03 0. -1.
        -11    1    3    3    0    0  0.65655155266E+01 -0.43040473141E+01  0.50886899163E+01  0.93555108218E+01  0.51100000000E-03 0.  1.
        -12    1    3    3    0    0 -0.27049945375E+02  0.33979673885E+02 -0.19732376537E+01  0.43476562065E+02  0.00000000000E+00 0.  1.
</event>
<event>
 7    1  0.2284751E-015  0.9000784E+02  0.7816164E-02  0.1186339E+00
        -11   -1    0    0    0    0  0.00000000000E+00  0.00000000000E+00  0.45593999997E+02  0.45594000000E+02  0.51100000000E-03 0.  1.
         11   -1    0    0    0    0 -0.00000000000E+00 -0.00000000000E+00 -0.45593999997E+02  0.45594000000E+02  0.51100000000E-03 0. -1.
    9900012    2    1    2    0    0 -0.24380187361E+00  0.40824162203E+00  0.10801254697E+01  0.90007842550E+02  0.90000105272E+02 0.  0.
         12    1    1    2    0    0  0.24380187361E+00 -0.40824162203E+00 -0.10801254697E+01  0.11801574496E+01  0.00000000000E+00 0. -1.
         11    1    3    3    0    0 -0.49745365327E+01  0.76443910823E+01  0.15603418375E+01  0.92529668564E+01  0.51100000000E-03 0. -1.
        -11    1    3    3    0    0 -0.24917917146E+02  0.14352622242E+02  0.23328618458E+02  0.37028702374E+02  0.51100000000E-03 0.  1.
         12    1    3    3    0    0  0.29648651805E+02 -0.21588771702E+02 -0.23808834826E+02  0.43726173320E+02  0.00000000000E+00 0. -1.
</event>
<event>
 7    1  0.2284751E-015  0.9000767E+02  0.7816164E-02  0.1186339E+00
        -11   -1    0    0    0    0  0.00000000000E+00  0.00000000000E+00  0.45593999997E+02  0.45594000000E+02  0.51100000000E-03 0.  1.
         11   -1    0    0    0    0 -0.00000000000E+00 -0.00000000000E+00 -0.45593999997E+02  0.45594000000E+02  0.51100000000E-03 0. -1.
    9900012    2    1    2    0    0  0.94353642680E+00  0.95862710435E-01  0.70265788971E+00  0.90007670064E+02  0.89999930509E+02 0.  0.
         12    1    1    2    0    0 -0.94353642680E+00 -0.95862710435E-01 -0.70265788971E+00  0.11803299360E+01  0.00000000000E+00 0. -1.
         11    1    3    3    0    0 -0.40347672676E+01  0.55507412850E+01  0.69476248100E+01  0.97652222954E+01  0.51100000000E-03 0. -1.
        -11    1    3    3    0    0 -0.59688309139E+01 -0.30334617267E+02  0.24322894465E+02  0.39337248793E+02  0.51100000000E-03 0.  1.
         12    1    3    3    0    0  0.10947134608E+02  0.24879738692E+02 -0.30567861386E+02  0.40905198975E+02  0.00000000000E+00 0. -1.
</event>
<event>
 7    1  0.2284751E-015  0.9000776E+02  0.7816164E-02  0.1186339E+00
        -11   -1    0    0    0    0  0.00000000000E+00  0.00000000000E+00  0.45593999997E+02  0.45594000000E+02  0.51100000000E-03 0. -1.
         11   -1    0    0    0    0 -0.00000000000E+00 -0.00000000000E+00 -0.45593999997E+02  0.45594000000E+02  0.51100000000E-03 0.  1.
    9900012    2    1    2    0    0 -0.49955927983E-01 -0.35545912642E+00 -0.11243317540E+01  0.90007759059E+02  0.90000020679E+02 0.  0.
         12    1    1    2    0    0  0.49955927983E-01  0.35545912642E+00  0.11243317540E+01  0.11802409408E+01  0.00000000000E+00 0. -1.
         11    1    3    3    0    0 -0.39474428837E+02 -0.48881657723E+01  0.26606744549E+01  0.39864820148E+02  0.51100000000E-03 0. -1.
        -11    1    3    3    0    0  0.46434387688E+01 -0.70421630336E+01 -0.98714717270E+01  0.12984588484E+02  0.51100000000E-03 0.  1.
        -12    1    3    3    0    0  0.34781034140E+02  0.11574869679E+02  0.60864655181E+01  0.37158350427E+02  0.00000000000E+00 0.  1.
</event>
<event>
 7    1  0.2513387E-015  0.9000774E+02  0.7816164E-02  0.1186339E+00
        -11   -1    0    0    0    0  0.00000000000E+00  0.00000000000E+00  0.45593999997E+02  0.45594000000E+02  0.51100000000E-03 0.  1.
         11   -1    0    0    0    0 -0.00000000000E+00 -0.00000000000E+00 -0.45593999997E+02  0.45594000000E+02  0.51100000000E-03 0. -1.
    9900012    2    1    2    0    0 -0.14984047377E+00 -0.34219962608E+00  0.11195769269E+01  0.90007743567E+02  0.90000004982E+02 0.  0.
         12    1    1    2    0    0  0.14984047377E+00  0.34219962608E+00 -0.11195769269E+01  0.11802564327E+01  0.00000000000E+00 0. -1.
         11    1    3    3    0    0 -0.51002175893E+01  0.28552692466E+02 -0.29268281302E+02  0.41205591334E+02  0.51100000000E-03 0. -1.
        -11    1    3    3    0    0  0.32467668052E+00 -0.90068600738E+01 -0.31416342945E+01  0.95445696413E+01  0.51100000000E-03 0.  1.
        -12    1    3    3    0    0  0.46257004350E+01 -0.19888032019E+02  0.33529492524E+02  0.39257582592E+02  0.00000000000E+00 0.  1.
</event>
<event>
 7    1  0.2284751E-015  0.9000775E+02  0.7816164E-02  0.1186339E+00
        -11   -1    0    0    0    0  0.00000000000E+00  0.00000000000E+00  0.45593999997E+02  0.45594000000E+02  0.51100000000E-03 0. -1.
         11   -1    0    0    0    0 -0.00000000000E+00 -0.00000000000E+00 -0.45593999997E+02  0.45594000000E+02  0.51100000000E-03 0.  1.
    9900012    2    1    2    0    0 -0.11339014677E+01  0.21503471000E+00  0.24700166430E+00  0.90007753294E+02  0.90000014837E+02 0.  0.
         12    1    1    2    0    0  0.11339014677E+01 -0.21503471000E+00 -0.24700166430E+00  0.11802467061E+01  0.00000000000E+00 0. -1.
         11    1    3    3    0    0 -0.12356150570E+01 -0.39897801419E+02  0.48329746174E+01  0.40208443722E+02  0.51100000000E-03 0. -1.
        -11    1    3    3    0    0  0.87097907366E+01  0.42614078158E+00 -0.27685395807E+01  0.91491454416E+01  0.51100000000E-03 0.  1.
        -12    1    3    3    0    0 -0.86080771473E+01  0.39686695347E+02 -0.18174333724E+01  0.40650164130E+02  0.00000000000E+00 0.  1.
</event>
<event>
 7    1  0.2284751E-015  0.9000782E+02  0.7816164E-02  0.1186339E+00
        -11   -1    0    0    0    0  0.00000000000E+00  0.00000000000E+00  0.45593999997E+02  0.45594000000E+02  0.51100000000E-03 0.  1.
         11   -1    0    0    0    0 -0.00000000000E+00 -0.00000000000E+00 -0.45593999997E+02  0.45594000000E+02  0.51100000000E-03 0. -1.
    9900012    2    1    2    0    0 -0.98319377943E+00 -0.11309074541E+00 -0.64292718544E+00  0.90007824212E+02  0.90000086692E+02 0.  0.
         12    1    1    2    0    0  0.98319377943E+00  0.11309074541E+00  0.64292718544E+00  0.11801757879E+01  0.00000000000E+00 0. -1.
         11    1    3    3    0    0  0.34039863289E+02 -0.76376547092E+01  0.17148787501E+02  0.38873216682E+02  0.51100000000E-03 0. -1.
        -11    1    3    3    0    0  0.48383519292E-01 -0.89515203487E+01 -0.53922631997E+01  0.10450289957E+02  0.51100000000E-03 0.  1.
        -12    1    3    3    0    0 -0.35071440588E+02  0.16476084312E+02 -0.12399451487E+02  0.40684317573E+02  0.00000000000E+00 0.  1.
</event>
<event>
 7    1  0.2284751E-015  0.9000769E+02  0.7816164E-02  0.1186339E+00
        -11   -1    0    0    0    0  0.00000000000E+00  0.00000000000E+00  0.45593999997E+02  0.45594000000E+02  0.51100000000E-03 0. -1.
         11   -1    0    0    0    0 -0.00000000000E+00 -0.00000000000E+00 -0.45593999997E+02  0.45594000000E+02  0.51100000000E-03 0.  1.
    9900012    2    1    2    0    0 -0.71995434279E+00 -0.92985984378E+00 -0.10077844382E+00  0.90007690770E+02  0.89999951488E+02 0.  0.
         12    1    1    2    0    0  0.71995434279E+00  0.92985984378E+00  0.10077844382E+00  0.11803092305E+01  0.00000000000E+00 0. -1.
         11    1    3    3    0    0 -0.77572495713E+01  0.35174793361E+01 -0.46393317175E+01  0.96990195812E+01  0.51100000000E-03 0. -1.
        -11    1    3    3    0    0 -0.31120711996E+01  0.14317494097E+02 -0.33573829546E+02  0.36631648270E+02  0.51100000000E-03 0.  1.
         12    1    3    3    0    0  0.10149366428E+02 -0.18764833276E+02  0.38112382820E+02  0.43677022918E+02  0.00000000000E+00 0. -1.
</event>
<event>
 7    1  0.2284751E-015  0.9000783E+02  0.7816164E-02  0.1186339E+00
        -11   -1    0    0    0    0  0.00000000000E+00  0.00000000000E+00  0.45593999997E+02  0.45594000000E+02  0.51100000000E-03 0.  1.
         11   -1    0    0    0    0 -0.00000000000E+00 -0.00000000000E+00 -0.45593999997E+02  0.45594000000E+02  0.51100000000E-03 0. -1.
    9900012    2    1    2    0    0 -0.88497817470E+00  0.56121085942E+00 -0.54283320284E+00  0.90007825486E+02  0.90000087982E+02 0.  0.
         12    1    1    2    0    0  0.88497817470E+00 -0.56121085942E+00  0.54283320284E+00  0.11801745144E+01  0.00000000000E+00 0. -1.
         11    1    3    3    0    0 -0.10110727842E+02  0.36304655737E+02  0.15397033840E+02  0.40710238233E+02  0.51100000000E-03 0. -1.
        -11    1    3    3    0    0  0.75468236471E+01 -0.23617813577E+01  0.54603278457E+01  0.96097730871E+01  0.51100000000E-03 0.  1.
        -12    1    3    3    0    0  0.16789260207E+01 -0.33381663520E+02 -0.21400194888E+02  0.39687814165E+02  0.00000000000E+00 0.  1.
</event>
<event>
 7    1  0.2284751E-015  0.9000777E+02  0.7816164E-02  0.1186339E+00
        -11   -1    0    0    0    0  0.00000000000E+00  0.00000000000E+00  0.45593999997E+02  0.45594000000E+02  0.51100000000E-03 0.  1.
         11   -1    0    0    0    0 -0.00000000000E+00 -0.00000000000E+00 -0.45593999997E+02  0.45594000000E+02  0.51100000000E-03 0. -1.
    9900012    2    1    2    0    0 -0.89872610623E+00 -0.14036446769E+00 -0.75201310420E+00  0.90007773536E+02  0.90000035347E+02 0.  0.
         12    1    1    2    0    0  0.89872610623E+00  0.14036446769E+00  0.75201310420E+00  0.11802264642E+01  0.00000000000E+00 0. -1.
         11    1    3    3    0    0  0.24176757830E+01  0.47273854845E+01 -0.17380178674E+00  0.53125828966E+01  0.51100000000E-03 0. -1.
        -11    1    3    3    0    0  0.11457959105E+02 -0.42163264409E+02  0.58011006120E+01  0.44075826266E+02  0.51100000000E-03 0.  1.
         12    1    3    3    0    0 -0.14774360994E+02  0.37295514457E+02 -0.63793119295E+01  0.40619364373E+02  0.00000000000E+00 0. -1.
</event>
<event>
 7    1  0.2284751E-015  0.9000772E+02  0.7816164E-02  0.1186339E+00
        -11   -1    0    0    0    0  0.00000000000E+00  0.00000000000E+00  0.45593999997E+02  0.45594000000E+02  0.51100000000E-03 0. -1.
         11   -1    0    0    0    0 -0.00000000000E+00 -0.00000000000E+00 -0.45593999997E+02  0.45594000000E+02  0.51100000000E-03 0.  1.
    9900012    2    1    2    0    0 -0.93587871324E+00  0.12558531673E+00 -0.70811463254E+00  0.90007717419E+02  0.89999978489E+02 0.  0.
         12    1    1    2    0    0  0.93587871324E+00 -0.12558531673E+00  0.70811463254E+00  0.11802825808E+01  0.00000000000E+00 0. -1.
         11    1    3    3    0    0  0.80866623244E+01 -0.89775618764E+01  0.81232950786E+00  0.12109938244E+02  0.51100000000E-03 0. -1.
        -11    1    3    3    0    0  0.26292500509E+02  0.25554643490E+02  0.85696682034E+01  0.37653347797E+02  0.51100000000E-03 0.  1.
         12    1    3    3    0    0 -0.35315041546E+02 -0.16451496297E+02 -0.10090112344E+02  0.40244431378E+02  0.00000000000E+00 0. -1.
</event>
<event>
 7    1  0.2284751E-015  0.9000776E+02  0.7816164E-02  0.1186339E+00
        -11   -1    0    0    0    0  0.00000000000E+00  0.00000000000E+00  0.45593999997E+02  0.45594000000E+02  0.51100000000E-03 0. -1.
         11   -1    0    0    0    0 -0.00000000000E+00 -0.00000000000E+00 -0.45593999997E+02  0.45594000000E+02  0.51100000000E-03 0.  1.
    9900012    2    1    2    0    0 -0.10258375205E+01  0.20592512637E+00  0.54608871245E+00  0.90007762457E+02  0.90000024121E+02 0.  0.
         12    1    1    2    0    0  0.10258375205E+01 -0.20592512637E+00 -0.54608871245E+00  0.11802375430E+01  0.00000000000E+00 0. -1.
         11    1    3    3    0    0 -0.94757145069E+01 -0.15947634472E+01  0.47870900640E+00  0.96208938484E+01  0.51100000000E-03 0. -1.
        -11    1    3    3    0    0 -0.24800064553E+02 -0.95568327055E+01 -0.25578437622E+02  0.36886755409E+02  0.51100000000E-03 0.  1.
         12    1    3    3    0    0  0.33249941539E+02  0.11357521279E+02  0.25645817328E+02  0.43500113200E+02  0.00000000000E+00 0. -1.
</event>
<event>
 7    1  0.2284751E-015  0.9000775E+02  0.7816164E-02  0.1186339E+00
        -11   -1    0    0    0    0  0.00000000000E+00  0.00000000000E+00  0.45593999997E+02  0.45594000000E+02  0.51100000000E-03 0. -1.
         11   -1    0    0    0    0 -0.00000000000E+00 -0.00000000000E+00 -0.45593999997E+02  0.45594000000E+02  0.51100000000E-03 0.  1.
    9900012    2    1    2    0    0  0.86962563286E+00  0.61405465256E+00 -0.50958449603E+00  0.90007750782E+02  0.90000012292E+02 0.  0.
         12    1    1    2    0    0 -0.86962563286E+00 -0.61405465256E+00  0.50958449603E+00  0.11802492179E+01  0.00000000000E+00 0. -1.
         11    1    3    3    0    0  0.64062756422E+01 -0.95424846690E+01  0.35197572496E+01  0.12020319156E+02  0.51100000000E-03 0. -1.
        -11    1    3    3    0    0  0.31267297370E+02  0.61496248332E+00  0.15874852417E+02  0.35071826346E+02  0.51100000000E-03 0.  1.
         12    1    3    3    0    0 -0.36803947380E+02  0.95415768382E+01 -0.19904194163E+02  0.42915605280E+02  0.00000000000E+00 0. -1.
</event>
<event>
 7    1  0.2877191E-015  0.9000759E+02  0.7816164E-02  0.1186339E+00
        -11   -1    0    0    0    0  0.00000000000E+00  0.00000000000E+00  0.45593999997E+02  0.45594000000E+02  0.51100000000E-03 0.  1.
         11   -1    0    0    0    0 -0.00000000000E+00 -0.00000000000E+00 -0.45593999997E+02  0.45594000000E+02  0.51100000000E-03 0. -1.
    9900012    2    1    2    0    0  0.11222431669E+01  0.20350393670E+00  0.30416612964E+00  0.90007593031E+02  0.89999852459E+02 0.  0.
         12    1    1    2    0    0 -0.11222431669E+01 -0.20350393670E+00 -0.30416612964E+00  0.11804069690E+01  0.00000000000E+00 0. -1.
         11    1    3    3    0    0  0.64373845816E+01 -0.76610815519E+01 -0.40444267212E+02  0.41663783330E+02  0.51100000000E-03 0. -1.
        -11    1    3    3    0    0 -0.89582434516E+01 -0.43144720493E+00  0.28998283965E+01  0.94257772846E+01  0.51100000000E-03 0.  1.
        -12    1    3    3    0    0  0.36431020369E+01  0.82960326936E+01  0.37848604945E+02  0.38918032417E+02  0.00000000000E+00 0.  1.
</event>
<event>
 7    1  0.2284751E-015  0.9000775E+02  0.7816164E-02  0.1186339E+00
        -11   -1    0    0    0    0  0.00000000000E+00  0.00000000000E+00  0.45593999997E+02  0.45594000000E+02  0.51100000000E-03 0.  1.
         11   -1    0    0    0    0 -0.00000000000E+00 -0.00000000000E+00 -0.45593999997E+02  0.45594000000E+02  0.51100000000E-03 0. -1.
    9900012    2    1    2    0    0  0.33090785272E+00  0.11005680679E+01  0.26876534713E+00  0.90007752191E+02  0.90000013720E+02 0.  0.
         12    1    1    2    0    0 -0.33090785272E+00 -0.11005680679E+01 -0.26876534713E+00  0.11802478091E+01  0.00000000000E+00 0. -1.
         11    1    3    3    0    0  0.29747000673E+02 -0.25222217847E+01  0.25659026569E+02  0.39365356553E+02  0.51100000000E-03 0. -1.
        -11    1    3    3    0    0  0.17286767166E+01  0.90761124071E+01  0.12159808439E+01  0.93189457178E+01  0.51100000000E-03 0.  1.
        -12    1    3    3    0    0 -0.31144769537E+02 -0.54533225545E+01 -0.26606242066E+02  0.41323449920E+02  0.00000000000E+00 0.  1.
</event>
<event>
 7    1  0.2284751E-015  0.9000778E+02  0.7816164E-02  0.1186339E+00
        -11   -1    0    0    0    0  0.00000000000E+00  0.00000000000E+00  0.45593999997E+02  0.45594000000E+02  0.51100000000E-03 0. -1.
         11   -1    0    0    0    0 -0.00000000000E+00 -0.00000000000E+00 -0.45593999997E+02  0.45594000000E+02  0.51100000000E-03 0.  1.
    9900012    2    1    2    0    0  0.49393633981E+00 -0.10285423534E+01 -0.30172363227E+00  0.90007784074E+02  0.90000046024E+02 0.  0.
         12    1    1    2    0    0 -0.49393633981E+00  0.10285423534E+01  0.30172363227E+00  0.11802159255E+01  0.00000000000E+00 0. -1.
         11    1    3    3    0    0 -0.64542115321E+01 -0.56317242094E+01 -0.40300364658E+01  0.94664860561E+01  0.51100000000E-03 0. -1.
        -11    1    3    3    0    0  0.41128457673E+02 -0.57777779360E+01  0.13209765495E+02  0.43582458090E+02  0.51100000000E-03 0.  1.
         12    1    3    3    0    0 -0.34180309801E+02  0.10380959792E+02 -0.94814526614E+01  0.36958839929E+02  0.00000000000E+00 0. -1.
</event>
<event>
 7    1  0.2284751E-015  0.9000774E+02  0.7816164E-02  0.1186339E+00
        -11   -1    0    0    0    0  0.00000000000E+00  0.00000000000E+00  0.45593999997E+02  0.45594000000E+02  0.51100000000E-03 0.  1.
         11   -1    0    0    0    0 -0.00000000000E+00 -0.00000000000E+00 -0.45593999997E+02  0.45594000000E+02  0.51100000000E-03 0. -1.
    9900012    2    1    2    0    0 -0.59365241316E+00  0.10579427445E+00  0.10145976208E+01  0.90007735645E+02  0.89999996955E+02 0.  0.
         12    1    1    2    0    0  0.59365241316E+00 -0.10579427445E+00 -0.10145976208E+01  0.11802643553E+01  0.00000000000E+00 0. -1.
         11    1    3    3    0    0 -0.24734165078E+01 -0.13707118503E+02 -0.92041643699E+01  0.16694895294E+02  0.51100000000E-03 0. -1.
        -11    1    3    3    0    0 -0.25240510731E+02  0.26684590210E+02  0.19894169860E+02  0.41772344096E+02  0.51100000000E-03 0.  1.
         12    1    3    3    0    0  0.27120274825E+02 -0.12871677433E+02 -0.96754078690E+01  0.31540496254E+02  0.00000000000E+00 0. -1.
</event>
<event>
 7    1  0.2284751E-015  0.9000775E+02  0.7816164E-02  0.1186339E+00
        -11   -1    0    0    0    0  0.00000000000E+00  0.00000000000E+00  0.45593999997E+02  0.45594000000E+02  0.51100000000E-03 0.  1.
         11   -1    0    0    0    0 -0.00000000000E+00 -0.00000000000E+00 -0.45593999997E+02  0.45594000000E+02  0.51100000000E-03 0. -1.
    9900012    2    1    2    0    0 -0.22857056753E+00  0.61796042984E+00  0.97921426045E+00  0.90007754193E+02  0.90000015748E+02 0.  0.
         12    1    1    2    0    0  0.22857056753E+00 -0.61796042984E+00 -0.97921426045E+00  0.11802458071E+01  0.00000000000E+00 0. -1.
         11    1    3    3    0    0 -0.59089164492E+01  0.33832151899E+01 -0.61360655823E+01  0.91658463720E+01  0.51100000000E-03 0. -1.
        -11    1    3    3    0    0  0.98715865137E+01 -0.32353310497E+02  0.28388548427E+02  0.44159875481E+02  0.51100000000E-03 0.  1.
         12    1    3    3    0    0 -0.41912406321E+01  0.29588055737E+02 -0.21273268585E+02  0.36682032340E+02  0.00000000000E+00 0. -1.
</event>
<event>
 7    1  0.2284751E-015  0.9000779E+02  0.7816164E-02  0.1186339E+00
        -11   -1    0    0    0    0  0.00000000000E+00  0.00000000000E+00  0.45593999997E+02  0.45594000000E+02  0.51100000000E-03 0.  1.
         11   -1    0    0    0    0 -0.00000000000E+00 -0.00000000000E+00 -0.45593999997E+02  0.45594000000E+02  0.51100000000E-03 0. -1.
    9900012    2    1    2    0    0  0.11244861189E+01 -0.25281215765E-01  0.35747915176E+00  0.90007788360E+02  0.90000050366E+02 0.  0.
         12    1    1    2    0    0 -0.11244861189E+01  0.25281215765E-01 -0.35747915176E+00  0.11802116401E+01  0.00000000000E+00 0. -1.
         11    1    3    3    0    0  0.17493548793E+02  0.22105178436E+02  0.22404752095E+02  0.36008833358E+02  0.51100000000E-03 0. -1.
        -11    1    3    3    0    0 -0.55248340202E+01 -0.50077820231E+00  0.11423023297E+02  0.12698820074E+02  0.51100000000E-03 0.  1.
        -12    1    3    3    0    0 -0.10844228654E+02 -0.21629681450E+02 -0.33470296240E+02  0.41300134929E+02  0.00000000000E+00 0.  1.
</event>
<event>
 7    1  0.2284751E-015  0.9000759E+02  0.7816164E-02  0.1186339E+00
        -11   -1    0    0    0    0  0.00000000000E+00  0.00000000000E+00  0.45593999997E+02  0.45594000000E+02  0.51100000000E-03 0. -1.
         11   -1    0    0    0    0 -0.00000000000E+00 -0.00000000000E+00 -0.45593999997E+02  0.45594000000E+02  0.51100000000E-03 0.  1.
    9900012    2    1    2    0    0  0.99919235714E-01  0.19557918030E-01 -0.11760085269E+01  0.90007592265E+02  0.89999851683E+02 0.  0.
         12    1    1    2    0    0 -0.99919235714E-01 -0.19557918030E-01  0.11760085269E+01  0.11804077351E+01  0.00000000000E+00 0. -1.
         11    1    3    3    0    0 -0.13712284599E+02 -0.28441089732E+02  0.24199030796E+02  0.39780842447E+02  0.51100000000E-03 0. -1.
        -11    1    3    3    0    0  0.32632193971E+01  0.10009948835E+02  0.61601112164E+01  0.12198141128E+02  0.51100000000E-03 0.  1.
        -12    1    3    3    0    0  0.10548984437E+02  0.18450698815E+02 -0.31535150539E+02  0.38028608690E+02  0.00000000000E+00 0.  1.
</event>
<event>
 7    1  0.2284751E-015  0.9000772E+02  0.7816164E-02  0.1186339E+00
        -11   -1    0    0    0    0  0.00000000000E+00  0.00000000000E+00  0.45593999997E+02  0.45594000000E+02  0.51100000000E-03 0. -1.
         11   -1    0    0    0    0 -0.00000000000E+00 -0.00000000000E+00 -0.45593999997E+02  0.45594000000E+02  0.51100000000E-03 0.  1.
    9900012    2    1    2    0    0 -0.54480624568E+00 -0.66628670742E-01 -0.10448955080E+01  0.90007720437E+02  0.89999981546E+02 0.  0.
         12    1    1    2    0    0  0.54480624568E+00  0.66628670742E-01  0.10448955080E+01  0.11802795634E+01  0.00000000000E+00 0. -1.
         11    1    3    3    0    0 -0.64040300422E+01  0.77119608298E+01  0.10984941676E+01  0.10084276390E+02  0.51100000000E-03 0. -1.
        -11    1    3    3    0    0  0.21384378554E+02 -0.19848426864E+02 -0.32549849139E+02  0.43712062115E+02  0.51100000000E-03 0.  1.
         12    1    3    3    0    0 -0.15525154758E+02  0.12069837364E+02  0.30406459463E+02  0.36211381931E+02  0.00000000000E+00 0. -1.
</event>
<event>
 7    1  0.2284751E-015  0.9000772E+02  0.7816164E-02  0.1186339E+00
        -11   -1    0    0    0    0  0.00000000000E+00  0.00000000000E+00  0.45593999997E+02  0.45594000000E+02  0.51100000000E-03 0. -1.
         11   -1    0    0    0    0 -0.00000000000E+00 -0.00000000000E+00 -0.45593999997E+02  0.45594000000E+02  0.51100000000E-03 0.  1.
    9900012    2    1    2    0    0  0.58337300722E+00  0.51428199006E+00 -0.88783976691E+00  0.90007716355E+02  0.89999977411E+02 0.  0.
         12    1    1    2    0    0 -0.58337300722E+00 -0.51428199006E+00  0.88783976691E+00  0.11802836450E+01  0.00000000000E+00 0. -1.
         11    1    3    3    0    0 -0.90573801323E+00 -0.21006116022E+01  0.93270585875E+01  0.96034864818E+01  0.51100000000E-03 0. -1.
        -11    1    3    3    0    0  0.16870358840E+02 -0.35043597888E+02 -0.22855820428E+01  0.38960064757E+02  0.51100000000E-03 0.  1.
         12    1    3    3    0    0 -0.15381247819E+02  0.37658491480E+02 -0.79293163116E+01  0.41444165117E+02  0.00000000000E+00 0. -1.
</event>
<event>
 7    1  0.2284751E-015  0.9000773E+02  0.7816164E-02  0.1186339E+00
        -11   -1    0    0    0    0  0.00000000000E+00  0.00000000000E+00  0.45593999997E+02  0.45594000000E+02  0.51100000000E-03 0. -1.
         11   -1    0    0    0    0 -0.00000000000E+00 -0.00000000000E+00 -0.45593999997E+02  0.45594000000E+02  0.51100000000E-03 0.  1.
    9900012    2    1    2    0    0  0.97174053988E+00 -0.64822019258E+00 -0.16902702963E+00  0.90007729170E+02  0.89999990395E+02 0.  0.
         12    1    1    2    0    0 -0.97174053988E+00  0.64822019258E+00  0.16902702963E+00  0.11802708298E+01  0.00000000000E+00 0. -1.
         11    1    3    3    0    0 -0.16938217017E+02 -0.14812370828E+02  0.31112122272E+02  0.38396271666E+02  0.51100000000E-03 0. -1.
        -11    1    3    3    0    0 -0.62083077821E+00 -0.96913410681E+01 -0.28299890368E+01  0.10115155004E+02  0.51100000000E-03 0.  1.
         12    1    3    3    0    0  0.18530788335E+02  0.23855491703E+02 -0.28451160265E+02  0.41496302500E+02  0.00000000000E+00 0. -1.
</event>
<event>
 7    1  0.2284751E-015  0.9000771E+02  0.7816164E-02  0.1186339E+00
        -11   -1    0    0    0    0  0.00000000000E+00  0.00000000000E+00  0.45593999997E+02  0.45594000000E+02  0.51100000000E-03 0. -1.
         11   -1    0    0    0    0 -0.00000000000E+00 -0.00000000000E+00 -0.45593999997E+02  0.45594000000E+02  0.51100000000E-03 0.  1.
    9900012    2    1    2    0    0 -0.28899189238E+00 -0.29264599880E+00 -0.11063113037E+01  0.90007710758E+02  0.89999971740E+02 0.  0.
         12    1    1    2    0    0  0.28899189238E+00  0.29264599880E+00  0.11063113037E+01  0.11802892422E+01  0.00000000000E+00 0. -1.
         11    1    3    3    0    0  0.19147864999E+02 -0.18113125776E+02  0.29143120236E+02  0.39294370039E+02  0.51100000000E-03 0. -1.
        -11    1    3    3    0    0 -0.26406880091E+01 -0.15132725775E+01  0.57662504047E+01  0.65201894947E+01  0.51100000000E-03 0.  1.
        -12    1    3    3    0    0 -0.16796168882E+02  0.19333752354E+02 -0.36015681945E+02  0.44193151224E+02  0.00000000000E+00 0.  1.
</event>
<event>
 7    1  0.2284751E-015  0.9000817E+02  0.7816164E-02  0.1186338E+00
        -11   -1    0    0    0    0  0.00000000000E+00  0.00000000000E+00  0.45593999997E+02  0.45594000000E+02  0.51100000000E-03 0.  1.
         11   -1    0    0    0    0 -0.00000000000E+00 -0.00000000000E+00 -0.45593999997E+02  0.45594000000E+02  0.51100000000E-03 0. -1.
    9900012    2    1    2    0    0 -0.14782265893E+00  0.78131076472E+00 -0.87160412089E+00  0.90008172982E+02  0.90000440064E+02 0.  0.
         12    1    1    2    0    0  0.14782265893E+00 -0.78131076472E+00  0.87160412089E+00  0.11798270183E+01  0.00000000000E+00 0. -1.
         11    1    3    3    0    0  0.22117992720E+01  0.39119122701E+02  0.22284923657E+01  0.39244923180E+02  0.51100000000E-03 0. -1.
        -11    1    3    3    0    0 -0.45218790109E+01  0.21436308630E+01  0.73565105191E+01  0.88972349831E+01  0.51100000000E-03 0.  1.
        -12    1    3    3    0    0  0.21622570800E+01 -0.40481442799E+02 -0.10456607006E+02  0.41866014819E+02  0.00000000000E+00 0.  1.
</event>
<event>
 7    1  0.2284751E-015  0.9000769E+02  0.7816164E-02  0.1186339E+00
        -11   -1    0    0    0    0  0.00000000000E+00  0.00000000000E+00  0.45593999997E+02  0.45594000000E+02  0.51100000000E-03 0. -1.
         11   -1    0    0    0    0 -0.00000000000E+00 -0.00000000000E+00 -0.45593999997E+02  0.45594000000E+02  0.51100000000E-03 0.  1.
    9900012    2    1    2    0    0  0.41146683485E+00 -0.60166452149E+00 -0.92834600667E+00  0.90007690100E+02  0.89999950809E+02 0.  0.
         12    1    1    2    0    0 -0.41146683485E+00  0.60166452149E+00  0.92834600667E+00  0.11803099003E+01  0.00000000000E+00 0. -1.
         11    1    3    3    0    0  0.13718418374E+02  0.24507944373E+02  0.23518248594E+02  0.36632531407E+02  0.51100000000E-03 0. -1.
        -11    1    3    3    0    0  0.10208786722E+02  0.67498875661E+00  0.86070124220E+00  0.10267216909E+02  0.51100000000E-03 0.  1.
        -12    1    3    3    0    0 -0.23515738261E+02 -0.25784597651E+02 -0.25307295843E+02  0.43107941784E+02  0.00000000000E+00 0.  1.
</event>
<event>
 7    1  0.2284751E-015  0.9000772E+02  0.7816164E-02  0.1186339E+00
        -11   -1    0    0    0    0  0.00000000000E+00  0.00000000000E+00  0.45593999997E+02  0.45594000000E+02  0.51100000000E-03 0. -1.
         11   -1    0    0    0    0 -0.00000000000E+00 -0.00000000000E+00 -0.45593999997E+02  0.45594000000E+02  0.51100000000E-03 0.  1.
    9900012    2    1    2    0    0  0.12002302514E+00 -0.47756989406E+00 -0.10726504637E+01  0.90007721411E+02  0.89999982534E+02 0.  0.
         12    1    1    2    0    0 -0.12002302514E+00  0.47756989406E+00  0.10726504637E+01  0.11802785890E+01  0.00000000000E+00 0. -1.
         11    1    3    3    0    0  0.13458040014E+02 -0.13082700365E+02  0.31054387455E+02  0.36285684096E+02  0.51100000000E-03 0. -1.
        -11    1    3    3    0    0 -0.19627746213E+01 -0.11955821827E+02 -0.54512287534E+00  0.12128120999E+02  0.51100000000E-03 0.  1.
        -12    1    3    3    0    0 -0.11375242368E+02  0.24560952298E+02 -0.31581915043E+02  0.41593916316E+02  0.00000000000E+00 0.  1.
</event>
<event>
 7    1  0.2336445E-015  0.9000758E+02  0.7816164E-02  0.1186339E+00
        -11   -1    0    0    0    0  0.00000000000E+00  0.00000000000E+00  0.45593999997E+02  0.45594000000E+02  0.51100000000E-03 0. -1.
         11   -1    0    0    0    0 -0.00000000000E+00 -0.00000000000E+00 -0.45593999997E+02  0.45594000000E+02  0.51100000000E-03 0.  1.
    9900012    2    1    2    0    0 -0.29632817049E+00 -0.88957493124E+00 -0.71710586681E+00  0.90007578564E+02  0.89999837801E+02 0.  0.
         12    1    1    2    0    0  0.29632817049E+00  0.88957493124E+00  0.71710586681E+00  0.11804214362E+01  0.00000000000E+00 0. -1.
         11    1    3    3    0    0 -0.20534437360E+02 -0.21555650605E+02  0.22229542201E+02  0.37154565499E+02  0.51100000000E-03 0. -1.
        -11    1    3    3    0    0 -0.77204549914E+01 -0.48052138446E+01 -0.10600347252E+01  0.91552814947E+01  0.51100000000E-03 0.  1.
        -12    1    3    3    0    0  0.27958564181E+02  0.25471289518E+02 -0.21886613342E+02  0.43697731570E+02  0.00000000000E+00 0.  1.
</event>
<event>
 7    1  0.2284751E-015  0.9000785E+02  0.7816164E-02  0.1186339E+00
        -11   -1    0    0    0    0  0.00000000000E+00  0.00000000000E+00  0.45593999997E+02  0.45594000000E+02  0.51100000000E-03 0.  1.
         11   -1    0    0    0    0 -0.00000000000E+00 -0.00000000000E+00 -0.45593999997E+02  0.45594000000E+02  0.51100000000E-03 0. -1.
    9900012    2    1    2    0    0  0.78106981415E+00  0.79739173581E+00  0.38320495454E+00  0.90007851843E+02  0.90000114687E+02 0.  0.
         12    1    1    2    0    0 -0.78106981415E+00 -0.79739173581E+00 -0.38320495454E+00  0.11801481568E+01  0.00000000000E+00 0. -1.
         11    1    3    3    0    0  0.28026886993E+02 -0.27808690525E+01 -0.21150672521E+02  0.35222018334E+02  0.51100000000E-03 0. -1.
        -11    1    3    3    0    0  0.10617344458E+02 -0.88968867392E+00 -0.65232613644E+00  0.10674506027E+02  0.51100000000E-03 0.  1.
        -12    1    3    3    0    0 -0.37863161637E+02  0.44679494623E+01  0.22186203612E+02  0.44111327482E+02  0.00000000000E+00 0.  1.
</event>
<event>
 7    1  0.2284751E-015  0.9000773E+02  0.7816164E-02  0.1186339E+00
        -11   -1    0    0    0    0  0.00000000000E+00  0.00000000000E+00  0.45593999997E+02  0.45594000000E+02  0.51100000000E-03 0.  1.
         11   -1    0    0    0    0 -0.00000000000E+00 -0.00000000000E+00 -0.45593999997E+02  0.45594000000E+02  0.51100000000E-03 0. -1.
    9900012    2    1    2    0    0  0.93443515921E+00 -0.69184868677E-01  0.71768808777E+00  0.90007732317E+02  0.89999993583E+02 0.  0.
         12    1    1    2    0    0 -0.93443515921E+00  0.69184868677E-01 -0.71768808777E+00  0.11802676833E+01  0.00000000000E+00 0. -1.
         11    1    3    3    0    0  0.13019802126E+02 -0.38212035210E-01  0.63644207819E-01  0.13020013764E+02  0.51100000000E-03 0. -1.
        -11    1    3    3    0    0  0.43602587240E+01 -0.18998327188E+02  0.31606971019E+02  0.37134201342E+02  0.51100000000E-03 0.  1.
         12    1    3    3    0    0 -0.16445625691E+02  0.18967354355E+02 -0.30952927139E+02  0.39853517210E+02  0.00000000000E+00 0. -1.
</event>
<event>
 7    1  0.2284751E-015  0.9000770E+02  0.7816164E-02  0.1186339E+00
        -11   -1    0    0    0    0  0.00000000000E+00  0.00000000000E+00  0.45593999997E+02  0.45594000000E+02  0.51100000000E-03 0. -1.
         11   -1    0    0    0    0 -0.00000000000E+00 -0.00000000000E+00 -0.45593999997E+02  0.45594000000E+02  0.51100000000E-03 0.  1.
    9900012    2    1    2    0    0 -0.10391023583E+01 -0.49549480410E+00 -0.26050595265E+00  0.90007698274E+02  0.89999959092E+02 0.  0.
         12    1    1    2    0    0  0.10391023583E+01  0.49549480410E+00  0.26050595265E+00  0.11803017255E+01  0.00000000000E+00 0. -1.
         11    1    3    3    0    0  0.83343746324E+00  0.99386195606E+01 -0.27565584686E+01  0.10347434060E+02  0.51100000000E-03 0. -1.
        -11    1    3    3    0    0 -0.31374668508E+02 -0.21573369815E+02 -0.17931551967E+02  0.42087060546E+02  0.51100000000E-03 0.  1.
         12    1    3    3    0    0  0.29502128686E+02  0.11139255450E+02  0.20427604483E+02  0.37573203669E+02  0.00000000000E+00 0. -1.
</event>
<event>
 7    1  0.2284751E-015  0.9000773E+02  0.7816164E-02  0.1186339E+00
        -11   -1    0    0    0    0  0.00000000000E+00  0.00000000000E+00  0.45593999997E+02  0.45594000000E+02  0.51100000000E-03 0.  1.
         11   -1    0    0    0    0 -0.00000000000E+00 -0.00000000000E+00 -0.45593999997E+02  0.45594000000E+02  0.51100000000E-03 0. -1.
    9900012    2    1    2    0    0  0.56635525433E+00 -0.67548581089E+00  0.78485447920E+00  0.90007730578E+02  0.89999991822E+02 0.  0.
         12    1    1    2    0    0 -0.56635525433E+00  0.67548581089E+00 -0.78485447920E+00  0.11802694219E+01  0.00000000000E+00 0. -1.
         11    1    3    3    0    0 -0.17781666495E+02  0.21323851331E+02 -0.28763766661E+02  0.39978101152E+02  0.51100000000E-03 0. -1.
        -11    1    3    3    0    0  0.48532078414E+01  0.68029493135E+01  0.41737306348E+01  0.93409728287E+01  0.51100000000E-03 0.  1.
        -12    1    3    3    0    0  0.13494813908E+02 -0.28802286456E+02  0.25374890506E+02  0.40688656597E+02  0.00000000000E+00 0.  1.
</event>
<event>
 7    1  0.2284751E-015  0.9000761E+02  0.7816164E-02  0.1186339E+00
        -11   -1    0    0    0    0  0.00000000000E+00  0.00000000000E+00  0.45593999997E+02  0.45594000000E+02  0.51100000000E-03 0. -1.
         11   -1    0    0    0    0 -0.00000000000E+00 -0.00000000000E+00 -0.45593999997E+02  0.45594000000E+02  0.51100000000E-03 0.  1.
    9900012    2    1    2    0    0  0.60051071381E+00 -0.94897311501E+00  0.36355083301E+00  0.90007605024E+02  0.89999864611E+02 0.  0.
         12    1    1    2    0    0 -0.60051071381E+00  0.94897311501E+00 -0.36355083301E+00  0.11803949757E+01  0.00000000000E+00 0. -1.
         11    1    3    3    0    0 -0.46629109933E+01 -0.85620169182E+01 -0.60396355973E+01  0.11468568832E+02  0.51100000000E-03 0. -1.
        -11    1    3    3    0    0 -0.17568346234E+02 -0.69785800959E+01 -0.28594369883E+02  0.34278059438E+02  0.51100000000E-03 0.  1.
         12    1    3    3    0    0  0.22831767941E+02  0.14591623899E+02  0.34997556313E+02  0.44260976754E+02  0.00000000000E+00 0. -1.
</event>
<event>
 7    1  0.2284751E-015  0.9000777E+02  0.7816164E-02  0.1186339E+00
        -11   -1    0    0    0    0  0.00000000000E+00  0.00000000000E+00  0.45593999997E+02  0.45594000000E+02  0.51100000000E-03 0.  1.
         11   -1    0    0    0    0 -0.00000000000E+00 -0.00000000000E+00 -0.45593999997E+02  0.45594000000E+02  0.51100000000E-03 0. -1.
    9900012    2    1    2    0    0 -0.97485918443E+00  0.16666259776E+00 -0.64406047948E+00  0.90007770890E+02  0.90000032666E+02 0.  0.
         12    1    1    2    0    0  0.97485918443E+00 -0.16666259776E+00  0.64406047948E+00  0.11802291100E+01  0.00000000000E+00 0. -1.
         11    1    3    3    0    0 -0.26634815877E+02  0.15474847959E+02 -0.22653479787E+02  0.38236951798E+02  0.51100000000E-03 0. -1.
        -11    1    3    3    0    0  0.33702203743E+01 -0.49967928838E+00 -0.96985691359E+01  0.10279606428E+02  0.51100000000E-03 0.  1.
        -12    1    3    3    0    0  0.22289736318E+02 -0.14808506073E+02  0.31707988443E+02  0.41491212664E+02  0.00000000000E+00 0.  1.
</event>
<event>
 7    1  0.2284751E-015  0.9000770E+02  0.7816164E-02  0.1186339E+00
        -11   -1    0    0    0    0  0.00000000000E+00  0.00000000000E+00  0.45593999997E+02  0.45594000000E+02  0.51100000000E-03 0.  1.
         11   -1    0    0    0    0 -0.00000000000E+00 -0.00000000000E+00 -0.45593999997E+02  0.45594000000E+02  0.51100000000E-03 0. -1.
    9900012    2    1    2    0    0 -0.60694966260E+00  0.92528134111E+00  0.41058364465E+00  0.90007698182E+02  0.89999958998E+02 0.  0.
         12    1    1    2    0    0  0.60694966260E+00 -0.92528134111E+00 -0.41058364465E+00  0.11803018183E+01  0.00000000000E+00 0. -1.
         11    1    3    3    0    0 -0.35674243470E+02 -0.23447336049E+01 -0.13467848093E+02  0.38203826450E+02  0.51100000000E-03 0. -1.
        -11    1    3    3    0    0 -0.11561863781E+01  0.11798702081E+01 -0.88410217073E+01  0.89940272258E+01  0.51100000000E-03 0.  1.
        -12    1    3    3    0    0  0.36223480186E+02  0.20901447379E+01  0.22719453445E+02  0.42809844506E+02  0.00000000000E+00 0.  1.
</event>
<event>
 7    1  0.2284751E-015  0.9000697E+02  0.7816164E-02  0.1186341E+00
        -11   -1    0    0    0    0  0.00000000000E+00  0.00000000000E+00  0.45593999997E+02  0.45594000000E+02  0.51100000000E-03 0. -1.
         11   -1    0    0    0    0 -0.00000000000E+00 -0.00000000000E+00 -0.45593999997E+02  0.45594000000E+02  0.51100000000E-03 0.  1.
    9900012    2    1    2    0    0  0.39870381970E+00  0.11116922926E+01  0.25619537641E-02  0.90006970342E+02  0.89999221547E+02 0.  0.
         12    1    1    2    0    0 -0.39870381970E+00 -0.11116922926E+01 -0.25619537641E-02  0.11810296579E+01  0.00000000000E+00 0. -1.
         11    1    3    3    0    0 -0.19030344126E+02 -0.54609623184E+01  0.34064555311E+02  0.39400127357E+02  0.51100000000E-03 0. -1.
        -11    1    3    3    0    0  0.85675674579E+01  0.36152737839E+01  0.45748592570E+01  0.10363530005E+02  0.51100000000E-03 0.  1.
        -12    1    3    3    0    0  0.10861480487E+02  0.29573808270E+01 -0.38636852614E+02  0.40243312980E+02  0.00000000000E+00 0.  1.
</event>
<event>
 7    1  0.2284751E-015  0.9000774E+02  0.7816164E-02  0.1186339E+00
        -11   -1    0    0    0    0  0.00000000000E+00  0.00000000000E+00  0.45593999997E+02  0.45594000000E+02  0.51100000000E-03 0. -1.
         11   -1    0    0    0    0 -0.00000000000E+00 -0.00000000000E+00 -0.45593999997E+02  0.45594000000E+02  0.51100000000E-03 0.  1.
    9900012    2    1    2    0    0 -0.64948426668E-01 -0.52388556464E+00 -0.10556228229E+01  0.90007739890E+02  0.90000001257E+02 0.  0.
         12    1    1    2    0    0  0.64948426668E-01  0.52388556464E+00  0.10556228229E+01  0.11802601099E+01  0.00000000000E+00 0. -1.
         11    1    3    3    0    0  0.16977425240E+02 -0.34424378620E+02  0.18230884200E+02  0.42492775270E+02  0.51100000000E-03 0. -1.
        -11    1    3    3    0    0 -0.57677562486E+01 -0.10181418197E+01 -0.62723766880E+01  0.85817442566E+01  0.51100000000E-03 0.  1.
        -12    1    3    3    0    0 -0.11274617418E+02  0.34918634875E+02 -0.13014130335E+02  0.38933220363E+02  0.00000000000E+00 0.  1.
</event>
<event>
 7    1  0.2284751E-015  0.9000772E+02  0.7816164E-02  0.1186339E+00
        -11   -1    0    0    0    0  0.00000000000E+00  0.00000000000E+00  0.45593999997E+02  0.45594000000E+02  0.51100000000E-03 0.  1.
         11   -1    0    0    0    0 -0.00000000000E+00 -0.00000000000E+00 -0.45593999997E+02  0.45594000000E+02  0.51100000000E-03 0. -1.
    9900012    2    1    2    0    0  0.44769928684E+00  0.58573877422E+00  0.92170648512E+00  0.90007717234E+02  0.89999978301E+02 0.  0.
         12    1    1    2    0    0 -0.44769928684E+00 -0.58573877422E+00 -0.92170648512E+00  0.11802827660E+01  0.00000000000E+00 0. -1.
         11    1    3    3    0    0 -0.13267682626E+02 -0.36308962883E+02  0.10533437085E+02  0.40066513262E+02  0.51100000000E-03 0. -1.
        -11    1    3    3    0    0 -0.13131543779E+01  0.51331915948E+00 -0.10474085462E+02  0.10568554183E+02  0.51100000000E-03 0.  1.
        -12    1    3    3    0    0  0.15028536291E+02  0.36381382498E+02  0.86235486227E+00  0.39372649789E+02  0.00000000000E+00 0.  1.
</event>
<event>
 7    1  0.2284751E-015  0.9000785E+02  0.7816164E-02  0.1186339E+00
        -11   -1    0    0    0    0  0.00000000000E+00  0.00000000000E+00  0.45593999997E+02  0.45594000000E+02  0.51100000000E-03 0.  1.
         11   -1    0    0    0    0 -0.00000000000E+00 -0.00000000000E+00 -0.45593999997E+02  0.45594000000E+02  0.51100000000E-03 0. -1.
    9900012    2    1    2    0    0 -0.60269506367E+00  0.74059625371E+00  0.69356224799E+00  0.90007850542E+02  0.90000113369E+02 0.  0.
         12    1    1    2    0    0  0.60269506367E+00 -0.74059625371E+00 -0.69356224799E+00  0.11801494577E+01  0.00000000000E+00 0. -1.
         11    1    3    3    0    0  0.90173618277E+01  0.17758504939E+01  0.47387744850E+01  0.10340330903E+02  0.51100000000E-03 0. -1.
        -11    1    3    3    0    0 -0.57801402913E+01  0.29816009856E+02  0.23287529113E+02  0.38271575326E+02  0.51100000000E-03 0.  1.
         12    1    3    3    0    0 -0.38399166000E+01 -0.30851264096E+02 -0.27332741350E+02  0.41395944313E+02  0.00000000000E+00 0. -1.
</event>
<event>
 7    1  0.2284751E-015  0.9000770E+02  0.7816164E-02  0.1186339E+00
        -11   -1    0    0    0    0  0.00000000000E+00  0.00000000000E+00  0.45593999997E+02  0.45594000000E+02  0.51100000000E-03 0. -1.
         11   -1    0    0    0    0 -0.00000000000E+00 -0.00000000000E+00 -0.45593999997E+02  0.45594000000E+02  0.51100000000E-03 0.  1.
    9900012    2    1    2    0    0 -0.21680172087E+00 -0.93316593374E+00 -0.68942239693E+00  0.90007701357E+02  0.89999962215E+02 0.  0.
         12    1    1    2    0    0  0.21680172087E+00  0.93316593374E+00  0.68942239693E+00  0.11802986433E+01  0.00000000000E+00 0. -1.
         11    1    3    3    0    0 -0.64090002437E+01 -0.27599590860E+01  0.66218190466E+01  0.96198308731E+01  0.51100000000E-03 0. -1.
        -11    1    3    3    0    0  0.50105269052E+00  0.17928667177E+02 -0.39816298808E+02  0.43669506655E+02  0.51100000000E-03 0.  1.
         12    1    3    3    0    0  0.56911458324E+01 -0.16101874024E+02  0.32505057364E+02  0.36718363828E+02  0.00000000000E+00 0. -1.
</event>
<event>
 7    1  0.2284751E-015  0.9000724E+02  0.7816164E-02  0.1186340E+00
        -11   -1    0    0    0    0  0.00000000000E+00  0.00000000000E+00  0.45593999997E+02  0.45594000000E+02  0.51100000000E-03 0.  1.
         11   -1    0    0    0    0 -0.00000000000E+00 -0.00000000000E+00 -0.45593999997E+02  0.45594000000E+02  0.51100000000E-03 0. -1.
    9900012    2    1    2    0    0 -0.10271080531E+01 -0.27593107523E+00 -0.51293231774E+00  0.90007242415E+02  0.89999497214E+02 0.  0.
         12    1    1    2    0    0  0.10271080531E+01  0.27593107523E+00  0.51293231774E+00  0.11807575846E+01  0.00000000000E+00 0. -1.
         11    1    3    3    0    0  0.15157585099E+01  0.17683534493E+02 -0.35032252535E+02  0.39271664517E+02  0.51100000000E-03 0. -1.
        -11    1    3    3    0    0  0.86798783083E+01 -0.41266028790E+01 -0.22570868811E+01  0.98723644694E+01  0.51100000000E-03 0.  1.
        -12    1    3    3    0    0 -0.11222744871E+02 -0.13832862689E+02  0.36776407098E+02  0.40863213428E+02  0.00000000000E+00 0.  1.
</event>
<event>
 7    1  0.2284751E-015  0.9000775E+02  0.7816164E-02  0.1186339E+00
        -11   -1    0    0    0    0  0.00000000000E+00  0.00000000000E+00  0.45593999997E+02  0.45594000000E+02  0.51100000000E-03 0.  1.
         11   -1    0    0    0    0 -0.00000000000E+00 -0.00000000000E+00 -0.45593999997E+02  0.45594000000E+02  0.51100000000E-03 0. -1.
    9900012    2    1    2    0    0  0.10353045710E+01 -0.10734053353E+00 -0.55642764339E+00  0.90007750337E+02  0.90000011841E+02 0.  0.
         12    1    1    2    0    0 -0.10353045710E+01  0.10734053353E+00  0.55642764339E+00  0.11802496631E+01  0.00000000000E+00 0. -1.
         11    1    3    3    0    0 -0.80394980735E+01  0.37550378595E+01 -0.19143715416E+01  0.90773706138E+01  0.51100000000E-03 0. -1.
        -11    1    3    3    0    0  0.11761192368E+02  0.36855156561E+02 -0.69008759673E+01  0.39296950269E+02  0.51100000000E-03 0.  1.
         12    1    3    3    0    0 -0.26863897239E+01 -0.40717534954E+02  0.82588198655E+01  0.41633429454E+02  0.00000000000E+00 0. -1.
</event>
<event>
 7    1  0.2284751E-015  0.9000775E+02  0.7816164E-02  0.1186339E+00
        -11   -1    0    0    0    0  0.00000000000E+00  0.00000000000E+00  0.45593999997E+02  0.45594000000E+02  0.51100000000E-03 0.  1.
         11   -1    0    0    0    0 -0.00000000000E+00 -0.00000000000E+00 -0.45593999997E+02  0.45594000000E+02  0.51100000000E-03 0. -1.
    9900012    2    1    2    0    0  0.16746506497E+00  0.11676471490E+01 -0.39250731786E-01  0.90007752131E+02  0.90000013659E+02 0.  0.
         12    1    1    2    0    0 -0.16746506497E+00 -0.11676471490E+01  0.39250731786E-01  0.11802478691E+01  0.00000000000E+00 0. -1.
         11    1    3    3    0    0  0.68985089875E+01 -0.61892363445E+01 -0.39277852316E+01  0.10065960951E+02  0.51100000000E-03 0. -1.
        -11    1    3    3    0    0  0.19784081304E+02  0.23947923359E+02  0.26915398590E+02  0.41101722443E+02  0.51100000000E-03 0.  1.
         12    1    3    3    0    0 -0.26515125227E+02 -0.16591039866E+02 -0.23026864090E+02  0.38840068737E+02  0.00000000000E+00 0. -1.
</event>
<event>
 7    1  0.2284751E-015  0.9000786E+02  0.7816164E-02  0.1186339E+00
        -11   -1    0    0    0    0  0.00000000000E+00  0.00000000000E+00  0.45593999997E+02  0.45594000000E+02  0.51100000000E-03 0. -1.
         11   -1    0    0    0    0 -0.00000000000E+00 -0.00000000000E+00 -0.45593999997E+02  0.45594000000E+02  0.51100000000E-03 0.  1.
    9900012    2    1    2    0    0  0.26583292585E-01  0.11126321126E+01 -0.39251568334E+00  0.90007862105E+02  0.90000125085E+02 0.  0.
         12    1    1    2    0    0 -0.26583292585E-01 -0.11126321126E+01  0.39251568334E+00  0.11801378950E+01  0.00000000000E+00 0. -1.
         11    1    3    3    0    0 -0.17882806116E+01 -0.74897827192E+01 -0.65835740036E+01  0.10131053235E+02  0.51100000000E-03 0. -1.
        -11    1    3    3    0    0 -0.15239063977E+02  0.19661958943E+02 -0.29631652925E+02  0.38689230487E+02  0.51100000000E-03 0.  1.
         12    1    3    3    0    0  0.17053927881E+02 -0.11059544111E+02  0.35822711245E+02  0.41187578383E+02  0.00000000000E+00 0. -1.
</event>
<event>
 7    1  0.2654453E-015  0.9000778E+02  0.7816164E-02  0.1186339E+00
        -11   -1    0    0    0    0  0.00000000000E+00  0.00000000000E+00  0.45593999997E+02  0.45594000000E+02  0.51100000000E-03 0. -1.
         11   -1    0    0    0    0 -0.00000000000E+00 -0.00000000000E+00 -0.45593999997E+02  0.45594000000E+02  0.51100000000E-03 0.  1.
    9900012    2    1    2    0    0  0.10328386463E+01 -0.53782370824E+00 -0.19211993187E+00  0.90007779648E+02  0.90000041540E+02 0.  0.
         12    1    1    2    0    0 -0.10328386463E+01  0.53782370824E+00  0.19211993187E+00  0.11802203517E+01  0.00000000000E+00 0. -1.
         11    1    3    3    0    0 -0.31800683297E+02  0.12212858163E+02  0.19325351998E+02  0.39165119593E+02  0.51100000000E-03 0. -1.
        -11    1    3    3    0    0  0.49596508244E+01  0.68695046377E+01  0.40609799890E+01  0.93957324888E+01  0.51100000000E-03 0.  1.
        -12    1    3    3    0    0  0.27873871119E+02 -0.19620186509E+02 -0.23578451919E+02  0.41446927566E+02  0.00000000000E+00 0.  1.
</event>
<event>
 7    1  0.2284751E-015  0.9000776E+02  0.7816164E-02  0.1186339E+00
        -11   -1    0    0    0    0  0.00000000000E+00  0.00000000000E+00  0.45593999997E+02  0.45594000000E+02  0.51100000000E-03 0. -1.
         11   -1    0    0    0    0 -0.00000000000E+00 -0.00000000000E+00 -0.45593999997E+02  0.45594000000E+02  0.51100000000E-03 0.  1.
    9900012    2    1    2    0    0  0.50446357382E+00  0.48186388021E+00 -0.95198829420E+00  0.90007763579E+02  0.90000025259E+02 0.  0.
         12    1    1    2    0    0 -0.50446357382E+00 -0.48186388021E+00  0.95198829420E+00  0.11802364207E+01  0.00000000000E+00 0. -1.
         11    1    3    3    0    0 -0.29978713913E+02 -0.44680618347E+00  0.21129558823E+02  0.36679438109E+02  0.51100000000E-03 0. -1.
        -11    1    3    3    0    0  0.95096138597E+00  0.10120876526E+02  0.57853640261E+01  0.11696448452E+02  0.51100000000E-03 0.  1.
        -12    1    3    3    0    0  0.29532216101E+02 -0.91922064621E+01 -0.27866911143E+02  0.41631877019E+02  0.00000000000E+00 0.  1.
</event>
<event>
 7    1  0.2284751E-015  0.9000775E+02  0.7816164E-02  0.1186339E+00
        -11   -1    0    0    0    0  0.00000000000E+00  0.00000000000E+00  0.45593999997E+02  0.45594000000E+02  0.51100000000E-03 0. -1.
         11   -1    0    0    0    0 -0.00000000000E+00 -0.00000000000E+00 -0.45593999997E+02  0.45594000000E+02  0.51100000000E-03 0.  1.
    9900012    2    1    2    0    0  0.10471930719E+01  0.30461377016E+00 -0.45121162601E+00  0.90007747989E+02  0.90000009462E+02 0.  0.
         12    1    1    2    0    0 -0.10471930719E+01 -0.30461377016E+00  0.45121162601E+00  0.11802520113E+01  0.00000000000E+00 0. -1.
         11    1    3    3    0    0 -0.32011779020E+02  0.99008059297E+01  0.86343327198E+01  0.34602480487E+02  0.51100000000E-03 0. -1.
        -11    1    3    3    0    0 -0.93280477432E+01  0.16322800190E+01 -0.64884104243E+01  0.11479385125E+02  0.51100000000E-03 0.  1.
        -12    1    3    3    0    0  0.42387019835E+02 -0.11228472178E+02 -0.25971339215E+01  0.43925882376E+02  0.00000000000E+00 0.  1.
</event>
<event>
 7    1  0.2284751E-015  0.9000776E+02  0.7816164E-02  0.1186339E+00
        -11   -1    0    0    0    0  0.00000000000E+00  0.00000000000E+00  0.45593999997E+02  0.45594000000E+02  0.51100000000E-03 0.  1.
         11   -1    0    0    0    0 -0.00000000000E+00 -0.00000000000E+00 -0.45593999997E+02  0.45594000000E+02  0.51100000000E-03 0. -1.
    9900012    2    1    2    0    0 -0.33434696921E+00 -0.44377171074E+00 -0.10412686651E+01  0.90007762033E+02  0.90000023691E+02 0.  0.
         12    1    1    2    0    0  0.33434696921E+00  0.44377171074E+00  0.10412686651E+01  0.11802379675E+01  0.00000000000E+00 0. -1.
         11    1    3    3    0    0 -0.40153355480E+00 -0.88402317150E+01  0.33224392466E+01  0.94524879676E+01  0.51100000000E-03 0. -1.
        -11    1    3    3    0    0 -0.34272631815E+02 -0.88088870908E+01 -0.18121442317E+02  0.39756715850E+02  0.51100000000E-03 0.  1.
         12    1    3    3    0    0  0.34339818400E+02  0.17205347095E+02  0.13757734405E+02  0.40798558215E+02  0.00000000000E+00 0. -1.
</event>
<event>
 7    1  0.2284751E-015  0.9000777E+02  0.7816164E-02  0.1186339E+00
        -11   -1    0    0    0    0  0.00000000000E+00  0.00000000000E+00  0.45593999997E+02  0.45594000000E+02  0.51100000000E-03 0. -1.
         11   -1    0    0    0    0 -0.00000000000E+00 -0.00000000000E+00 -0.45593999997E+02  0.45594000000E+02  0.51100000000E-03 0.  1.
    9900012    2    1    2    0    0  0.42569502155E+00 -0.47702589757E+00 -0.99204937135E+00  0.90007774634E+02  0.90000036460E+02 0.  0.
         12    1    1    2    0    0 -0.42569502155E+00  0.47702589757E+00  0.99204937135E+00  0.11802253656E+01  0.00000000000E+00 0. -1.
         11    1    3    3    0    0 -0.11955515799E+02 -0.17344882937E+02  0.57143578422E+01  0.21827349998E+02  0.51100000000E-03 0. -1.
        -11    1    3    3    0    0 -0.20604710528E+02  0.26408324658E+02 -0.40590346211E+01  0.33740620467E+02  0.51100000000E-03 0.  1.
         12    1    3    3    0    0  0.32985921349E+02 -0.95404676187E+01 -0.26473725924E+01  0.34439804170E+02  0.00000000000E+00 0. -1.
</event>
<event>
 7    1  0.2284751E-015  0.9000729E+02  0.7816164E-02  0.1186340E+00
        -11   -1    0    0    0    0  0.00000000000E+00  0.00000000000E+00  0.45593999997E+02  0.45594000000E+02  0.51100000000E-03 0.  1.
         11   -1    0    0    0    0 -0.00000000000E+00 -0.00000000000E+00 -0.45593999997E+02  0.45594000000E+02  0.51100000000E-03 0. -1.
    9900012    2    1    2    0    0 -0.10313452892E+01 -0.15103698569E+00  0.55461063158E+00  0.90007289100E+02  0.89999544515E+02 0.  0.
         12    1    1    2    0    0  0.10313452892E+01  0.15103698569E+00 -0.55461063158E+00  0.11807109000E+01  0.00000000000E+00 0. -1.
         11    1    3    3    0    0 -0.28610624170E+02  0.23422265544E+02 -0.41591396183E+01  0.37208450401E+02  0.51100000000E-03 0. -1.
        -11    1    3    3    0    0 -0.58116639698E+01  0.44865222252E+01 -0.39412317215E+01  0.83329243077E+01  0.51100000000E-03 0.  1.
        -12    1    3    3    0    0  0.33390942851E+02 -0.28059824755E+02  0.86549819714E+01  0.44465914391E+02  0.00000000000E+00 0.  1.
</event>
<event>
 7    1  0.2284751E-015  0.9000764E+02  0.7816164E-02  0.1186339E+00
        -11   -1    0    0    0    0  0.00000000000E+00  0.00000000000E+00  0.45593999997E+02  0.45594000000E+02  0.51100000000E-03 0.  1.
         11   -1    0    0    0    0 -0.00000000000E+00 -0.00000000000E+00 -0.45593999997E+02  0.45594000000E+02  0.51100000000E-03 0. -1.
    9900012    2    1    2    0    0 -0.93338947741E-01  0.11402456784E+01 -0.29046468945E+00  0.90007643231E+02  0.89999903322E+02 0.  0.
         12    1    1    2    0    0  0.93338947741E-01 -0.11402456784E+01  0.29046468945E+00  0.11803567689E+01  0.00000000000E+00 0. -1.
         11    1    3    3    0    0 -0.13332073257E+02 -0.42290755857E+00  0.51351682574E+00  0.13348660155E+02  0.51100000000E-03 0. -1.
        -11    1    3    3    0    0 -0.11889474421E+02  0.25519140491E+02  0.21474294555E+02  0.35408070553E+02  0.51100000000E-03 0.  1.
         12    1    3    3    0    0  0.25128208731E+02 -0.23955987254E+02 -0.22278276070E+02  0.41250912523E+02  0.00000000000E+00 0. -1.
</event>
<event>
 7    1  0.2284751E-015  0.9000760E+02  0.7816164E-02  0.1186339E+00
        -11   -1    0    0    0    0  0.00000000000E+00  0.00000000000E+00  0.45593999997E+02  0.45594000000E+02  0.51100000000E-03 0.  1.
         11   -1    0    0    0    0 -0.00000000000E+00 -0.00000000000E+00 -0.45593999997E+02  0.45594000000E+02  0.51100000000E-03 0. -1.
    9900012    2    1    2    0    0 -0.89342471548E+00  0.76992068117E+00 -0.48568709845E-01  0.90007599857E+02  0.89999859375E+02 0.  0.
         12    1    1    2    0    0  0.89342471548E+00 -0.76992068117E+00  0.48568709845E-01  0.11804001428E+01  0.00000000000E+00 0. -1.
         11    1    3    3    0    0 -0.48371648724E+01  0.44967866228E+01 -0.66413990646E+01  0.93662925285E+01  0.51100000000E-03 0. -1.
        -11    1    3    3    0    0 -0.32949510961E+02  0.16544424506E+02  0.10578595690E+02  0.38357462662E+02  0.51100000000E-03 0.  1.
         12    1    3    3    0    0  0.36893251118E+02 -0.20271290448E+02 -0.39857653352E+01  0.42283844667E+02  0.00000000000E+00 0. -1.
</event>
<event>
 7    1  0.2284751E-015  0.9000770E+02  0.7816164E-02  0.1186339E+00
        -11   -1    0    0    0    0  0.00000000000E+00  0.00000000000E+00  0.45593999997E+02  0.45594000000E+02  0.51100000000E-03 0. -1.
         11   -1    0    0    0    0 -0.00000000000E+00 -0.00000000000E+00 -0.45593999997E+02  0.45594000000E+02  0.51100000000E-03 0.  1.
    9900012    2    1    2    0    0  0.21676444088E+00  0.14868949553E+00 -0.11506611847E+01  0.90007696416E+02  0.89999957208E+02 0.  0.
         12    1    1    2    0    0 -0.21676444088E+00 -0.14868949553E+00  0.11506611847E+01  0.11803035843E+01  0.00000000000E+00 0. -1.
         11    1    3    3    0    0  0.37385902111E+02 -0.13501955543E+02  0.49561357103E+01  0.40057106256E+02  0.51100000000E-03 0. -1.
        -11    1    3    3    0    0 -0.10081860633E+01 -0.28155687111E+01 -0.96084367998E+01  0.10063097153E+02  0.51100000000E-03 0.  1.
        -12    1    3    3    0    0 -0.36160951607E+02  0.16466213750E+02  0.35016399048E+01  0.39887493007E+02  0.00000000000E+00 0.  1.
</event>
<event>
 7    1  0.2284751E-015  0.9000784E+02  0.7816164E-02  0.1186339E+00
        -11   -1    0    0    0    0  0.00000000000E+00  0.00000000000E+00  0.45593999997E+02  0.45594000000E+02  0.51100000000E-03 0. -1.
         11   -1    0    0    0    0 -0.00000000000E+00 -0.00000000000E+00 -0.45593999997E+02  0.45594000000E+02  0.51100000000E-03 0.  1.
    9900012    2    1    2    0    0 -0.10167294266E+01 -0.51357607435E+00 -0.30868522196E+00  0.90007836589E+02  0.90000099232E+02 0.  0.
         12    1    1    2    0    0  0.10167294266E+01  0.51357607435E+00  0.30868522196E+00  0.11801634113E+01  0.00000000000E+00 0. -1.
         11    1    3    3    0    0 -0.57608447857E+01  0.15034542485E+01 -0.74203712868E+01  0.95136542725E+01  0.51100000000E-03 0. -1.
        -11    1    3    3    0    0 -0.21034324308E+02 -0.24752500026E+02  0.25698065307E+02  0.41418831676E+02  0.51100000000E-03 0.  1.
         12    1    3    3    0    0  0.25778439667E+02  0.22735469704E+02 -0.18586379242E+02  0.39075350640E+02  0.00000000000E+00 0. -1.
</event>
<event>
 7    1  0.2284751E-015  0.9000774E+02  0.7816164E-02  0.1186339E+00
        -11   -1    0    0    0    0  0.00000000000E+00  0.00000000000E+00  0.45593999997E+02  0.45594000000E+02  0.51100000000E-03 0.  1.
         11   -1    0    0    0    0 -0.00000000000E+00 -0.00000000000E+00 -0.45593999997E+02  0.45594000000E+02  0.51100000000E-03 0. -1.
    9900012    2    1    2    0    0  0.27704273917E+00 -0.99151422380E+00  0.57719139244E+00  0.90007744503E+02  0.90000005930E+02 0.  0.
         12    1    1    2    0    0 -0.27704273917E+00  0.99151422380E+00 -0.57719139244E+00  0.11802554973E+01  0.00000000000E+00 0. -1.
         11    1    3    3    0    0 -0.67715962957E+01  0.26728109352E+01  0.44801038698E+01  0.85480854952E+01  0.51100000000E-03 0. -1.
        -11    1    3    3    0    0 -0.93176149282E+01  0.35602273309E+02  0.71882037494E+01  0.37496801012E+02  0.51100000000E-03 0.  1.
         12    1    3    3    0    0  0.16366253963E+02 -0.39266598468E+02 -0.11091116227E+02  0.43962857996E+02  0.00000000000E+00 0. -1.
</event>
<event>
 7    1  0.2284751E-015  0.9000772E+02  0.7816164E-02  0.1186339E+00
        -11   -1    0    0    0    0  0.00000000000E+00  0.00000000000E+00  0.45593999997E+02  0.45594000000E+02  0.51100000000E-03 0. -1.
         11   -1    0    0    0    0 -0.00000000000E+00 -0.00000000000E+00 -0.45593999997E+02  0.45594000000E+02  0.51100000000E-03 0.  1.
    9900012    2    1    2    0    0  0.55742625753E+00  0.10735462196E+00  0.10348036246E+01  0.90007717157E+02  0.89999978224E+02 0.  0.
         12    1    1    2    0    0 -0.55742625753E+00 -0.10735462196E+00 -0.10348036246E+01  0.11802828427E+01  0.00000000000E+00 0. -1.
         11    1    3    3    0    0 -0.12850664543E+00  0.49046538483E+01  0.11158961986E+02  0.12189937497E+02  0.51100000000E-03 0. -1.
        -11    1    3    3    0    0 -0.26800242324E+02  0.24720827716E+02 -0.10487519213E+01  0.36475638341E+02  0.51100000000E-03 0.  1.
         12    1    3    3    0    0  0.27486175227E+02 -0.29518126942E+02 -0.90754064398E+01  0.41342141319E+02  0.00000000000E+00 0. -1.
</event>
<event>
 7    1  0.2284751E-015  0.9000784E+02  0.7816164E-02  0.1186339E+00
        -11   -1    0    0    0    0  0.00000000000E+00  0.00000000000E+00  0.45593999997E+02  0.45594000000E+02  0.51100000000E-03 0.  1.
         11   -1    0    0    0    0 -0.00000000000E+00 -0.00000000000E+00 -0.45593999997E+02  0.45594000000E+02  0.51100000000E-03 0. -1.
    9900012    2    1    2    0    0 -0.65796527595E+00 -0.68871389514E+00  0.69680569689E+00  0.90007837590E+02  0.90000100247E+02 0.  0.
         12    1    1    2    0    0  0.65796527595E+00  0.68871389514E+00 -0.69680569689E+00  0.11801624096E+01  0.00000000000E+00 0. -1.
         11    1    3    3    0    0  0.23389753922E+02 -0.35185488911E+02  0.10147764375E+02  0.43452000420E+02  0.51100000000E-03 0. -1.
        -11    1    3    3    0    0  0.89843875592E-02  0.12122650108E+01 -0.51182721687E+01  0.52598837848E+01  0.51100000000E-03 0.  1.
        -12    1    3    3    0    0 -0.24056703586E+02  0.33284510005E+02 -0.43326865092E+01  0.41295953386E+02  0.00000000000E+00 0.  1.
</event>
<event>
 7    1  0.2284751E-015  0.9000773E+02  0.7816164E-02  0.1186339E+00
        -11   -1    0    0    0    0  0.00000000000E+00  0.00000000000E+00  0.45593999997E+02  0.45594000000E+02  0.51100000000E-03 0. -1.
         11   -1    0    0    0    0 -0.00000000000E+00 -0.00000000000E+00 -0.45593999997E+02  0.45594000000E+02  0.51100000000E-03 0.  1.
    9900012    2    1    2    0    0  0.33970147838E+00 -0.90689506845E+00 -0.67467610821E+00  0.90007727315E+02  0.89999988516E+02 0.  0.
         12    1    1    2    0    0 -0.33970147838E+00  0.90689506845E+00  0.67467610821E+00  0.11802726848E+01  0.00000000000E+00 0. -1.
         11    1    3    3    0    0  0.81847073565E+01  0.25495508349E+02  0.22319256281E+02  0.34859139142E+02  0.51100000000E-03 0. -1.
        -11    1    3    3    0    0 -0.22547881934E+02 -0.42263181269E+01 -0.65001754183E+01  0.23843678939E+02  0.51100000000E-03 0.  1.
        -12    1    3    3    0    0  0.14702876056E+02 -0.22176085291E+02 -0.16493756971E+02  0.31304909234E+02  0.00000000000E+00 0.  1.
</event>
<event>
 7    1  0.2284751E-015  0.9000771E+02  0.7816164E-02  0.1186339E+00
        -11   -1    0    0    0    0  0.00000000000E+00  0.00000000000E+00  0.45593999997E+02  0.45594000000E+02  0.51100000000E-03 0. -1.
         11   -1    0    0    0    0 -0.00000000000E+00 -0.00000000000E+00 -0.45593999997E+02  0.45594000000E+02  0.51100000000E-03 0.  1.
    9900012    2    1    2    0    0  0.29032271705E+00  0.10443802293E+01 -0.46698715654E+00  0.90007705822E+02  0.89999966738E+02 0.  0.
         12    1    1    2    0    0 -0.29032271705E+00 -0.10443802293E+01  0.46698715654E+00  0.11802941785E+01  0.00000000000E+00 0. -1.
         11    1    3    3    0    0 -0.24864375556E+02  0.21227223528E+02  0.16339910326E+02  0.36548937881E+02  0.51100000000E-03 0. -1.
        -11    1    3    3    0    0 -0.77622162332E+01 -0.32537631987E+01  0.56750252311E+01  0.10151102770E+02  0.51100000000E-03 0.  1.
        -12    1    3    3    0    0  0.32916914507E+02 -0.16929080100E+02 -0.22481922714E+02  0.43307665171E+02  0.00000000000E+00 0.  1.
</event>
<event>
 7    1  0.2284751E-015  0.9000766E+02  0.7816164E-02  0.1186339E+00
        -11   -1    0    0    0    0  0.00000000000E+00  0.00000000000E+00  0.45593999997E+02  0.45594000000E+02  0.51100000000E-03 0. -1.
         11   -1    0    0    0    0 -0.00000000000E+00 -0.00000000000E+00 -0.45593999997E+02  0.45594000000E+02  0.51100000000E-03 0.  1.
    9900012    2    1    2    0    0 -0.86253360661E+00 -0.68689635396E+00 -0.42120219897E+00  0.90007660169E+02  0.89999920483E+02 0.  0.
         12    1    1    2    0    0  0.86253360661E+00  0.68689635396E+00  0.42120219897E+00  0.11803398307E+01  0.00000000000E+00 0. -1.
         11    1    3    3    0    0  0.10145753244E+02  0.24846965090E+02  0.18432354889E+02  0.32558557863E+02  0.51100000000E-03 0. -1.
        -11    1    3    3    0    0  0.11837542365E+02  0.54368301853E+01  0.27519998757E+01  0.13313903833E+02  0.51100000000E-03 0.  1.
        -12    1    3    3    0    0 -0.22845829215E+02 -0.30970691630E+02 -0.21605556964E+02  0.44135198473E+02  0.00000000000E+00 0.  1.
</event>
<event>
 7    1  0.2284751E-015  0.9000782E+02  0.7816164E-02  0.1186339E+00
        -11   -1    0    0    0    0  0.00000000000E+00  0.00000000000E+00  0.45593999997E+02  0.45594000000E+02  0.51100000000E-03 0.  1.
         11   -1    0    0    0    0 -0.00000000000E+00 -0.00000000000E+00 -0.45593999997E+02  0.45594000000E+02  0.51100000000E-03 0. -1.
    9900012    2    1    2    0    0 -0.99274460870E+00 -0.46758733402E+00  0.43433734120E+00  0.90007818362E+02  0.90000080764E+02 0.  0.
         12    1    1    2    0    0  0.99274460870E+00  0.46758733402E+00 -0.43433734120E+00  0.11801816381E+01  0.00000000000E+00 0. -1.
         11    1    3    3    0    0  0.16695411449E+02  0.73256921311E+01 -0.33996546111E+02  0.38576776387E+02  0.51100000000E-03 0. -1.
        -11    1    3    3    0    0 -0.11616488968E+01  0.83074109996E+01 -0.17026143579E+01  0.85592874463E+01  0.51100000000E-03 0.  1.
        -12    1    3    3    0    0 -0.16526507161E+02 -0.16100690465E+02  0.36133497810E+02  0.42871754529E+02  0.00000000000E+00 0.  1.
</event>
<event>
 7    1  0.2284751E-015  0.9000775E+02  0.7816164E-02  0.1186339E+00
        -11   -1    0    0    0    0  0.00000000000E+00  0.00000000000E+00  0.45593999997E+02  0.45594000000E+02  0.51100000000E-03 0.  1.
         11   -1    0    0    0    0 -0.00000000000E+00 -0.00000000000E+00 -0.45593999997E+02  0.45594000000E+02  0.51100000000E-03 0. -1.
    9900012    2    1    2    0    0 -0.30188459690E-01  0.11350376262E+01  0.32214248174E+00  0.90007746835E+02  0.90000008293E+02 0.  0.
         12    1    1    2    0    0  0.30188459690E-01 -0.11350376262E+01 -0.32214248174E+00  0.11802531655E+01  0.00000000000E+00 0. -1.
         11    1    3    3    0    0 -0.14936605428E+02  0.21516998983E+02  0.29404273039E+02  0.39378861083E+02  0.51100000000E-03 0. -1.
        -11    1    3    3    0    0 -0.55379886504E+01  0.58506480280E+01 -0.73066428316E+01  0.10875956527E+02  0.51100000000E-03 0.  1.
        -12    1    3    3    0    0  0.20444405619E+02 -0.26232609385E+02 -0.21775487726E+02  0.39752929225E+02  0.00000000000E+00 0.  1.
</event>
<event>
 7    1  0.2284751E-015  0.9000773E+02  0.7816164E-02  0.1186339E+00
        -11   -1    0    0    0    0  0.00000000000E+00  0.00000000000E+00  0.45593999997E+02  0.45594000000E+02  0.51100000000E-03 0.  1.
         11   -1    0    0    0    0 -0.00000000000E+00 -0.00000000000E+00 -0.45593999997E+02  0.45594000000E+02  0.51100000000E-03 0. -1.
    9900012    2    1    2    0    0 -0.79302631587E+00 -0.40236641514E+00  0.77604547979E+00  0.90007730515E+02  0.89999991758E+02 0.  0.
         12    1    1    2    0    0  0.79302631587E+00  0.40236641514E+00 -0.77604547979E+00  0.11802694846E+01  0.00000000000E+00 0. -1.
         11    1    3    3    0    0  0.19773871387E+02  0.31451369673E+02 -0.19850191642E+02  0.42121547365E+02  0.51100000000E-03 0. -1.
        -11    1    3    3    0    0 -0.77569516176E+01  0.97430520908E+00  0.53821815121E+01  0.94914407299E+01  0.51100000000E-03 0.  1.
        -12    1    3    3    0    0 -0.12809946085E+02 -0.32828041297E+02  0.15244055610E+02  0.38394742421E+02  0.00000000000E+00 0.  1.
</event>
<event>
 7    1  0.2284751E-015  0.9000759E+02  0.7816164E-02  0.1186339E+00
        -11   -1    0    0    0    0  0.00000000000E+00  0.00000000000E+00  0.45593999997E+02  0.45594000000E+02  0.51100000000E-03 0. -1.
         11   -1    0    0    0    0 -0.00000000000E+00 -0.00000000000E+00 -0.45593999997E+02  0.45594000000E+02  0.51100000000E-03 0.  1.
    9900012    2    1    2    0    0 -0.61352191886E-01  0.76352878072E-01 -0.11763408718E+01  0.90007588334E+02  0.89999847700E+02 0.  0.
         12    1    1    2    0    0  0.61352191886E-01 -0.76352878072E-01  0.11763408718E+01  0.11804116655E+01  0.00000000000E+00 0. -1.
         11    1    3    3    0    0 -0.33531272334E+02  0.25099381646E+02 -0.99688782844E+01  0.43054659653E+02  0.51100000000E-03 0. -1.
        -11    1    3    3    0    0  0.10978491201E+01 -0.96897436607E+01 -0.10428213391E+01  0.98073381459E+01  0.51100000000E-03 0.  1.
        -12    1    3    3    0    0  0.32372071022E+02 -0.15333285107E+02  0.98353587517E+01  0.37145590535E+02  0.00000000000E+00 0.  1.
</event>
<event>
 7    1  0.2284751E-015  0.9000775E+02  0.7816164E-02  0.1186339E+00
        -11   -1    0    0    0    0  0.00000000000E+00  0.00000000000E+00  0.45593999997E+02  0.45594000000E+02  0.51100000000E-03 0. -1.
         11   -1    0    0    0    0 -0.00000000000E+00 -0.00000000000E+00 -0.45593999997E+02  0.45594000000E+02  0.51100000000E-03 0.  1.
    9900012    2    1    2    0    0 -0.40634406455E+00  0.96528739411E+00 -0.54413939531E+00  0.90007753020E+02  0.90000014560E+02 0.  0.
         12    1    1    2    0    0  0.40634406455E+00 -0.96528739411E+00  0.54413939531E+00  0.11802469799E+01  0.00000000000E+00 0. -1.
         11    1    3    3    0    0  0.63163344351E+01  0.51210266628E+01  0.35463255555E+02  0.36383560705E+02  0.51100000000E-03 0. -1.
        -11    1    3    3    0    0  0.12161480656E+02 -0.35922404326E+01  0.31212906362E+00  0.12684763612E+02  0.51100000000E-03 0.  1.
        -12    1    3    3    0    0 -0.18884159156E+02 -0.56349883602E+00 -0.36319524014E+02  0.40939428703E+02  0.00000000000E+00 0.  1.
</event>
<event>
 7    1  0.2284751E-015  0.9000778E+02  0.7816164E-02  0.1186339E+00
        -11   -1    0    0    0    0  0.00000000000E+00  0.00000000000E+00  0.45593999997E+02  0.45594000000E+02  0.51100000000E-03 0. -1.
         11   -1    0    0    0    0 -0.00000000000E+00 -0.00000000000E+00 -0.45593999997E+02  0.45594000000E+02  0.51100000000E-03 0.  1.
    9900012    2    1    2    0    0  0.63456506012E+00  0.59725640906E+00 -0.79594982201E+00  0.90007777922E+02  0.90000039791E+02 0.  0.
         12    1    1    2    0    0 -0.63456506012E+00 -0.59725640906E+00  0.79594982201E+00  0.11802220778E+01  0.00000000000E+00 0. -1.
         11    1    3    3    0    0  0.22200093352E+01  0.29642813223E+00 -0.98882443288E+01  0.10138722171E+02  0.51100000000E-03 0. -1.
        -11    1    3    3    0    0  0.24502682173E+02 -0.57900141718E+01 -0.25686828108E+02  0.35968303217E+02  0.51100000000E-03 0.  1.
         12    1    3    3    0    0 -0.26088126448E+02  0.60908424487E+01  0.34779122614E+02  0.43900752535E+02  0.00000000000E+00 0. -1.
</event>
<event>
 7    1  0.2284751E-015  0.9000763E+02  0.7816164E-02  0.1186339E+00
        -11   -1    0    0    0    0  0.00000000000E+00  0.00000000000E+00  0.45593999997E+02  0.45594000000E+02  0.51100000000E-03 0.  1.
         11   -1    0    0    0    0 -0.00000000000E+00 -0.00000000000E+00 -0.45593999997E+02  0.45594000000E+02  0.51100000000E-03 0. -1.
    9900012    2    1    2    0    0  0.74779437702E+00  0.85215807106E+00  0.32848685779E+00  0.90007629963E+02  0.89999889879E+02 0.  0.
         12    1    1    2    0    0 -0.74779437702E+00 -0.85215807106E+00 -0.32848685779E+00  0.11803700369E+01  0.00000000000E+00 0. -1.
         11    1    3    3    0    0 -0.26981861968E+02  0.93848860153E+01 -0.25839738229E+02  0.38519982253E+02  0.51100000000E-03 0. -1.
        -11    1    3    3    0    0 -0.16772771640E+01  0.21364094015E+01 -0.60188179618E+01  0.66033077873E+01  0.51100000000E-03 0.  1.
        -12    1    3    3    0    0  0.29406933509E+02 -0.10669137346E+02  0.32187043048E+02  0.44884339923E+02  0.00000000000E+00 0.  1.
</event>
<event>
 7    1  0.2284751E-015  0.9000766E+02  0.7816164E-02  0.1186339E+00
        -11   -1    0    0    0    0  0.00000000000E+00  0.00000000000E+00  0.45593999997E+02  0.45594000000E+02  0.51100000000E-03 0.  1.
         11   -1    0    0    0    0 -0.00000000000E+00 -0.00000000000E+00 -0.45593999997E+02  0.45594000000E+02  0.51100000000E-03 0. -1.
    9900012    2    1    2    0    0  0.39323448872E+00 -0.38663149554E+00  0.10435927274E+01  0.90007659771E+02  0.89999920080E+02 0.  0.
         12    1    1    2    0    0 -0.39323448872E+00  0.38663149554E+00 -0.10435927274E+01  0.11803402294E+01  0.00000000000E+00 0. -1.
         11    1    3    3    0    0 -0.67580394975E+01 -0.13654786392E+02 -0.30546561832E+02  0.34135271044E+02  0.51100000000E-03 0. -1.
        -11    1    3    3    0    0  0.18139939009E+01  0.52286894015E+01 -0.10940529950E+02  0.12260708078E+02  0.51100000000E-03 0.  1.
        -12    1    3    3    0    0  0.53372800853E+01  0.80394654947E+01  0.42530684509E+02  0.43611680648E+02  0.00000000000E+00 0.  1.
</event>
<event>
 7    1  0.2284751E-015  0.9000769E+02  0.7816164E-02  0.1186339E+00
        -11   -1    0    0    0    0  0.00000000000E+00  0.00000000000E+00  0.45593999997E+02  0.45594000000E+02  0.51100000000E-03 0. -1.
         11   -1    0    0    0    0 -0.00000000000E+00 -0.00000000000E+00 -0.45593999997E+02  0.45594000000E+02  0.51100000000E-03 0.  1.
    9900012    2    1    2    0    0  0.68273648515E+00 -0.10053300603E+00  0.95754684276E+00  0.90007689893E+02  0.89999950599E+02 0.  0.
         12    1    1    2    0    0 -0.68273648515E+00  0.10053300603E+00 -0.95754684276E+00  0.11803101074E+01  0.00000000000E+00 0. -1.
         11    1    3    3    0    0 -0.13500258842E+01 -0.23346136912E+01 -0.91023644851E+01  0.94934730450E+01  0.51100000000E-03 0. -1.
        -11    1    3    3    0    0 -0.19389647328E+02  0.28657854978E+02 -0.15550244588E+02  0.37934696288E+02  0.51100000000E-03 0.  1.
         12    1    3    3    0    0  0.21422409697E+02 -0.26423774292E+02  0.25610155916E+02  0.42579520560E+02  0.00000000000E+00 0. -1.
</event>
<event>
 7    1  0.2284751E-015  0.9000775E+02  0.7816164E-02  0.1186339E+00
        -11   -1    0    0    0    0  0.00000000000E+00  0.00000000000E+00  0.45593999997E+02  0.45594000000E+02  0.51100000000E-03 0. -1.
         11   -1    0    0    0    0 -0.00000000000E+00 -0.00000000000E+00 -0.45593999997E+02  0.45594000000E+02  0.51100000000E-03 0.  1.
    9900012    2    1    2    0    0 -0.49618919669E+00  0.97759735232E+00  0.43714897610E+00  0.90007745989E+02  0.90000007436E+02 0.  0.
         12    1    1    2    0    0  0.49618919669E+00 -0.97759735232E+00 -0.43714897610E+00  0.11802540106E+01  0.00000000000E+00 0. -1.
         11    1    3    3    0    0  0.22994554110E+01 -0.10022825220E+02 -0.15168590978E+00  0.10284334177E+02  0.51100000000E-03 0. -1.
        -11    1    3    3    0    0 -0.29555622113E+02  0.15079216736E+02 -0.25715685487E+02  0.41978733380E+02  0.51100000000E-03 0.  1.
         12    1    3    3    0    0  0.26759977506E+02 -0.40787941633E+01  0.26304520373E+02  0.37744678433E+02  0.00000000000E+00 0. -1.
</event>
<event>
 7    1  0.2284751E-015  0.9000765E+02  0.7816164E-02  0.1186339E+00
        -11   -1    0    0    0    0  0.00000000000E+00  0.00000000000E+00  0.45593999997E+02  0.45594000000E+02  0.51100000000E-03 0.  1.
         11   -1    0    0    0    0 -0.00000000000E+00 -0.00000000000E+00 -0.45593999997E+02  0.45594000000E+02  0.51100000000E-03 0. -1.
    9900012    2    1    2    0    0  0.46321935708E+00 -0.24506250008E+00 -0.10576357412E+01  0.90007652101E+02  0.89999912309E+02 0.  0.
         12    1    1    2    0    0 -0.46321935708E+00  0.24506250008E+00  0.10576357412E+01  0.11803478991E+01  0.00000000000E+00 0. -1.
         11    1    3    3    0    0  0.50375591447E+01  0.53059296224E+01 -0.69363791530E+01  0.10081827578E+02  0.51100000000E-03 0. -1.
        -11    1    3    3    0    0 -0.15947033187E+02  0.18073136284E+02  0.33871414571E+02  0.41571851629E+02  0.51100000000E-03 0.  1.
         12    1    3    3    0    0  0.11372693400E+02 -0.23624128406E+02 -0.27992671159E+02  0.38353972894E+02  0.00000000000E+00 0. -1.
</event>
<event>
 7    1  0.2284751E-015  0.9000771E+02  0.7816164E-02  0.1186339E+00
        -11   -1    0    0    0    0  0.00000000000E+00  0.00000000000E+00  0.45593999997E+02  0.45594000000E+02  0.51100000000E-03 0. -1.
         11   -1    0    0    0    0 -0.00000000000E+00 -0.00000000000E+00 -0.45593999997E+02  0.45594000000E+02  0.51100000000E-03 0.  1.
    9900012    2    1    2    0    0 -0.36972925650E+00 -0.76977489520E+00 -0.81475861863E+00  0.90007709900E+02  0.89999970871E+02 0.  0.
         12    1    1    2    0    0  0.36972925650E+00  0.76977489520E+00  0.81475861863E+00  0.11802900995E+01  0.00000000000E+00 0. -1.
         11    1    3    3    0    0  0.26723500427E+02 -0.25525359743E+02  0.87049249661E+01  0.37966632508E+02  0.51100000000E-03 0. -1.
        -11    1    3    3    0    0  0.59234929637E+01 -0.32636186249E+01 -0.51838128855E+01  0.85212024805E+01  0.51100000000E-03 0.  1.
        -12    1    3    3    0    0 -0.33016722648E+02  0.28019203472E+02 -0.43358706992E+01  0.43519874912E+02  0.00000000000E+00 0.  1.
</event>
<event>
 7    1  0.2284751E-015  0.9000771E+02  0.7816164E-02  0.1186339E+00
        -11   -1    0    0    0    0  0.00000000000E+00  0.00000000000E+00  0.45593999997E+02  0.45594000000E+02  0.51100000000E-03 0.  1.
         11   -1    0    0    0    0 -0.00000000000E+00 -0.00000000000E+00 -0.45593999997E+02  0.45594000000E+02  0.51100000000E-03 0. -1.
    9900012    2    1    2    0    0  0.50256833997E-01 -0.11513298030E+01  0.25496291855E+00  0.90007706751E+02  0.89999967680E+02 0.  0.
         12    1    1    2    0    0 -0.50256833997E-01  0.11513298030E+01 -0.25496291855E+00  0.11802932493E+01  0.00000000000E+00 0. -1.
         11    1    3    3    0    0 -0.23970064711E+02  0.73739897756E+01 -0.24334877143E+02  0.34944612937E+02  0.51100000000E-03 0. -1.
        -11    1    3    3    0    0 -0.10251699983E+02  0.29767908498E+01 -0.10741064487E+01  0.10729041953E+02  0.51100000000E-03 0.  1.
        -12    1    3    3    0    0  0.34272021528E+02 -0.11502110428E+02  0.25663946510E+02  0.44334051861E+02  0.00000000000E+00 0.  1.
</event>
<event>
 7    1  0.2284751E-015  0.9000771E+02  0.7816164E-02  0.1186339E+00
        -11   -1    0    0    0    0  0.00000000000E+00  0.00000000000E+00  0.45593999997E+02  0.45594000000E+02  0.51100000000E-03 0.  1.
         11   -1    0    0    0    0 -0.00000000000E+00 -0.00000000000E+00 -0.45593999997E+02  0.45594000000E+02  0.51100000000E-03 0. -1.
    9900012    2    1    2    0    0  0.52780382530E+00  0.75226067521E+00  0.74069059810E+00  0.90007705306E+02  0.89999966217E+02 0.  0.
         12    1    1    2    0    0 -0.52780382530E+00 -0.75226067521E+00 -0.74069059810E+00  0.11802946935E+01  0.00000000000E+00 0. -1.
         11    1    3    3    0    0 -0.67035747934E+01  0.33422803500E+02 -0.15840771581E+02  0.37589250503E+02  0.51100000000E-03 0. -1.
        -11    1    3    3    0    0  0.58798560490E+01  0.26330568434E+01 -0.73292451950E+01  0.97582545000E+01  0.51100000000E-03 0.  1.
        -12    1    3    3    0    0  0.13515225697E+01 -0.35303599668E+02  0.23910707374E+02  0.42660200304E+02  0.00000000000E+00 0.  1.
</event>
<event>
 7    1  0.2284751E-015  0.9000807E+02  0.7816164E-02  0.1186338E+00
        -11   -1    0    0    0    0  0.00000000000E+00  0.00000000000E+00  0.45593999997E+02  0.45594000000E+02  0.51100000000E-03 0.  1.
         11   -1    0    0    0    0 -0.00000000000E+00 -0.00000000000E+00 -0.45593999997E+02  0.45594000000E+02  0.51100000000E-03 0. -1.
    9900012    2    1    2    0    0 -0.71457230339E+00 -0.21546892307E+00  0.91389061163E+00  0.90008069289E+02  0.90000335003E+02 0.  0.
         12    1    1    2    0    0  0.71457230339E+00  0.21546892307E+00 -0.91389061163E+00  0.11799307114E+01  0.00000000000E+00 0. -1.
         11    1    3    3    0    0  0.72742684032E+01  0.66345821436E+01  0.12494363165E+01  0.99244018657E+01  0.51100000000E-03 0. -1.
        -11    1    3    3    0    0 -0.70534279712E+01  0.32619163167E+02  0.16421408098E+02  0.37194398719E+02  0.51100000000E-03 0.  1.
         12    1    3    3    0    0 -0.93541273539E+00 -0.39469214234E+02 -0.16756953803E+02  0.42889268704E+02  0.00000000000E+00 0. -1.
</event>
<event>
 7    1  0.3063089E-015  0.9000783E+02  0.7816164E-02  0.1186339E+00
        -11   -1    0    0    0    0  0.00000000000E+00  0.00000000000E+00  0.45593999997E+02  0.45594000000E+02  0.51100000000E-03 0.  1.
         11   -1    0    0    0    0 -0.00000000000E+00 -0.00000000000E+00 -0.45593999997E+02  0.45594000000E+02  0.51100000000E-03 0. -1.
    9900012    2    1    2    0    0  0.60074490630E+00  0.86229297889E+00  0.53698720739E+00  0.90007830993E+02  0.90000093562E+02 0.  0.
         12    1    1    2    0    0 -0.60074490630E+00 -0.86229297889E+00 -0.53698720739E+00  0.11801690069E+01  0.00000000000E+00 0. -1.
         11    1    3    3    0    0  0.13637440042E+02  0.28518709175E+02 -0.26083589160E+02  0.40983535323E+02  0.51100000000E-03 0. -1.
        -11    1    3    3    0    0 -0.27832285262E+01 -0.72373644204E+01 -0.55711741987E+01  0.95479729261E+01  0.51100000000E-03 0.  1.
        -12    1    3    3    0    0 -0.10253466609E+02 -0.20419051775E+02  0.32191750566E+02  0.39476322744E+02  0.00000000000E+00 0.  1.
</event>
<event>
 7    1  0.2284751E-015  0.9000770E+02  0.7816164E-02  0.1186339E+00
        -11   -1    0    0    0    0  0.00000000000E+00  0.00000000000E+00  0.45593999997E+02  0.45594000000E+02  0.51100000000E-03 0.  1.
         11   -1    0    0    0    0 -0.00000000000E+00 -0.00000000000E+00 -0.45593999997E+02  0.45594000000E+02  0.51100000000E-03 0. -1.
    9900012    2    1    2    0    0 -0.98211308406E-01 -0.11427959100E+01 -0.27834432235E+00  0.90007701938E+02  0.89999962804E+02 0.  0.
         12    1    1    2    0    0  0.98211308406E-01  0.11427959100E+01  0.27834432235E+00  0.11802980619E+01  0.00000000000E+00 0. -1.
         11    1    3    3    0    0 -0.33320045406E+01 -0.11278664209E+02 -0.94335267092E-01  0.11760927685E+02  0.51100000000E-03 0. -1.
        -11    1    3    3    0    0 -0.26149657128E+02 -0.53925048326E+01  0.24977732066E+02  0.36561875987E+02  0.51100000000E-03 0.  1.
         12    1    3    3    0    0  0.29383450360E+02  0.15528373132E+02 -0.25161741121E+02  0.41684898266E+02  0.00000000000E+00 0. -1.
</event>
<event>
 7    1  0.2284751E-015  0.9000776E+02  0.7816164E-02  0.1186339E+00
        -11   -1    0    0    0    0  0.00000000000E+00  0.00000000000E+00  0.45593999997E+02  0.45594000000E+02  0.51100000000E-03 0.  1.
         11   -1    0    0    0    0 -0.00000000000E+00 -0.00000000000E+00 -0.45593999997E+02  0.45594000000E+02  0.51100000000E-03 0. -1.
    9900012    2    1    2    0    0  0.50361272200E+00  0.80980925215E+00  0.69537411969E+00  0.90007761903E+02  0.90000023560E+02 0.  0.
         12    1    1    2    0    0 -0.50361272200E+00 -0.80980925215E+00 -0.69537411969E+00  0.11802380967E+01  0.00000000000E+00 0. -1.
         11    1    3    3    0    0 -0.26934944271E+01  0.89646406557E+01  0.37585194851E+01  0.10086930321E+02  0.51100000000E-03 0. -1.
        -11    1    3    3    0    0 -0.21701805687E+02  0.24066576871E+02 -0.17359999620E+02  0.36763270794E+02  0.51100000000E-03 0.  1.
         12    1    3    3    0    0  0.24898912836E+02 -0.32221408275E+02  0.14296854255E+02  0.43157560789E+02  0.00000000000E+00 0. -1.
</event>
<event>
 7    1  0.2284751E-015  0.9000771E+02  0.7816164E-02  0.1186339E+00
        -11   -1    0    0    0    0  0.00000000000E+00  0.00000000000E+00  0.45593999997E+02  0.45594000000E+02  0.51100000000E-03 0. -1.
         11   -1    0    0    0    0 -0.00000000000E+00 -0.00000000000E+00 -0.45593999997E+02  0.45594000000E+02  0.51100000000E-03 0.  1.
    9900012    2    1    2    0    0 -0.16146656003E+00 -0.11678691336E+01 -0.55718569162E-01  0.90007705832E+02  0.89999966749E+02 0.  0.
         12    1    1    2    0    0  0.16146656003E+00  0.11678691336E+01  0.55718569162E-01  0.11802941676E+01  0.00000000000E+00 0. -1.
         11    1    3    3    0    0 -0.26620833470E+02 -0.13082781985E+02 -0.13420805514E+02  0.32556811577E+02  0.51100000000E-03 0. -1.
        -11    1    3    3    0    0  0.85655373661E+01  0.19697937305E+02 -0.12652310577E+02  0.24929061908E+02  0.51100000000E-03 0.  1.
         12    1    3    3    0    0  0.17893829544E+02 -0.77830244530E+01  0.26017397523E+02  0.32521832347E+02  0.00000000000E+00 0. -1.
</event>
<event>
 7    1  0.2284751E-015  0.9000767E+02  0.7816164E-02  0.1186339E+00
        -11   -1    0    0    0    0  0.00000000000E+00  0.00000000000E+00  0.45593999997E+02  0.45594000000E+02  0.51100000000E-03 0. -1.
         11   -1    0    0    0    0 -0.00000000000E+00 -0.00000000000E+00 -0.45593999997E+02  0.45594000000E+02  0.51100000000E-03 0.  1.
    9900012    2    1    2    0    0 -0.49720173411E-01  0.70530094980E+00 -0.94512406382E+00  0.90007669105E+02  0.89999929537E+02 0.  0.
         12    1    1    2    0    0  0.49720173411E-01 -0.70530094980E+00  0.94512406382E+00  0.11803308949E+01  0.00000000000E+00 0. -1.
         11    1    3    3    0    0 -0.96148684524E+01 -0.35278255516E+02 -0.19029852607E+02  0.41220581002E+02  0.51100000000E-03 0. -1.
        -11    1    3    3    0    0  0.28561325628E+01 -0.10497024073E+01  0.97843421326E+01  0.10246595512E+02  0.51100000000E-03 0.  1.
        -12    1    3    3    0    0  0.67090157162E+01  0.37033258873E+02  0.83003864109E+01  0.38540492591E+02  0.00000000000E+00 0.  1.
</event>
<event>
 7    1  0.2284751E-015  0.9000777E+02  0.7816164E-02  0.1186339E+00
        -11   -1    0    0    0    0  0.00000000000E+00  0.00000000000E+00  0.45593999997E+02  0.45594000000E+02  0.51100000000E-03 0.  1.
         11   -1    0    0    0    0 -0.00000000000E+00 -0.00000000000E+00 -0.45593999997E+02  0.45594000000E+02  0.51100000000E-03 0. -1.
    9900012    2    1    2    0    0 -0.48815721476E+00 -0.10129018345E+01 -0.35872128035E+00  0.90007767587E+02  0.90000029319E+02 0.  0.
         12    1    1    2    0    0  0.48815721476E+00  0.10129018345E+01  0.35872128035E+00  0.11802324134E+01  0.00000000000E+00 0. -1.
         11    1    3    3    0    0  0.91170750399E+01  0.19613502967E+01  0.37186775758E+01  0.10039746782E+02  0.51100000000E-03 0. -1.
        -11    1    3    3    0    0  0.11873278598E+02 -0.98988147492E+01  0.33069106687E+02  0.36503795631E+02  0.51100000000E-03 0.  1.
         12    1    3    3    0    0 -0.21478510852E+02  0.69245626179E+01 -0.37146505543E+02  0.43464225174E+02  0.00000000000E+00 0. -1.
</event>
<event>
 7    1  0.2284751E-015  0.9000775E+02  0.7816164E-02  0.1186339E+00
        -11   -1    0    0    0    0  0.00000000000E+00  0.00000000000E+00  0.45593999997E+02  0.45594000000E+02  0.51100000000E-03 0.  1.
         11   -1    0    0    0    0 -0.00000000000E+00 -0.00000000000E+00 -0.45593999997E+02  0.45594000000E+02  0.51100000000E-03 0. -1.
    9900012    2    1    2    0    0  0.71094082010E+00 -0.18057201271E+00  0.92463614914E+00  0.90007747862E+02  0.90000009334E+02 0.  0.
         12    1    1    2    0    0 -0.71094082010E+00  0.18057201271E+00 -0.92463614914E+00  0.11802521382E+01  0.00000000000E+00 0. -1.
         11    1    3    3    0    0  0.25191188142E+02  0.12820901590E+02 -0.24111355517E+02  0.37152778398E+02  0.51100000000E-03 0. -1.
        -11    1    3    3    0    0  0.64008601160E+00 -0.79045836065E+00 -0.88687830661E+01  0.89269170410E+01  0.51100000000E-03 0.  1.
        -12    1    3    3    0    0 -0.25120333334E+02 -0.12211015242E+02  0.33904774732E+02  0.43928052423E+02  0.00000000000E+00 0.  1.
</event>
<event>
 7    1  0.2284751E-015  0.9000775E+02  0.7816164E-02  0.1186339E+00
        -11   -1    0    0    0    0  0.00000000000E+00  0.00000000000E+00  0.45593999997E+02  0.45594000000E+02  0.51100000000E-03 0.  1.
         11   -1    0    0    0    0 -0.00000000000E+00 -0.00000000000E+00 -0.45593999997E+02  0.45594000000E+02  0.51100000000E-03 0. -1.
    9900012    2    1    2    0    0  0.72984040437E+00  0.10801389218E+00  0.92122810116E+00  0.90007747810E+02  0.90000009281E+02 0.  0.
         12    1    1    2    0    0 -0.72984040437E+00 -0.10801389218E+00 -0.92122810116E+00  0.11802521896E+01  0.00000000000E+00 0. -1.
         11    1    3    3    0    0  0.30618731393E+02 -0.25178482223E+02  0.10571941193E+02  0.41027169291E+02  0.51100000000E-03 0. -1.
        -11    1    3    3    0    0 -0.40613736964E+01 -0.22145960111E+01 -0.10252927184E+02  0.11248186871E+02  0.51100000000E-03 0.  1.
        -12    1    3    3    0    0 -0.25827517293E+02  0.27501092127E+02  0.60221409197E+00  0.37732391648E+02  0.00000000000E+00 0.  1.
</event>
<event>
 7    1  0.2284751E-015  0.9000775E+02  0.7816164E-02  0.1186339E+00
        -11   -1    0    0    0    0  0.00000000000E+00  0.00000000000E+00  0.45593999997E+02  0.45594000000E+02  0.51100000000E-03 0.  1.
         11   -1    0    0    0    0 -0.00000000000E+00 -0.00000000000E+00 -0.45593999997E+02  0.45594000000E+02  0.51100000000E-03 0. -1.
    9900012    2    1    2    0    0  0.80093442580E+00 -0.63898372548E+00  0.58583585494E+00  0.90007745873E+02  0.90000007318E+02 0.  0.
         12    1    1    2    0    0 -0.80093442580E+00  0.63898372548E+00 -0.58583585494E+00  0.11802541272E+01  0.00000000000E+00 0. -1.
         11    1    3    3    0    0 -0.47990457954E+00  0.56313365227E+01  0.83861050212E+01  0.10112814501E+02  0.51100000000E-03 0. -1.
        -11    1    3    3    0    0  0.78838134651E-01  0.35889298112E+02  0.39655434299E+01  0.36107803442E+02  0.51100000000E-03 0.  1.
         12    1    3    3    0    0  0.12020008707E+01 -0.42159618360E+02 -0.11765812596E+02  0.43787127931E+02  0.00000000000E+00 0. -1.
</event>
<event>
 7    1  0.2284751E-015  0.9000795E+02  0.7816164E-02  0.1186339E+00
        -11   -1    0    0    0    0  0.00000000000E+00  0.00000000000E+00  0.45593999997E+02  0.45594000000E+02  0.51100000000E-03 0. -1.
         11   -1    0    0    0    0 -0.00000000000E+00 -0.00000000000E+00 -0.45593999997E+02  0.45594000000E+02  0.51100000000E-03 0.  1.
    9900012    2    1    2    0    0 -0.21865629995E+00  0.89156563932E+00  0.74149025887E+00  0.90007954378E+02  0.90000218575E+02 0.  0.
         12    1    1    2    0    0  0.21865629995E+00 -0.89156563932E+00 -0.74149025887E+00  0.11800456223E+01  0.00000000000E+00 0. -1.
         11    1    3    3    0    0 -0.69473627139E+01 -0.35523350394E+02 -0.17141816113E+02  0.40050170185E+02  0.51100000000E-03 0. -1.
        -11    1    3    3    0    0 -0.17868494248E+01 -0.15190992809E+01  0.10022154908E+02  0.10292914201E+02  0.51100000000E-03 0.  1.
        -12    1    3    3    0    0  0.85155558387E+01  0.37934015314E+02  0.78611514639E+01  0.39664869992E+02  0.00000000000E+00 0.  1.
</event>
<event>
 7    1  0.2284751E-015  0.9000745E+02  0.7816164E-02  0.1186340E+00
        -11   -1    0    0    0    0  0.00000000000E+00  0.00000000000E+00  0.45593999997E+02  0.45594000000E+02  0.51100000000E-03 0. -1.
         11   -1    0    0    0    0 -0.00000000000E+00 -0.00000000000E+00 -0.45593999997E+02  0.45594000000E+02  0.51100000000E-03 0.  1.
    9900012    2    1    2    0    0 -0.82757502340E+00  0.71233624728E+00 -0.44878219025E+00  0.90007445553E+02  0.89999703034E+02 0.  0.
         12    1    1    2    0    0  0.82757502340E+00 -0.71233624728E+00  0.44878219025E+00  0.11805544472E+01  0.00000000000E+00 0. -1.
         11    1    3    3    0    0 -0.42056864815E+02  0.36130244396E-01 -0.55877266486E+00  0.42060592133E+02  0.51100000000E-03 0. -1.
        -11    1    3    3    0    0  0.40668296254E+01 -0.27734216492E+01 -0.83359986994E+01  0.96809010646E+01  0.51100000000E-03 0.  1.
        -12    1    3    3    0    0  0.37162460166E+02  0.34496276521E+01  0.84459891740E+01  0.38265952355E+02  0.00000000000E+00 0.  1.
</event>
<event>
 7    1  0.2284751E-015  0.9000773E+02  0.7816164E-02  0.1186339E+00
        -11   -1    0    0    0    0  0.00000000000E+00  0.00000000000E+00  0.45593999997E+02  0.45594000000E+02  0.51100000000E-03 0. -1.
         11   -1    0    0    0    0 -0.00000000000E+00 -0.00000000000E+00 -0.45593999997E+02  0.45594000000E+02  0.51100000000E-03 0.  1.
    9900012    2    1    2    0    0  0.98551494461E+00  0.64455669289E+00  0.79621322419E-01  0.90007731983E+02  0.89999993245E+02 0.  0.
         12    1    1    2    0    0 -0.98551494461E+00 -0.64455669289E+00 -0.79621322419E-01  0.11802680168E+01  0.00000000000E+00 0. -1.
         11    1    3    3    0    0 -0.73479790136E+01 -0.58984853859E+01 -0.16181120627E+01  0.95605027242E+01  0.51100000000E-03 0. -1.
        -11    1    3    3    0    0 -0.30883950841E+02  0.18963376590E+02 -0.10153852303E+02  0.37636800982E+02  0.51100000000E-03 0.  1.
         12    1    3    3    0    0  0.39217444800E+02 -0.12420334511E+02  0.11851585688E+02  0.42810428277E+02  0.00000000000E+00 0. -1.
</event>
<event>
 7    1  0.2284751E-015  0.9000785E+02  0.7816164E-02  0.1186339E+00
        -11   -1    0    0    0    0  0.00000000000E+00  0.00000000000E+00  0.45593999997E+02  0.45594000000E+02  0.51100000000E-03 0.  1.
         11   -1    0    0    0    0 -0.00000000000E+00 -0.00000000000E+00 -0.45593999997E+02  0.45594000000E+02  0.51100000000E-03 0. -1.
    9900012    2    1    2    0    0  0.62672310842E+00 -0.77814411992E+00 -0.62805427774E+00  0.90007854966E+02  0.90000117851E+02 0.  0.
         12    1    1    2    0    0 -0.62672310842E+00  0.77814411992E+00  0.62805427774E+00  0.11801450342E+01  0.00000000000E+00 0. -1.
         11    1    3    3    0    0 -0.75124526349E+01  0.31596124011E+01  0.56666663928E+01  0.99262885000E+01  0.51100000000E-03 0. -1.
        -11    1    3    3    0    0  0.11847389830E+02  0.17013906870E+02  0.30911897725E+02  0.37220680999E+02  0.51100000000E-03 0.  1.
         12    1    3    3    0    0 -0.37082140870E+01 -0.20951663391E+02 -0.37206618396E+02  0.42860885467E+02  0.00000000000E+00 0. -1.
</event>
<event>
 7    1  0.2284751E-015  0.9000769E+02  0.7816164E-02  0.1186339E+00
        -11   -1    0    0    0    0  0.00000000000E+00  0.00000000000E+00  0.45593999997E+02  0.45594000000E+02  0.51100000000E-03 0. -1.
         11   -1    0    0    0    0 -0.00000000000E+00 -0.00000000000E+00 -0.45593999997E+02  0.45594000000E+02  0.51100000000E-03 0.  1.
    9900012    2    1    2    0    0  0.82731043119E+00 -0.51505977823E+00 -0.66588395703E+00  0.90007690477E+02  0.89999951192E+02 0.  0.
         12    1    1    2    0    0 -0.82731043119E+00  0.51505977823E+00  0.66588395703E+00  0.11803095225E+01  0.00000000000E+00 0. -1.
         11    1    3    3    0    0  0.62885309265E+01  0.25683664847E+01 -0.66079221366E+01  0.94766430152E+01  0.51100000000E-03 0. -1.
        -11    1    3    3    0    0 -0.78506693851E+01 -0.19010884786E+02 -0.32720456857E+02  0.38648092415E+02  0.51100000000E-03 0.  1.
         12    1    3    3    0    0  0.23894488897E+01  0.15927458523E+02  0.38662495037E+02  0.41882955047E+02  0.00000000000E+00 0. -1.
</event>
<event>
 7    1  0.2284751E-015  0.9000774E+02  0.7816164E-02  0.1186339E+00
        -11   -1    0    0    0    0  0.00000000000E+00  0.00000000000E+00  0.45593999997E+02  0.45594000000E+02  0.51100000000E-03 0.  1.
         11   -1    0    0    0    0 -0.00000000000E+00 -0.00000000000E+00 -0.45593999997E+02  0.45594000000E+02  0.51100000000E-03 0. -1.
    9900012    2    1    2    0    0  0.30240046705E+00  0.10402841305E+01  0.46836937447E+00  0.90007742831E+02  0.90000004236E+02 0.  0.
         12    1    1    2    0    0 -0.30240046705E+00 -0.10402841305E+01 -0.46836937447E+00  0.11802571693E+01  0.00000000000E+00 0. -1.
         11    1    3    3    0    0  0.60371038185E+01 -0.96404840716E+01  0.70725721728E+00  0.11396743775E+02  0.51100000000E-03 0. -1.
        -11    1    3    3    0    0  0.22971413815E+02 -0.19015532390E+02 -0.16665548103E+02  0.34161627868E+02  0.51100000000E-03 0.  1.
         12    1    3    3    0    0 -0.28706117166E+02  0.29696300593E+02  0.16426660260E+02  0.44449371187E+02  0.00000000000E+00 0. -1.
</event>
<event>
 7    1  0.2284751E-015  0.9000753E+02  0.7816164E-02  0.1186339E+00
        -11   -1    0    0    0    0  0.00000000000E+00  0.00000000000E+00  0.45593999997E+02  0.45594000000E+02  0.51100000000E-03 0. -1.
         11   -1    0    0    0    0 -0.00000000000E+00 -0.00000000000E+00 -0.45593999997E+02  0.45594000000E+02  0.51100000000E-03 0.  1.
    9900012    2    1    2    0    0 -0.35974173775E+00 -0.35361195994E+00 -0.10672694681E+01  0.90007525666E+02  0.89999784204E+02 0.  0.
         12    1    1    2    0    0  0.35974173775E+00  0.35361195994E+00  0.10672694681E+01  0.11804743341E+01  0.00000000000E+00 0. -1.
         11    1    3    3    0    0 -0.50406553900E+01 -0.86608426370E+01  0.93384142454E+01  0.13697605003E+02  0.51100000000E-03 0. -1.
        -11    1    3    3    0    0 -0.28778576883E+02  0.20753241461E+01  0.16217977680E+02  0.33098886054E+02  0.51100000000E-03 0.  1.
         12    1    3    3    0    0  0.33459490536E+02  0.62319065309E+01 -0.26623661394E+02  0.43211034608E+02  0.00000000000E+00 0. -1.
</event>
<event>
 7    1  0.2284751E-015  0.9000774E+02  0.7816164E-02  0.1186339E+00
        -11   -1    0    0    0    0  0.00000000000E+00  0.00000000000E+00  0.45593999997E+02  0.45594000000E+02  0.51100000000E-03 0.  1.
         11   -1    0    0    0    0 -0.00000000000E+00 -0.00000000000E+00 -0.45593999997E+02  0.45594000000E+02  0.51100000000E-03 0. -1.
    9900012    2    1    2    0    0  0.58302131878E+00  0.89089763906E+00  0.50930741545E+00  0.90007743034E+02  0.90000004442E+02 0.  0.
         12    1    1    2    0    0 -0.58302131878E+00 -0.89089763906E+00 -0.50930741545E+00  0.11802569656E+01  0.00000000000E+00 0. -1.
         11    1    3    3    0    0 -0.23116279106E+02 -0.83342473602E+01 -0.10209836495E+02  0.26609449455E+02  0.51100000000E-03 0. -1.
        -11    1    3    3    0    0  0.10899173456E+02  0.31316353469E+02  0.16771674580E+02  0.37159050649E+02  0.51100000000E-03 0.  1.
         12    1    3    3    0    0  0.12800126969E+02 -0.22091208470E+02 -0.60525306699E+01  0.26239242931E+02  0.00000000000E+00 0. -1.
</event>
<event>
 7    1  0.2284751E-015  0.9000770E+02  0.7816164E-02  0.1186339E+00
        -11   -1    0    0    0    0  0.00000000000E+00  0.00000000000E+00  0.45593999997E+02  0.45594000000E+02  0.51100000000E-03 0. -1.
         11   -1    0    0    0    0 -0.00000000000E+00 -0.00000000000E+00 -0.45593999997E+02  0.45594000000E+02  0.51100000000E-03 0.  1.
    9900012    2    1    2    0    0 -0.92340342448E+00  0.58211078644E+00 -0.44896981471E+00  0.90007703111E+02  0.89999963992E+02 0.  0.
         12    1    1    2    0    0  0.92340342448E+00 -0.58211078644E+00  0.44896981471E+00  0.11802968892E+01  0.00000000000E+00 0. -1.
         11    1    3    3    0    0 -0.74945894053E+01 -0.10648543809E+02 -0.87595542698E+01  0.15693633960E+02  0.51100000000E-03 0. -1.
        -11    1    3    3    0    0 -0.24553625848E+02  0.26043541995E+02 -0.72084251022E+01  0.36511751733E+02  0.51100000000E-03 0.  1.
         12    1    3    3    0    0  0.31124811829E+02 -0.14812887400E+02  0.15519009557E+02  0.37802317418E+02  0.00000000000E+00 0. -1.
</event>
<event>
 7    1  0.2284751E-015  0.9000772E+02  0.7816164E-02  0.1186339E+00
        -11   -1    0    0    0    0  0.00000000000E+00  0.00000000000E+00  0.45593999997E+02  0.45594000000E+02  0.51100000000E-03 0.  1.
         11   -1    0    0    0    0 -0.00000000000E+00 -0.00000000000E+00 -0.45593999997E+02  0.45594000000E+02  0.51100000000E-03 0. -1.
    9900012    2    1    2    0    0  0.11497019289E+01 -0.24352659802E+00 -0.10931735480E+00  0.90007716130E+02  0.89999977183E+02 0.  0.
         12    1    1    2    0    0 -0.11497019289E+01  0.24352659802E+00  0.10931735480E+00  0.11802838698E+01  0.00000000000E+00 0. -1.
         11    1    3    3    0    0 -0.17088559167E+01  0.23765786663E+01 -0.60945501387E+01  0.67610543819E+01  0.51100000000E-03 0. -1.
        -11    1    3    3    0    0 -0.27967311827E+02 -0.24303871687E+02  0.21101852085E+02  0.42639616221E+02  0.51100000000E-03 0.  1.
         12    1    3    3    0    0  0.30825869673E+02  0.21683766422E+02 -0.15116619301E+02  0.40607045527E+02  0.00000000000E+00 0. -1.
</event>
<event>
 7    1  0.2284751E-015  0.9000764E+02  0.7816164E-02  0.1186339E+00
        -11   -1    0    0    0    0  0.00000000000E+00  0.00000000000E+00  0.45593999997E+02  0.45594000000E+02  0.51100000000E-03 0.  1.
         11   -1    0    0    0    0 -0.00000000000E+00 -0.00000000000E+00 -0.45593999997E+02  0.45594000000E+02  0.51100000000E-03 0. -1.
    9900012    2    1    2    0    0 -0.44650067793E+00 -0.31006614506E+00  0.10477330665E+01  0.90007640543E+02  0.89999900598E+02 0.  0.
         12    1    1    2    0    0  0.44650067793E+00  0.31006614506E+00 -0.10477330665E+01  0.11803594573E+01  0.00000000000E+00 0. -1.
         11    1    3    3    0    0  0.17161674864E+02 -0.38034462230E+02  0.32906817791E+01  0.41856564456E+02  0.51100000000E-03 0. -1.
        -11    1    3    3    0    0  0.23940476627E+01  0.59781445686E+01 -0.79137542187E+01  0.10202802693E+02  0.51100000000E-03 0.  1.
        -12    1    3    3    0    0 -0.20002223205E+02  0.31746251516E+02  0.56708055061E+01  0.37948273394E+02  0.00000000000E+00 0.  1.
</event>
<event>
 7    1  0.2284751E-015  0.9000751E+02  0.7816164E-02  0.1186339E+00
        -11   -1    0    0    0    0  0.00000000000E+00  0.00000000000E+00  0.45593999997E+02  0.45594000000E+02  0.51100000000E-03 0.  1.
         11   -1    0    0    0    0 -0.00000000000E+00 -0.00000000000E+00 -0.45593999997E+02  0.45594000000E+02  0.51100000000E-03 0. -1.
    9900012    2    1    2    0    0 -0.89662427857E-01 -0.11598434837E+01  0.20068716846E+00  0.90007512136E+02  0.89999770496E+02 0.  0.
         12    1    1    2    0    0  0.89662427857E-01  0.11598434837E+01 -0.20068716846E+00  0.11804878641E+01  0.00000000000E+00 0. -1.
         11    1    3    3    0    0 -0.16011838456E+00 -0.64379345310E+01 -0.63538756006E+01  0.90467880671E+01  0.51100000000E-03 0. -1.
        -11    1    3    3    0    0  0.31032491760E+02 -0.11730608950E+02 -0.18185359170E+02  0.37832922430E+02  0.51100000000E-03 0.  1.
         12    1    3    3    0    0 -0.30962035803E+02  0.17008699997E+02  0.24739921939E+02  0.43127801639E+02  0.00000000000E+00 0. -1.
</event>
<event>
 7    1  0.2284751E-015  0.9000770E+02  0.7816164E-02  0.1186339E+00
        -11   -1    0    0    0    0  0.00000000000E+00  0.00000000000E+00  0.45593999997E+02  0.45594000000E+02  0.51100000000E-03 0.  1.
         11   -1    0    0    0    0 -0.00000000000E+00 -0.00000000000E+00 -0.45593999997E+02  0.45594000000E+02  0.51100000000E-03 0. -1.
    9900012    2    1    2    0    0 -0.23023690583E+00  0.95963928955E+00  0.64744680666E+00  0.90007701747E+02  0.89999962610E+02 0.  0.
         12    1    1    2    0    0  0.23023690583E+00 -0.95963928955E+00 -0.64744680666E+00  0.11802982531E+01  0.00000000000E+00 0. -1.
         11    1    3    3    0    0  0.77267800685E+00  0.30324328953E+02  0.21804504599E+02  0.37357708426E+02  0.51100000000E-03 0. -1.
        -11    1    3    3    0    0 -0.22229591299E+01  0.88046630942E+01 -0.18793364582E+00  0.90828937466E+01  0.51100000000E-03 0.  1.
        -12    1    3    3    0    0  0.12200442172E+01 -0.38169352758E+02 -0.20969124146E+02  0.43567099574E+02  0.00000000000E+00 0.  1.
</event>
<event>
 7    1  0.2284751E-015  0.9000804E+02  0.7816164E-02  0.1186338E+00
        -11   -1    0    0    0    0  0.00000000000E+00  0.00000000000E+00  0.45593999997E+02  0.45594000000E+02  0.51100000000E-03 0. -1.
         11   -1    0    0    0    0 -0.00000000000E+00 -0.00000000000E+00 -0.45593999997E+02  0.45594000000E+02  0.51100000000E-03 0.  1.
    9900012    2    1    2    0    0  0.28562623844E+00  0.64685585097E+00 -0.94461797664E+00  0.90008039000E+02  0.90000304314E+02 0.  0.
         12    1    1    2    0    0 -0.28562623844E+00 -0.64685585097E+00  0.94461797664E+00  0.11799610001E+01  0.00000000000E+00 0. -1.
         11    1    3    3    0    0 -0.64747418352E+01  0.14422727674E+01 -0.80313352632E+01  0.10416562722E+02  0.51100000000E-03 0. -1.
        -11    1    3    3    0    0  0.60566310672E+00  0.38935463618E+02  0.12054981431E+01  0.38958829307E+02  0.51100000000E-03 0.  1.
         12    1    3    3    0    0  0.61547049669E+01 -0.39730880534E+02  0.58812191435E+01  0.40632646971E+02  0.00000000000E+00 0. -1.
</event>
<event>
 7    1  0.2284751E-015  0.9000770E+02  0.7816164E-02  0.1186339E+00
        -11   -1    0    0    0    0  0.00000000000E+00  0.00000000000E+00  0.45593999997E+02  0.45594000000E+02  0.51100000000E-03 0.  1.
         11   -1    0    0    0    0 -0.00000000000E+00 -0.00000000000E+00 -0.45593999997E+02  0.45594000000E+02  0.51100000000E-03 0. -1.
    9900012    2    1    2    0    0  0.11742230824E+00 -0.38999010968E+00  0.11078034815E+01  0.90007699683E+02  0.89999960519E+02 0.  0.
         12    1    1    2    0    0 -0.11742230824E+00  0.38999010968E+00 -0.11078034815E+01  0.11803003168E+01  0.00000000000E+00 0. -1.
         11    1    3    3    0    0  0.26938649896E+01  0.62056895287E+01  0.89487095517E+01  0.11218150204E+02  0.51100000000E-03 0. -1.
        -11    1    3    3    0    0  0.17058348894E+02 -0.18407000028E+02  0.27144772588E+02  0.36968142990E+02  0.51100000000E-03 0.  1.
         12    1    3    3    0    0 -0.19634791575E+02  0.11811320390E+02 -0.34985678658E+02  0.41821406489E+02  0.00000000000E+00 0. -1.
</event>
<event>
 7    1  0.2284751E-015  0.9000774E+02  0.7816164E-02  0.1186339E+00
        -11   -1    0    0    0    0  0.00000000000E+00  0.00000000000E+00  0.45593999997E+02  0.45594000000E+02  0.51100000000E-03 0.  1.
         11   -1    0    0    0    0 -0.00000000000E+00 -0.00000000000E+00 -0.45593999997E+02  0.45594000000E+02  0.51100000000E-03 0. -1.
    9900012    2    1    2    0    0 -0.77917111454E+00  0.46226524451E+00  0.75644633836E+00  0.90007742467E+02  0.90000003867E+02 0.  0.
         12    1    1    2    0    0  0.77917111454E+00 -0.46226524451E+00 -0.75644633836E+00  0.11802575333E+01  0.00000000000E+00 0. -1.
         11    1    3    3    0    0 -0.19493460765E+01  0.56599930077E+01 -0.87835117989E+01  0.10629466156E+02  0.51100000000E-03 0. -1.
        -11    1    3    3    0    0 -0.51982141061E+01  0.32377767217E+02  0.21760521386E+02  0.39355578145E+02  0.51100000000E-03 0.  1.
         12    1    3    3    0    0  0.63683890681E+01 -0.37575494981E+02 -0.12220563249E+02  0.40022698166E+02  0.00000000000E+00 0. -1.
</event>
<event>
 7    1  0.2284751E-015  0.9000785E+02  0.7816164E-02  0.1186339E+00
        -11   -1    0    0    0    0  0.00000000000E+00  0.00000000000E+00  0.45593999997E+02  0.45594000000E+02  0.51100000000E-03 0. -1.
         11   -1    0    0    0    0 -0.00000000000E+00 -0.00000000000E+00 -0.45593999997E+02  0.45594000000E+02  0.51100000000E-03 0.  1.
    9900012    2    1    2    0    0 -0.72121334923E+00 -0.19017407694E+00  0.91457341698E+00  0.90007847718E+02  0.90000110507E+02 0.  0.
         12    1    1    2    0    0  0.72121334923E+00  0.19017407694E+00 -0.91457341698E+00  0.11801522824E+01  0.00000000000E+00 0. -1.
         11    1    3    3    0    0 -0.16356555621E+02  0.34153334300E+02  0.11327435958E+02  0.39525915059E+02  0.51100000000E-03 0. -1.
        -11    1    3    3    0    0 -0.88416834984E+01 -0.29595612764E+01  0.69905490708E-01  0.93241223219E+01  0.51100000000E-03 0.  1.
        -12    1    3    3    0    0  0.24477025770E+02 -0.31383947100E+02 -0.10482768032E+02  0.41157810337E+02  0.00000000000E+00 0.  1.
</event>
<event>
 7    1  0.2284751E-015  0.9000767E+02  0.7816164E-02  0.1186339E+00
        -11   -1    0    0    0    0  0.00000000000E+00  0.00000000000E+00  0.45593999997E+02  0.45594000000E+02  0.51100000000E-03 0.  1.
         11   -1    0    0    0    0 -0.00000000000E+00 -0.00000000000E+00 -0.45593999997E+02  0.45594000000E+02  0.51100000000E-03 0. -1.
    9900012    2    1    2    0    0  0.93045945461E+00  0.20354429467E+00 -0.69712673758E+00  0.90007673450E+02  0.89999933939E+02 0.  0.
         12    1    1    2    0    0 -0.93045945461E+00 -0.20354429467E+00  0.69712673758E+00  0.11803265501E+01  0.00000000000E+00 0. -1.
         11    1    3    3    0    0 -0.21320343563E+02  0.19295018678E+02 -0.14462234416E+02  0.32187125065E+02  0.51100000000E-03 0. -1.
        -11    1    3    3    0    0 -0.12771589524E+02 -0.10102214394E+02  0.14281242115E+02  0.21659226931E+02  0.51100000000E-03 0.  1.
         12    1    3    3    0    0  0.35022392542E+02 -0.89892599886E+01 -0.51613443641E+00  0.36161321453E+02  0.00000000000E+00 0. -1.
</event>
<event>
 7    1  0.2284751E-015  0.9000770E+02  0.7816164E-02  0.1186339E+00
        -11   -1    0    0    0    0  0.00000000000E+00  0.00000000000E+00  0.45593999997E+02  0.45594000000E+02  0.51100000000E-03 0.  1.
         11   -1    0    0    0    0 -0.00000000000E+00 -0.00000000000E+00 -0.45593999997E+02  0.45594000000E+02  0.51100000000E-03 0. -1.
    9900012    2    1    2    0    0  0.27589634159E+00 -0.99124120910E+00  0.57830091022E+00  0.90007699247E+02  0.89999960077E+02 0.  0.
         12    1    1    2    0    0 -0.27589634159E+00  0.99124120910E+00 -0.57830091022E+00  0.11803007535E+01  0.00000000000E+00 0. -1.
         11    1    3    3    0    0 -0.99072968609E+00  0.10021975571E+02 -0.71444553671E+01  0.12347663035E+02  0.51100000000E-03 0. -1.
        -11    1    3    3    0    0  0.98155934514E+01  0.34301359365E+01  0.39973353699E+02  0.41303519385E+02  0.51100000000E-03 0.  1.
         12    1    3    3    0    0 -0.85489674238E+01 -0.14443352717E+02 -0.32250597422E+02  0.36356516827E+02  0.00000000000E+00 0. -1.
</event>
<event>
 7    1  0.2284751E-015  0.9000775E+02  0.7816164E-02  0.1186339E+00
        -11   -1    0    0    0    0  0.00000000000E+00  0.00000000000E+00  0.45593999997E+02  0.45594000000E+02  0.51100000000E-03 0.  1.
         11   -1    0    0    0    0 -0.00000000000E+00 -0.00000000000E+00 -0.45593999997E+02  0.45594000000E+02  0.51100000000E-03 0. -1.
    9900012    2    1    2    0    0  0.10587772815E+01  0.50001656833E+00 -0.14820712367E+00  0.90007749496E+02  0.90000010989E+02 0.  0.
         12    1    1    2    0    0 -0.10587772815E+01 -0.50001656833E+00  0.14820712367E+00  0.11802505039E+01  0.00000000000E+00 0. -1.
         11    1    3    3    0    0 -0.16763477595E+01  0.88443098614E+01  0.60050719604E+01  0.10820944887E+02  0.51100000000E-03 0. -1.
        -11    1    3    3    0    0 -0.23036509658E+01  0.13193026471E+02  0.32221423072E+02  0.34893879984E+02  0.51100000000E-03 0.  1.
         12    1    3    3    0    0  0.50387760068E+01 -0.21537319764E+02 -0.38374702156E+02  0.44292924626E+02  0.00000000000E+00 0. -1.
</event>
<event>
 7    1  0.2284751E-015  0.9000761E+02  0.7816164E-02  0.1186339E+00
        -11   -1    0    0    0    0  0.00000000000E+00  0.00000000000E+00  0.45593999997E+02  0.45594000000E+02  0.51100000000E-03 0.  1.
         11   -1    0    0    0    0 -0.00000000000E+00 -0.00000000000E+00 -0.45593999997E+02  0.45594000000E+02  0.51100000000E-03 0. -1.
    9900012    2    1    2    0    0 -0.89873922485E+00 -0.64959625588E+00 -0.40449590821E+00  0.90007608357E+02  0.89999867988E+02 0.  0.
         12    1    1    2    0    0  0.89873922485E+00  0.64959625588E+00  0.40449590821E+00  0.11803916425E+01  0.00000000000E+00 0. -1.
         11    1    3    3    0    0  0.37362045790E+01 -0.61845470144E+01  0.74256530920E+01  0.10360896223E+02  0.51100000000E-03 0. -1.
        -11    1    3    3    0    0  0.11589637135E+02  0.12395874036E+02  0.31929791996E+02  0.36159217348E+02  0.51100000000E-03 0.  1.
         12    1    3    3    0    0 -0.16224580939E+02 -0.68609232773E+01 -0.39759940996E+02  0.43487494787E+02  0.00000000000E+00 0. -1.
</event>
<event>
 7    1  0.2677640E-015  0.9000774E+02  0.7816164E-02  0.1186339E+00
        -11   -1    0    0    0    0  0.00000000000E+00  0.00000000000E+00  0.45593999997E+02  0.45594000000E+02  0.51100000000E-03 0. -1.
         11   -1    0    0    0    0 -0.00000000000E+00 -0.00000000000E+00 -0.45593999997E+02  0.45594000000E+02  0.51100000000E-03 0.  1.
    9900012    2    1    2    0    0  0.94783534242E+00  0.37993806010E+00 -0.59183455674E+00  0.90007740322E+02  0.90000001694E+02 0.  0.
         12    1    1    2    0    0 -0.94783534242E+00 -0.37993806010E+00  0.59183455674E+00  0.11802596784E+01  0.00000000000E+00 0. -1.
         11    1    3    3    0    0 -0.22970966321E+02 -0.93740034445E+00  0.29449490241E+02  0.37360627522E+02  0.51100000000E-03 0. -1.
        -11    1    3    3    0    0 -0.71510816187E+01 -0.65991191465E+01 -0.17491019461E+01  0.98866424891E+01  0.51100000000E-03 0.  1.
        -12    1    3    3    0    0  0.31069883282E+02  0.79164575511E+01 -0.28292222851E+02  0.42760470311E+02  0.00000000000E+00 0.  1.
</event>
<event>
 7    1  0.2284751E-015  0.9000749E+02  0.7816164E-02  0.1186340E+00
        -11   -1    0    0    0    0  0.00000000000E+00  0.00000000000E+00  0.45593999997E+02  0.45594000000E+02  0.51100000000E-03 0.  1.
         11   -1    0    0    0    0 -0.00000000000E+00 -0.00000000000E+00 -0.45593999997E+02  0.45594000000E+02  0.51100000000E-03 0. -1.
    9900012    2    1    2    0    0  0.11674627130E+00  0.76223365752E+00  0.89385498197E+00  0.90007488853E+02  0.89999746905E+02 0.  0.
         12    1    1    2    0    0 -0.11674627130E+00 -0.76223365752E+00 -0.89385498197E+00  0.11805111475E+01  0.00000000000E+00 0. -1.
         11    1    3    3    0    0 -0.16417483360E+01  0.69644647727E+01  0.65034235312E+01  0.96692101568E+01  0.51100000000E-03 0. -1.
        -11    1    3    3    0    0 -0.62803589633E+01 -0.41804381590E+01  0.36576024524E+02  0.37346011061E+02  0.51100000000E-03 0.  1.
         12    1    3    3    0    0  0.80388535705E+01 -0.20217929562E+01 -0.42185593073E+02  0.42992267635E+02  0.00000000000E+00 0. -1.
</event>
<event>
 7    1  0.2284751E-015  0.9000764E+02  0.7816164E-02  0.1186339E+00
        -11   -1    0    0    0    0  0.00000000000E+00  0.00000000000E+00  0.45593999997E+02  0.45594000000E+02  0.51100000000E-03 0. -1.
         11   -1    0    0    0    0 -0.00000000000E+00 -0.00000000000E+00 -0.45593999997E+02  0.45594000000E+02  0.51100000000E-03 0.  1.
    9900012    2    1    2    0    0 -0.82374003583E+00 -0.80643103875E+00 -0.25371951891E+00  0.90007638928E+02  0.89999898961E+02 0.  0.
         12    1    1    2    0    0  0.82374003583E+00  0.80643103875E+00  0.25371951891E+00  0.11803610724E+01  0.00000000000E+00 0. -1.
         11    1    3    3    0    0  0.31019111815E+00 -0.99535677270E+01  0.14449645135E+01  0.10062686109E+02  0.51100000000E-03 0. -1.
        -11    1    3    3    0    0 -0.40178209018E+02  0.55860011089E+01 -0.33587741418E+01  0.40703479609E+02  0.51100000000E-03 0.  1.
         12    1    3    3    0    0  0.39044277864E+02  0.35611355794E+01  0.16600901095E+01  0.39241473210E+02  0.00000000000E+00 0. -1.
</event>
<event>
 7    1  0.2284751E-015  0.9000773E+02  0.7816164E-02  0.1186339E+00
        -11   -1    0    0    0    0  0.00000000000E+00  0.00000000000E+00  0.45593999997E+02  0.45594000000E+02  0.51100000000E-03 0. -1.
         11   -1    0    0    0    0 -0.00000000000E+00 -0.00000000000E+00 -0.45593999997E+02  0.45594000000E+02  0.51100000000E-03 0.  1.
    9900012    2    1    2    0    0  0.52195151071E+00  0.97991559392E+00  0.40046371337E+00  0.90007729211E+02  0.89999990436E+02 0.  0.
         12    1    1    2    0    0 -0.52195151071E+00 -0.97991559392E+00 -0.40046371337E+00  0.11802707895E+01  0.00000000000E+00 0. -1.
         11    1    3    3    0    0  0.66216987964E+01  0.29465771652E-01 -0.13417944202E+01  0.67563433682E+01  0.51100000000E-03 0. -1.
        -11    1    3    3    0    0 -0.75208163666E+01  0.40702724721E+02 -0.83225735368E+01  0.42220133930E+02  0.51100000000E-03 0.  1.
         12    1    3    3    0    0  0.14210690809E+01 -0.39752274899E+02  0.10064831670E+02  0.41031251912E+02  0.00000000000E+00 0. -1.
</event>
<event>
 7    1  0.2284751E-015  0.9000772E+02  0.7816164E-02  0.1186339E+00
        -11   -1    0    0    0    0  0.00000000000E+00  0.00000000000E+00  0.45593999997E+02  0.45594000000E+02  0.51100000000E-03 0. -1.
         11   -1    0    0    0    0 -0.00000000000E+00 -0.00000000000E+00 -0.45593999997E+02  0.45594000000E+02  0.51100000000E-03 0.  1.
    9900012    2    1    2    0    0 -0.71351415102E+00 -0.29678523118E+00 -0.89212022585E+00  0.90007719349E+02  0.89999980445E+02 0.  0.
         12    1    1    2    0    0  0.71351415102E+00  0.29678523118E+00  0.89212022585E+00  0.11802806507E+01  0.00000000000E+00 0. -1.
         11    1    3    3    0    0  0.87766234897E+01  0.24222963604E+01  0.15962087235E+01  0.92436206157E+01  0.51100000000E-03 0. -1.
        -11    1    3    3    0    0  0.30969510226E+02 -0.14403819415E+02 -0.14296814598E+02  0.37026740139E+02  0.51100000000E-03 0.  1.
         12    1    3    3    0    0 -0.40459647867E+02  0.11684737824E+02  0.11808485649E+02  0.43737358595E+02  0.00000000000E+00 0. -1.
</event>
<event>
 7    1  0.2284751E-015  0.9000776E+02  0.7816164E-02  0.1186339E+00
        -11   -1    0    0    0    0  0.00000000000E+00  0.00000000000E+00  0.45593999997E+02  0.45594000000E+02  0.51100000000E-03 0.  1.
         11   -1    0    0    0    0 -0.00000000000E+00 -0.00000000000E+00 -0.45593999997E+02  0.45594000000E+02  0.51100000000E-03 0. -1.
    9900012    2    1    2    0    0  0.28581474307E+00  0.56069743933E-02  0.11450926041E+01  0.90007763338E+02  0.90000025014E+02 0.  0.
         12    1    1    2    0    0 -0.28581474307E+00 -0.56069743933E-02 -0.11450926041E+01  0.11802366617E+01  0.00000000000E+00 0. -1.
         11    1    3    3    0    0  0.86739021438E+01  0.59891116235E+01  0.74550105260E+01  0.12910585527E+02  0.51100000000E-03 0. -1.
        -11    1    3    3    0    0 -0.33680846483E+01  0.31671330336E+02  0.13098736475E+02  0.34438264430E+02  0.51100000000E-03 0.  1.
         12    1    3    3    0    0 -0.50200027524E+01 -0.37654834985E+02 -0.19408654397E+02  0.42658913382E+02  0.00000000000E+00 0. -1.
</event>
<event>
 7    1  0.2284751E-015  0.9000720E+02  0.7816164E-02  0.1186340E+00
        -11   -1    0    0    0    0  0.00000000000E+00  0.00000000000E+00  0.45593999997E+02  0.45594000000E+02  0.51100000000E-03 0.  1.
         11   -1    0    0    0    0 -0.00000000000E+00 -0.00000000000E+00 -0.45593999997E+02  0.45594000000E+02  0.51100000000E-03 0. -1.
    9900012    2    1    2    0    0 -0.74984349432E+00  0.79196489006E+00  0.45255306288E+00  0.90007204536E+02  0.89999458834E+02 0.  0.
         12    1    1    2    0    0  0.74984349432E+00 -0.79196489006E+00 -0.45255306288E+00  0.11807954640E+01  0.00000000000E+00 0. -1.
         11    1    3    3    0    0 -0.23749871447E+02 -0.82008423327E+01 -0.31756722662E+02  0.40494439658E+02  0.51100000000E-03 0. -1.
        -11    1    3    3    0    0  0.46252955049E+01 -0.82880349544E+01  0.12416810277E+01  0.95721812534E+01  0.51100000000E-03 0.  1.
        -12    1    3    3    0    0  0.18374732448E+02  0.17280842177E+02  0.30967594698E+02  0.39940583624E+02  0.00000000000E+00 0.  1.
</event>
<event>
 7    1  0.2284751E-015  0.9000772E+02  0.7816164E-02  0.1186339E+00
        -11   -1    0    0    0    0  0.00000000000E+00  0.00000000000E+00  0.45593999997E+02  0.45594000000E+02  0.51100000000E-03 0. -1.
         11   -1    0    0    0    0 -0.00000000000E+00 -0.00000000000E+00 -0.45593999997E+02  0.45594000000E+02  0.51100000000E-03 0.  1.
    9900012    2    1    2    0    0 -0.32842881536E+00 -0.14472570755E+00 -0.11243897870E+01  0.90007718927E+02  0.89999980017E+02 0.  0.
         12    1    1    2    0    0  0.32842881536E+00  0.14472570755E+00  0.11243897870E+01  0.11802810726E+01  0.00000000000E+00 0. -1.
         11    1    3    3    0    0  0.77845744998E+01  0.36942580666E+02  0.12180958037E+02  0.39670260969E+02  0.51100000000E-03 0. -1.
        -11    1    3    3    0    0  0.99291779946E+01 -0.10308609471E+02  0.22631331013E+01  0.14490609944E+02  0.51100000000E-03 0.  1.
        -12    1    3    3    0    0 -0.18042181310E+02 -0.26778696903E+02 -0.15568480925E+02  0.35846848014E+02  0.00000000000E+00 0.  1.
</event>
<event>
 7    1  0.2284751E-015  0.9000770E+02  0.7816164E-02  0.1186339E+00
        -11   -1    0    0    0    0  0.00000000000E+00  0.00000000000E+00  0.45593999997E+02  0.45594000000E+02  0.51100000000E-03 0.  1.
         11   -1    0    0    0    0 -0.00000000000E+00 -0.00000000000E+00 -0.45593999997E+02  0.45594000000E+02  0.51100000000E-03 0. -1.
    9900012    2    1    2    0    0 -0.82174331230E+00 -0.64456506066E+00 -0.54989819487E+00  0.90007697406E+02  0.89999958212E+02 0.  0.
         12    1    1    2    0    0  0.82174331230E+00  0.64456506066E+00  0.54989819487E+00  0.11803025940E+01  0.00000000000E+00 0. -1.
         11    1    3    3    0    0 -0.25388237260E+02  0.30296934526E+02 -0.62674075372E+01  0.40021834420E+02  0.51100000000E-03 0. -1.
        -11    1    3    3    0    0  0.18451838397E+02 -0.37858211737E+00  0.30144641384E+01  0.18700284997E+02  0.51100000000E-03 0.  1.
        -12    1    3    3    0    0  0.61146555503E+01 -0.30562917470E+02  0.27030452039E+01  0.31285577989E+02  0.00000000000E+00 0.  1.
</event>
<event>
 7    1  0.2284751E-015  0.9000777E+02  0.7816164E-02  0.1186339E+00
        -11   -1    0    0    0    0  0.00000000000E+00  0.00000000000E+00  0.45593999997E+02  0.45594000000E+02  0.51100000000E-03 0.  1.
         11   -1    0    0    0    0 -0.00000000000E+00 -0.00000000000E+00 -0.45593999997E+02  0.45594000000E+02  0.51100000000E-03 0. -1.
    9900012    2    1    2    0    0  0.11293813969E+01  0.32480038973E+00 -0.10927091920E+00  0.90007772155E+02  0.90000033947E+02 0.  0.
         12    1    1    2    0    0 -0.11293813969E+01 -0.32480038973E+00  0.10927091920E+00  0.11802278452E+01  0.00000000000E+00 0. -1.
         11    1    3    3    0    0  0.19429278829E+01  0.11724832744E+02  0.43724521616E+01  0.12663530700E+02  0.51100000000E-03 0. -1.
        -11    1    3    3    0    0 -0.18486795152E+02  0.99434994752E+01  0.27777634105E+02  0.34817118398E+02  0.51100000000E-03 0.  1.
         12    1    3    3    0    0  0.17673248666E+02 -0.21343531830E+02 -0.32259357186E+02  0.42527123056E+02  0.00000000000E+00 0. -1.
</event>
<event>
 7    1  0.2284751E-015  0.9000771E+02  0.7816164E-02  0.1186339E+00
        -11   -1    0    0    0    0  0.00000000000E+00  0.00000000000E+00  0.45593999997E+02  0.45594000000E+02  0.51100000000E-03 0.  1.
         11   -1    0    0    0    0 -0.00000000000E+00 -0.00000000000E+00 -0.45593999997E+02  0.45594000000E+02  0.51100000000E-03 0. -1.
    9900012    2    1    2    0    0 -0.47862113964E+00 -0.10592645908E+01  0.20483257177E+00  0.90007713572E+02  0.89999974592E+02 0.  0.
         12    1    1    2    0    0  0.47862113964E+00  0.10592645908E+01 -0.20483257177E+00  0.11802864276E+01  0.00000000000E+00 0. -1.
         11    1    3    3    0    0  0.86675855254E+01 -0.21880784473E+02 -0.32175781304E+02  0.39864478810E+02  0.51100000000E-03 0. -1.
        -11    1    3    3    0    0  0.75583091213E+01 -0.25106352049E+00 -0.60387948167E+00  0.75865499639E+01  0.51100000000E-03 0.  1.
        -12    1    3    3    0    0 -0.16704515786E+02  0.21072583403E+02  0.32984493358E+02  0.42556684798E+02  0.00000000000E+00 0.  1.
</event>
<event>
 7    1  0.2284751E-015  0.9000778E+02  0.7816164E-02  0.1186339E+00
        -11   -1    0    0    0    0  0.00000000000E+00  0.00000000000E+00  0.45593999997E+02  0.45594000000E+02  0.51100000000E-03 0.  1.
         11   -1    0    0    0    0 -0.00000000000E+00 -0.00000000000E+00 -0.45593999997E+02  0.45594000000E+02  0.51100000000E-03 0. -1.
    9900012    2    1    2    0    0  0.10446590638E+01  0.48313906858E+00  0.26109786858E+00  0.90007784759E+02  0.90000046717E+02 0.  0.
         12    1    1    2    0    0 -0.10446590638E+01 -0.48313906858E+00 -0.26109786858E+00  0.11802152414E+01  0.00000000000E+00 0. -1.
         11    1    3    3    0    0 -0.63446104135E+01  0.67000875097E+01  0.23952683896E+01  0.95332347530E+01  0.51100000000E-03 0. -1.
        -11    1    3    3    0    0  0.85247712532E+01  0.35296651164E+02 -0.11136548432E+02  0.37980890190E+02  0.51100000000E-03 0.  1.
         12    1    3    3    0    0 -0.11355017760E+01 -0.41513599606E+02  0.90023779114E+01  0.42493659816E+02  0.00000000000E+00 0. -1.
</event>
<event>
 7    1  0.2284751E-015  0.9000775E+02  0.7816164E-02  0.1186339E+00
        -11   -1    0    0    0    0  0.00000000000E+00  0.00000000000E+00  0.45593999997E+02  0.45594000000E+02  0.51100000000E-03 0.  1.
         11   -1    0    0    0    0 -0.00000000000E+00 -0.00000000000E+00 -0.45593999997E+02  0.45594000000E+02  0.51100000000E-03 0. -1.
    9900012    2    1    2    0    0 -0.76212018387E+00 -0.28439739182E+00  0.85515108568E+00  0.90007748997E+02  0.90000010484E+02 0.  0.
         12    1    1    2    0    0  0.76212018387E+00  0.28439739182E+00 -0.85515108568E+00  0.11802510032E+01  0.00000000000E+00 0. -1.
         11    1    3    3    0    0  0.71130590988E+01  0.26330674113E+01 -0.53749164674E+01  0.92961487202E+01  0.51100000000E-03 0. -1.
        -11    1    3    3    0    0  0.31678959757E+02  0.90165110326E+01 -0.12655240142E+02  0.35284685995E+02  0.51100000000E-03 0.  1.
         12    1    3    3    0    0 -0.39554139039E+02 -0.11933975836E+02  0.18885307695E+02  0.45426914281E+02  0.00000000000E+00 0. -1.
</event>
<event>
 7    1  0.2284751E-015  0.9000776E+02  0.7816164E-02  0.1186339E+00
        -11   -1    0    0    0    0  0.00000000000E+00  0.00000000000E+00  0.45593999997E+02  0.45594000000E+02  0.51100000000E-03 0.  1.
         11   -1    0    0    0    0 -0.00000000000E+00 -0.00000000000E+00 -0.45593999997E+02  0.45594000000E+02  0.51100000000E-03 0. -1.
    9900012    2    1    2    0    0  0.85249307657E+00  0.58026733128E+00  0.57403744660E+00  0.90007756969E+02  0.90000018561E+02 0.  0.
         12    1    1    2    0    0 -0.85249307657E+00 -0.58026733128E+00 -0.57403744660E+00  0.11802430307E+01  0.00000000000E+00 0. -1.
         11    1    3    3    0    0 -0.19592180013E+02 -0.29699675399E+02 -0.65447886160E+01  0.36176767335E+02  0.51100000000E-03 0. -1.
        -11    1    3    3    0    0 -0.68956586763E+01 -0.14791508464E+01  0.95296252617E+01  0.11855452488E+02  0.51100000000E-03 0.  1.
        -12    1    3    3    0    0  0.27340331766E+02  0.31759093577E+02 -0.24107991992E+01  0.41975537146E+02  0.00000000000E+00 0.  1.
</event>
<event>
 7    1  0.2284751E-015  0.9000773E+02  0.7816164E-02  0.1186339E+00
        -11   -1    0    0    0    0  0.00000000000E+00  0.00000000000E+00  0.45593999997E+02  0.45594000000E+02  0.51100000000E-03 0.  1.
         11   -1    0    0    0    0 -0.00000000000E+00 -0.00000000000E+00 -0.45593999997E+02  0.45594000000E+02  0.51100000000E-03 0. -1.
    9900012    2    1    2    0    0  0.14036887054E+00  0.80098119588E+00 -0.85542933337E+00  0.90007731539E+02  0.89999992795E+02 0.  0.
         12    1    1    2    0    0 -0.14036887054E+00 -0.80098119588E+00  0.85542933337E+00  0.11802684611E+01  0.00000000000E+00 0. -1.
         11    1    3    3    0    0  0.17136159929E+01  0.33405952209E+02 -0.16927451457E+02  0.37489101562E+02  0.51100000000E-03 0. -1.
        -11    1    3    3    0    0  0.12531143659E+01  0.25456823550E+00 -0.10245161505E+02  0.10324651816E+02  0.51100000000E-03 0.  1.
        -12    1    3    3    0    0 -0.28263614882E+01 -0.32859539249E+02  0.26317183629E+02  0.42193978161E+02  0.00000000000E+00 0.  1.
</event>
<event>
 7    1  0.2284751E-015  0.9000773E+02  0.7816164E-02  0.1186339E+00
        -11   -1    0    0    0    0  0.00000000000E+00  0.00000000000E+00  0.45593999997E+02  0.45594000000E+02  0.51100000000E-03 0.  1.
         11   -1    0    0    0    0 -0.00000000000E+00 -0.00000000000E+00 -0.45593999997E+02  0.45594000000E+02  0.51100000000E-03 0. -1.
    9900012    2    1    2    0    0 -0.31353747070E+00  0.10294986079E+01  0.48461763858E+00  0.90007734189E+02  0.89999995480E+02 0.  0.
         12    1    1    2    0    0  0.31353747070E+00 -0.10294986079E+01 -0.48461763858E+00  0.11802658111E+01  0.00000000000E+00 0. -1.
         11    1    3    3    0    0  0.68323468394E+01  0.75294535688E+00  0.89659195071E+01  0.11297592793E+02  0.51100000000E-03 0. -1.
        -11    1    3    3    0    0 -0.25138135089E+02  0.31191872711E+02  0.52337507209E+01  0.40401125056E+02  0.51100000000E-03 0.  1.
         12    1    3    3    0    0  0.17992250779E+02 -0.30915319460E+02 -0.13715052589E+02  0.38309016340E+02  0.00000000000E+00 0. -1.
</event>
<event>
 7    1  0.2284751E-015  0.9000772E+02  0.7816164E-02  0.1186339E+00
        -11   -1    0    0    0    0  0.00000000000E+00  0.00000000000E+00  0.45593999997E+02  0.45594000000E+02  0.51100000000E-03 0.  1.
         11   -1    0    0    0    0 -0.00000000000E+00 -0.00000000000E+00 -0.45593999997E+02  0.45594000000E+02  0.51100000000E-03 0. -1.
    9900012    2    1    2    0    0  0.11748523570E+01  0.28831180202E-01 -0.10935855099E+00  0.90007716733E+02  0.89999977794E+02 0.  0.
         12    1    1    2    0    0 -0.11748523570E+01 -0.28831180202E-01  0.10935855099E+00  0.11802832670E+01  0.00000000000E+00 0. -1.
         11    1    3    3    0    0  0.63689243658E+01  0.27443201642E+01 -0.54311875554E+01  0.88086485492E+01  0.51100000000E-03 0. -1.
        -11    1    3    3    0    0  0.32018024555E+02 -0.19222835013E+02  0.13436758230E+02  0.39689013018E+02  0.51100000000E-03 0.  1.
         12    1    3    3    0    0 -0.37212096563E+02  0.16507346029E+02 -0.81149292259E+01  0.41510055166E+02  0.00000000000E+00 0. -1.
</event>
<event>
 7    1  0.2284751E-015  0.9000846E+02  0.7816164E-02  0.1186338E+00
        -11   -1    0    0    0    0  0.00000000000E+00  0.00000000000E+00  0.45593999997E+02  0.45594000000E+02  0.51100000000E-03 0. -1.
         11   -1    0    0    0    0 -0.00000000000E+00 -0.00000000000E+00 -0.45593999997E+02  0.45594000000E+02  0.51100000000E-03 0.  1.
    9900012    2    1    2    0    0 -0.46951429315E+00 -0.23324015003E+00 -0.10566351191E+01  0.90008456693E+02  0.90000727518E+02 0.  0.
         12    1    1    2    0    0  0.46951429315E+00  0.23324015003E+00  0.10566351191E+01  0.11795433074E+01  0.00000000000E+00 0. -1.
         11    1    3    3    0    0 -0.19229348197E+02 -0.30037733207E+02 -0.13453572606E+02  0.38118655071E+02  0.51100000000E-03 0. -1.
        -11    1    3    3    0    0 -0.73288828498E+01 -0.26484435254E+01 -0.16111957566E+01  0.79575579772E+01  0.51100000000E-03 0.  1.
        -12    1    3    3    0    0  0.26088716753E+02  0.32452936583E+02  0.14008133243E+02  0.43932243644E+02  0.00000000000E+00 0.  1.
</event>
<event>
 7    1  0.2284751E-015  0.9000771E+02  0.7816164E-02  0.1186339E+00
        -11   -1    0    0    0    0  0.00000000000E+00  0.00000000000E+00  0.45593999997E+02  0.45594000000E+02  0.51100000000E-03 0.  1.
         11   -1    0    0    0    0 -0.00000000000E+00 -0.00000000000E+00 -0.45593999997E+02  0.45594000000E+02  0.51100000000E-03 0. -1.
    9900012    2    1    2    0    0 -0.11508827793E+01  0.24020779055E+00  0.10414812365E+00  0.90007712838E+02  0.89999973847E+02 0.  0.
         12    1    1    2    0    0  0.11508827793E+01 -0.24020779055E+00 -0.10414812365E+00  0.11802871625E+01  0.00000000000E+00 0. -1.
         11    1    3    3    0    0 -0.24561758206E+01  0.10201547661E+02  0.15393018042E+02  0.18629261366E+02  0.51100000000E-03 0. -1.
        -11    1    3    3    0    0 -0.26360852718E+02 -0.23853226923E+02  0.25609561534E+01  0.35643084706E+02  0.51100000000E-03 0.  1.
         12    1    3    3    0    0  0.27666145760E+02  0.13891887053E+02 -0.17849826071E+02  0.35735366765E+02  0.00000000000E+00 0. -1.
</event>
<event>
 7    1  0.2284751E-015  0.9000775E+02  0.7816164E-02  0.1186339E+00
        -11   -1    0    0    0    0  0.00000000000E+00  0.00000000000E+00  0.45593999997E+02  0.45594000000E+02  0.51100000000E-03 0.  1.
         11   -1    0    0    0    0 -0.00000000000E+00 -0.00000000000E+00 -0.45593999997E+02  0.45594000000E+02  0.51100000000E-03 0. -1.
    9900012    2    1    2    0    0  0.15832044119E+00 -0.11054132560E+01 -0.38208661257E+00  0.90007748328E+02  0.90000009806E+02 0.  0.
         12    1    1    2    0    0 -0.15832044119E+00  0.11054132560E+01  0.38208661257E+00  0.11802516715E+01  0.00000000000E+00 0. -1.
         11    1    3    3    0    0 -0.64885066975E+01  0.62867517693E+00 -0.77899918951E+01  0.10157751997E+02  0.51100000000E-03 0. -1.
        -11    1    3    3    0    0 -0.34210345228E+02  0.12012530847E+02  0.57431554826E+01  0.36710113771E+02  0.51100000000E-03 0.  1.
         12    1    3    3    0    0  0.40857172366E+02 -0.13746619280E+02  0.16647497999E+01  0.43139882560E+02  0.00000000000E+00 0. -1.
</event>
<event>
 7    1  0.2284751E-015  0.9000769E+02  0.7816164E-02  0.1186339E+00
        -11   -1    0    0    0    0  0.00000000000E+00  0.00000000000E+00  0.45593999997E+02  0.45594000000E+02  0.51100000000E-03 0.  1.
         11   -1    0    0    0    0 -0.00000000000E+00 -0.00000000000E+00 -0.45593999997E+02  0.45594000000E+02  0.51100000000E-03 0. -1.
    9900012    2    1    2    0    0  0.10142231826E+01 -0.30005470669E+00 -0.52387039446E+00  0.90007694242E+02  0.89999955006E+02 0.  0.
         12    1    1    2    0    0 -0.10142231826E+01  0.30005470669E+00  0.52387039446E+00  0.11803057575E+01  0.00000000000E+00 0. -1.
         11    1    3    3    0    0 -0.98534064121E+00 -0.63400902039E+01  0.73278253013E+01  0.97398492740E+01  0.51100000000E-03 0. -1.
        -11    1    3    3    0    0 -0.34646918905E+02 -0.13780876209E+02  0.23920930597E+01  0.37363667488E+02  0.51100000000E-03 0.  1.
         12    1    3    3    0    0  0.36646482728E+02  0.19820911706E+02 -0.10243788755E+02  0.42904177481E+02  0.00000000000E+00 0. -1.
</event>
<event>
 7    1  0.2284751E-015  0.9000790E+02  0.7816164E-02  0.1186339E+00
        -11   -1    0    0    0    0  0.00000000000E+00  0.00000000000E+00  0.45593999997E+02  0.45594000000E+02  0.51100000000E-03 0. -1.
         11   -1    0    0    0    0 -0.00000000000E+00 -0.00000000000E+00 -0.45593999997E+02  0.45594000000E+02  0.51100000000E-03 0.  1.
    9900012    2    1    2    0    0  0.11074562327E+01 -0.30298641647E+00  0.27270103951E+00  0.90007904270E+02  0.90000167806E+02 0.  0.
         12    1    1    2    0    0 -0.11074562327E+01  0.30298641647E+00 -0.27270103951E+00  0.11800957304E+01  0.00000000000E+00 0. -1.
         11    1    3    3    0    0  0.33949499480E+01  0.11824058097E+02  0.14784756695E+02  0.19233384149E+02  0.51100000000E-03 0. -1.
        -11    1    3    3    0    0  0.28784579991E+02  0.10357594228E+02 -0.30427852384E+01  0.30742321735E+02  0.51100000000E-03 0.  1.
        -12    1    3    3    0    0 -0.31072073706E+02 -0.22484638741E+02 -0.11469270417E+02  0.40032198386E+02  0.00000000000E+00 0.  1.
</event>
<event>
 7    1  0.2284751E-015  0.9000771E+02  0.7816164E-02  0.1186339E+00
        -11   -1    0    0    0    0  0.00000000000E+00  0.00000000000E+00  0.45593999997E+02  0.45594000000E+02  0.51100000000E-03 0. -1.
         11   -1    0    0    0    0 -0.00000000000E+00 -0.00000000000E+00 -0.45593999997E+02  0.45594000000E+02  0.51100000000E-03 0.  1.
    9900012    2    1    2    0    0  0.40928522052E+00  0.65885166544E+00 -0.88965930920E+00  0.90007706140E+02  0.89999967061E+02 0.  0.
         12    1    1    2    0    0 -0.40928522052E+00 -0.65885166544E+00  0.88965930920E+00  0.11802938597E+01  0.00000000000E+00 0. -1.
         11    1    3    3    0    0  0.14783423177E+01  0.94191568383E+01 -0.26244206893E+01  0.98890644537E+01  0.51100000000E-03 0. -1.
        -11    1    3    3    0    0  0.34965624084E+02 -0.16177437487E+02 -0.12747336398E+02  0.40580770529E+02  0.51100000000E-03 0.  1.
         12    1    3    3    0    0 -0.36034681181E+02  0.74171323140E+01  0.14482097779E+02  0.39537871157E+02  0.00000000000E+00 0. -1.
</event>
<event>
 7    1  0.2284751E-015  0.9000772E+02  0.7816164E-02  0.1186339E+00
        -11   -1    0    0    0    0  0.00000000000E+00  0.00000000000E+00  0.45593999997E+02  0.45594000000E+02  0.51100000000E-03 0. -1.
         11   -1    0    0    0    0 -0.00000000000E+00 -0.00000000000E+00 -0.45593999997E+02  0.45594000000E+02  0.51100000000E-03 0.  1.
    9900012    2    1    2    0    0 -0.44667724050E+00 -0.10839695709E+01 -0.13617456855E+00  0.90007722871E+02  0.89999984013E+02 0.  0.
         12    1    1    2    0    0  0.44667724050E+00  0.10839695709E+01  0.13617456855E+00  0.11802771289E+01  0.00000000000E+00 0. -1.
         11    1    3    3    0    0 -0.28665808043E+02  0.27387623396E+02 -0.18622261666E+01  0.39689776425E+02  0.51100000000E-03 0. -1.
        -11    1    3    3    0    0  0.50883467190E+01  0.59842266767E+01  0.38823442515E+01  0.87621252216E+01  0.51100000000E-03 0.  1.
        -12    1    3    3    0    0  0.23130784084E+02 -0.34455819644E+02 -0.21562926535E+01  0.41555821225E+02  0.00000000000E+00 0.  1.
</event>
<event>
 7    1  0.2284751E-015  0.9000769E+02  0.7816164E-02  0.1186339E+00
        -11   -1    0    0    0    0  0.00000000000E+00  0.00000000000E+00  0.45593999997E+02  0.45594000000E+02  0.51100000000E-03 0.  1.
         11   -1    0    0    0    0 -0.00000000000E+00 -0.00000000000E+00 -0.45593999997E+02  0.45594000000E+02  0.51100000000E-03 0. -1.
    9900012    2    1    2    0    0  0.67248204382E+00  0.82063918007E+00  0.51716282404E+00  0.90007687266E+02  0.89999947938E+02 0.  0.
         12    1    1    2    0    0 -0.67248204382E+00 -0.82063918007E+00 -0.51716282404E+00  0.11803127338E+01  0.00000000000E+00 0. -1.
         11    1    3    3    0    0 -0.11095301727E+02 -0.27520958669E+02 -0.20985662689E+02  0.36344283254E+02  0.51100000000E-03 0. -1.
        -11    1    3    3    0    0 -0.11517312381E+02  0.10618065256E+02 -0.24397006192E+01  0.15853830252E+02  0.51100000000E-03 0.  1.
        -12    1    3    3    0    0  0.23285096152E+02  0.17723532593E+02  0.23942526132E+02  0.37809573761E+02  0.00000000000E+00 0.  1.
</event>
<event>
 7    1  0.2284751E-015  0.9000771E+02  0.7816164E-02  0.1186339E+00
        -11   -1    0    0    0    0  0.00000000000E+00  0.00000000000E+00  0.45593999997E+02  0.45594000000E+02  0.51100000000E-03 0.  1.
         11   -1    0    0    0    0 -0.00000000000E+00 -0.00000000000E+00 -0.45593999997E+02  0.45594000000E+02  0.51100000000E-03 0. -1.
    9900012    2    1    2    0    0  0.53241927117E+00 -0.10187726178E+01 -0.26780130423E+00  0.90007709584E+02  0.89999970551E+02 0.  0.
         12    1    1    2    0    0 -0.53241927117E+00  0.10187726178E+01  0.26780130423E+00  0.11802904158E+01  0.00000000000E+00 0. -1.
         11    1    3    3    0    0 -0.12141953233E+01 -0.99783325315E+01 -0.91957370354E+00  0.10093909374E+02  0.51100000000E-03 0. -1.
        -11    1    3    3    0    0 -0.17568044080E+02 -0.25731796189E+02  0.18657516987E+02  0.36316173370E+02  0.51100000000E-03 0.  1.
         12    1    3    3    0    0  0.19314658674E+02  0.34691356102E+02 -0.18005744587E+02  0.43597626840E+02  0.00000000000E+00 0. -1.
</event>
<event>
 7    1  0.2284751E-015  0.9000770E+02  0.7816164E-02  0.1186339E+00
        -11   -1    0    0    0    0  0.00000000000E+00  0.00000000000E+00  0.45593999997E+02  0.45594000000E+02  0.51100000000E-03 0.  1.
         11   -1    0    0    0    0 -0.00000000000E+00 -0.00000000000E+00 -0.45593999997E+02  0.45594000000E+02  0.51100000000E-03 0. -1.
    9900012    2    1    2    0    0  0.82415629971E+00 -0.70719931291E+00  0.46232400184E+00  0.90007700056E+02  0.89999960897E+02 0.  0.
         12    1    1    2    0    0 -0.82415629971E+00  0.70719931291E+00 -0.46232400184E+00  0.11802999437E+01  0.00000000000E+00 0. -1.
         11    1    3    3    0    0 -0.10976607099E+02  0.85969120437E+01 -0.11563619785E+01  0.13990352868E+02  0.51100000000E-03 0. -1.
        -11    1    3    3    0    0  0.25437578880E+02  0.19728940118E+02 -0.19477596115E+02  0.37625499972E+02  0.51100000000E-03 0.  1.
         12    1    3    3    0    0 -0.13636815481E+02 -0.29033051475E+02  0.21096282095E+02  0.38391847216E+02  0.00000000000E+00 0. -1.
</event>
<event>
 7    1  0.2284751E-015  0.9000768E+02  0.7816164E-02  0.1186339E+00
        -11   -1    0    0    0    0  0.00000000000E+00  0.00000000000E+00  0.45593999997E+02  0.45594000000E+02  0.51100000000E-03 0.  1.
         11   -1    0    0    0    0 -0.00000000000E+00 -0.00000000000E+00 -0.45593999997E+02  0.45594000000E+02  0.51100000000E-03 0. -1.
    9900012    2    1    2    0    0  0.83670757667E+00  0.78005272092E+00 -0.29086499349E+00  0.90007676205E+02  0.89999936731E+02 0.  0.
         12    1    1    2    0    0 -0.83670757667E+00 -0.78005272092E+00  0.29086499349E+00  0.11803237949E+01  0.00000000000E+00 0. -1.
         11    1    3    3    0    0 -0.10835020000E+02  0.32346187824E+02 -0.17429618386E+02  0.38307507391E+02  0.51100000000E-03 0. -1.
        -11    1    3    3    0    0 -0.92483335983E+00  0.62155664520E+01  0.91189506610E+01  0.11074468135E+02  0.51100000000E-03 0.  1.
         12    1    3    3    0    0  0.12596560936E+02 -0.37781701555E+02  0.80198027319E+01  0.40625700679E+02  0.00000000000E+00 0. -1.
</event>
<event>
 7    1  0.2284751E-015  0.9000755E+02  0.7816164E-02  0.1186339E+00
        -11   -1    0    0    0    0  0.00000000000E+00  0.00000000000E+00  0.45593999997E+02  0.45594000000E+02  0.51100000000E-03 0. -1.
         11   -1    0    0    0    0 -0.00000000000E+00 -0.00000000000E+00 -0.45593999997E+02  0.45594000000E+02  0.51100000000E-03 0.  1.
    9900012    2    1    2    0    0  0.66032674737E+00 -0.96226314092E+00 -0.17742474960E+00  0.90007550379E+02  0.89999809244E+02 0.  0.
         12    1    1    2    0    0 -0.66032674737E+00  0.96226314092E+00  0.17742474960E+00  0.11804496209E+01  0.00000000000E+00 0. -1.
         11    1    3    3    0    0 -0.34926609583E+02  0.76883400669E+01  0.11013382659E+02  0.37420224850E+02  0.51100000000E-03 0. -1.
        -11    1    3    3    0    0 -0.75099965446E+01 -0.81822422887E+00 -0.22369881934E+01  0.78786836100E+01  0.51100000000E-03 0.  1.
        -12    1    3    3    0    0  0.43096932875E+02 -0.78323789789E+01 -0.89538192148E+01  0.44708641919E+02  0.00000000000E+00 0.  1.
</event>
<event>
 7    1  0.2284751E-015  0.9000809E+02  0.7816164E-02  0.1186338E+00
        -11   -1    0    0    0    0  0.00000000000E+00  0.00000000000E+00  0.45593999997E+02  0.45594000000E+02  0.51100000000E-03 0. -1.
         11   -1    0    0    0    0 -0.00000000000E+00 -0.00000000000E+00 -0.45593999997E+02  0.45594000000E+02  0.51100000000E-03 0.  1.
    9900012    2    1    2    0    0  0.73124445420E+00  0.64767729010E+00 -0.66180761915E+00  0.90008087440E+02  0.90000353394E+02 0.  0.
         12    1    1    2    0    0 -0.73124445420E+00 -0.64767729010E+00  0.66180761915E+00  0.11799125598E+01  0.00000000000E+00 0. -1.
         11    1    3    3    0    0 -0.90134582167E+01 -0.30544349632E+00  0.88327118543E+00  0.90617819992E+01  0.51100000000E-03 0. -1.
        -11    1    3    3    0    0 -0.16910586931E+02 -0.15667499859E+02 -0.30495017678E+02  0.38228060449E+02  0.51100000000E-03 0.  1.
         12    1    3    3    0    0  0.26655289602E+02  0.16620620645E+02  0.28949938874E+02  0.42718244992E+02  0.00000000000E+00 0. -1.
</event>
<event>
 7    1  0.2284751E-015  0.9000774E+02  0.7816164E-02  0.1186339E+00
        -11   -1    0    0    0    0  0.00000000000E+00  0.00000000000E+00  0.45593999997E+02  0.45594000000E+02  0.51100000000E-03 0.  1.
         11   -1    0    0    0    0 -0.00000000000E+00 -0.00000000000E+00 -0.45593999997E+02  0.45594000000E+02  0.51100000000E-03 0. -1.
    9900012    2    1    2    0    0  0.10230726853E+01 -0.30529006204E+00 -0.50311697933E+00  0.90007743063E+02  0.90000004472E+02 0.  0.
         12    1    1    2    0    0 -0.10230726853E+01  0.30529006204E+00  0.50311697933E+00  0.11802569366E+01  0.00000000000E+00 0. -1.
         11    1    3    3    0    0 -0.10454048653E+02  0.12837282407E+02  0.17010636030E+02  0.23736989936E+02  0.51100000000E-03 0. -1.
        -11    1    3    3    0    0 -0.15606569651E+02 -0.22315109859E+02  0.75371178831E+01  0.28254863131E+02  0.51100000000E-03 0.  1.
         12    1    3    3    0    0  0.27083690989E+02  0.91725373906E+01 -0.25050870892E+02  0.38015889997E+02  0.00000000000E+00 0. -1.
</event>
<event>
 7    1  0.2284751E-015  0.9000768E+02  0.7816164E-02  0.1186339E+00
        -11   -1    0    0    0    0  0.00000000000E+00  0.00000000000E+00  0.45593999997E+02  0.45594000000E+02  0.51100000000E-03 0.  1.
         11   -1    0    0    0    0 -0.00000000000E+00 -0.00000000000E+00 -0.45593999997E+02  0.45594000000E+02  0.51100000000E-03 0. -1.
    9900012    2    1    2    0    0 -0.43862168266E+00  0.68080767605E+00 -0.85864838074E+00  0.90007675844E+02  0.89999936365E+02 0.  0.
         12    1    1    2    0    0  0.43862168266E+00 -0.68080767605E+00  0.85864838074E+00  0.11803241563E+01  0.00000000000E+00 0. -1.
         11    1    3    3    0    0  0.44858308755E+01 -0.86533859155E+01  0.45408876754E-01  0.97470933449E+01  0.51100000000E-03 0. -1.
        -11    1    3    3    0    0  0.27028213711E+02  0.27351097201E+02 -0.14562915518E+02  0.41117944540E+02  0.51100000000E-03 0.  1.
         12    1    3    3    0    0 -0.31952666270E+02 -0.18016903610E+02  0.13658858260E+02  0.39142637959E+02  0.00000000000E+00 0. -1.
</event>
<event>
 7    1  0.2284751E-015  0.9000767E+02  0.7816164E-02  0.1186339E+00
        -11   -1    0    0    0    0  0.00000000000E+00  0.00000000000E+00  0.45593999997E+02  0.45594000000E+02  0.51100000000E-03 0.  1.
         11   -1    0    0    0    0 -0.00000000000E+00 -0.00000000000E+00 -0.45593999997E+02  0.45594000000E+02  0.51100000000E-03 0. -1.
    9900012    2    1    2    0    0 -0.62796706896E+00 -0.17073897267E+00  0.98472503481E+00  0.90007670457E+02  0.89999930907E+02 0.  0.
         12    1    1    2    0    0  0.62796706896E+00  0.17073897267E+00 -0.98472503481E+00  0.11803295432E+01  0.00000000000E+00 0. -1.
         11    1    3    3    0    0 -0.26350553587E+02  0.16373678447E+02 -0.25932261507E+02  0.40434282575E+02  0.51100000000E-03 0. -1.
        -11    1    3    3    0    0  0.96092822572E+01  0.26442531439E+01 -0.31330650853E+01  0.10447319143E+02  0.51100000000E-03 0.  1.
        -12    1    3    3    0    0  0.16113304260E+02 -0.19188670563E+02  0.30050051627E+02  0.39126068739E+02  0.00000000000E+00 0.  1.
</event>
<event>
 7    1  0.2284751E-015  0.9000902E+02  0.7816164E-02  0.1186336E+00
        -11   -1    0    0    0    0  0.00000000000E+00  0.00000000000E+00  0.45593999997E+02  0.45594000000E+02  0.51100000000E-03 0.  1.
         11   -1    0    0    0    0 -0.00000000000E+00 -0.00000000000E+00 -0.45593999997E+02  0.45594000000E+02  0.51100000000E-03 0. -1.
    9900012    2    1    2    0    0  0.25725507814E+00  0.56145578456E+00  0.10042773366E+01  0.90009023434E+02  0.90001301734E+02 0.  0.
         12    1    1    2    0    0 -0.25725507814E+00 -0.56145578456E+00 -0.10042773366E+01  0.11789765655E+01  0.00000000000E+00 0. -1.
         11    1    3    3    0    0 -0.20846259824E+00 -0.95435703149E+01 -0.34681832751E+01  0.10156352027E+02  0.51100000000E-03 0. -1.
        -11    1    3    3    0    0 -0.27381639023E+02 -0.23210756589E+02  0.60538153471E+01  0.36402500705E+02  0.51100000000E-03 0.  1.
         12    1    3    3    0    0  0.27847356699E+02  0.33315782689E+02 -0.15813547355E+01  0.43450170703E+02  0.00000000000E+00 0. -1.
</event>
<event>
 7    1  0.2284751E-015  0.9000776E+02  0.7816164E-02  0.1186339E+00
        -11   -1    0    0    0    0  0.00000000000E+00  0.00000000000E+00  0.45593999997E+02  0.45594000000E+02  0.51100000000E-03 0.  1.
         11   -1    0    0    0    0 -0.00000000000E+00 -0.00000000000E+00 -0.45593999997E+02  0.45594000000E+02  0.51100000000E-03 0. -1.
    9900012    2    1    2    0    0  0.32369155816E+00  0.24039744413E+00  0.11092301495E+01  0.90007763295E+02  0.90000024970E+02 0.  0.
         12    1    1    2    0    0 -0.32369155816E+00 -0.24039744413E+00 -0.11092301495E+01  0.11802367053E+01  0.00000000000E+00 0. -1.
         11    1    3    3    0    0  0.31798307810E+01 -0.73673033135E+01 -0.40184180562E+01  0.89741944398E+01  0.51100000000E-03 0. -1.
        -11    1    3    3    0    0  0.13618368436E+02 -0.13103334091E+02  0.35824611059E+02  0.40503827979E+02  0.51100000000E-03 0.  1.
         12    1    3    3    0    0 -0.16474507659E+02  0.20711034848E+02 -0.30696962853E+02  0.40529740876E+02  0.00000000000E+00 0. -1.
</event>
<event>
 7    1  0.2284751E-015  0.9000789E+02  0.7816164E-02  0.1186339E+00
        -11   -1    0    0    0    0  0.00000000000E+00  0.00000000000E+00  0.45593999997E+02  0.45594000000E+02  0.51100000000E-03 0. -1.
         11   -1    0    0    0    0 -0.00000000000E+00 -0.00000000000E+00 -0.45593999997E+02  0.45594000000E+02  0.51100000000E-03 0.  1.
    9900012    2    1    2    0    0  0.48929920516E+00  0.56611635757E+00 -0.91255564629E+00  0.90007890153E+02  0.90000153503E+02 0.  0.
         12    1    1    2    0    0 -0.48929920516E+00 -0.56611635757E+00  0.91255564629E+00  0.11801098466E+01  0.00000000000E+00 0. -1.
         11    1    3    3    0    0 -0.27276782551E+02 -0.13409321174E+02  0.16342073862E+02  0.34509363064E+02  0.51100000000E-03 0. -1.
        -11    1    3    3    0    0 -0.10777842015E+02  0.15756432200E+01  0.12821825587E+01  0.10967612431E+02  0.51100000000E-03 0.  1.
        -12    1    3    3    0    0  0.38543923772E+02  0.12399794311E+02 -0.18536812067E+02  0.44530914658E+02  0.00000000000E+00 0.  1.
</event>
<event>
 7    1  0.2284751E-015  0.9000784E+02  0.7816164E-02  0.1186339E+00
        -11   -1    0    0    0    0  0.00000000000E+00  0.00000000000E+00  0.45593999997E+02  0.45594000000E+02  0.51100000000E-03 0.  1.
         11   -1    0    0    0    0 -0.00000000000E+00 -0.00000000000E+00 -0.45593999997E+02  0.45594000000E+02  0.51100000000E-03 0. -1.
    9900012    2    1    2    0    0  0.26436552721E+00 -0.89522986329E+00  0.72212224991E+00  0.90007836374E+02  0.90000099014E+02 0.  0.
         12    1    1    2    0    0 -0.26436552721E+00  0.89522986329E+00 -0.72212224991E+00  0.11801636259E+01  0.00000000000E+00 0. -1.
         11    1    3    3    0    0 -0.23712610965E+02 -0.20663061200E+02  0.27487745129E+02  0.41771116210E+02  0.51100000000E-03 0. -1.
        -11    1    3    3    0    0  0.37434552435E+01 -0.59130276886E+01 -0.76338124548E+01  0.10356275704E+02  0.51100000000E-03 0.  1.
        -12    1    3    3    0    0  0.20233521249E+02  0.25680859025E+02 -0.19131810424E+02  0.37880444460E+02  0.00000000000E+00 0.  1.
</event>
<event>
 7    1  0.2284751E-015  0.9000773E+02  0.7816164E-02  0.1186339E+00
        -11   -1    0    0    0    0  0.00000000000E+00  0.00000000000E+00  0.45593999997E+02  0.45594000000E+02  0.51100000000E-03 0.  1.
         11   -1    0    0    0    0 -0.00000000000E+00 -0.00000000000E+00 -0.45593999997E+02  0.45594000000E+02  0.51100000000E-03 0. -1.
    9900012    2    1    2    0    0  0.85539341351E-01 -0.54117717859E+00  0.10453961201E+01  0.90007727673E+02  0.89999988878E+02 0.  0.
         12    1    1    2    0    0 -0.85539341351E-01  0.54117717859E+00 -0.10453961201E+01  0.11802723268E+01  0.00000000000E+00 0. -1.
         11    1    3    3    0    0 -0.11046986168E+01  0.79747652027E+01 -0.32674843146E+01  0.86887106685E+01  0.51100000000E-03 0. -1.
        -11    1    3    3    0    0 -0.19619318363E+02  0.21564960111E+02  0.25771434752E+02  0.38911849186E+02  0.51100000000E-03 0.  1.
         12    1    3    3    0    0  0.20809556321E+02 -0.30080902492E+02 -0.21458554317E+02  0.42407167819E+02  0.00000000000E+00 0. -1.
</event>
<event>
 7    1  0.2284751E-015  0.9000777E+02  0.7816164E-02  0.1186339E+00
        -11   -1    0    0    0    0  0.00000000000E+00  0.00000000000E+00  0.45593999997E+02  0.45594000000E+02  0.51100000000E-03 0. -1.
         11   -1    0    0    0    0 -0.00000000000E+00 -0.00000000000E+00 -0.45593999997E+02  0.45594000000E+02  0.51100000000E-03 0.  1.
    9900012    2    1    2    0    0 -0.46960331368E+00 -0.11070882170E+00 -0.10771108009E+01  0.90007766382E+02  0.90000028098E+02 0.  0.
         12    1    1    2    0    0  0.46960331368E+00  0.11070882170E+00  0.10771108009E+01  0.11802336179E+01  0.00000000000E+00 0. -1.
         11    1    3    3    0    0  0.83354724054E+01  0.20399139657E+01  0.91684172480E+00  0.86302924758E+01  0.51100000000E-03 0. -1.
        -11    1    3    3    0    0  0.15963468627E+02  0.29664414619E+02 -0.17763688183E+02  0.38083571831E+02  0.51100000000E-03 0.  1.
         12    1    3    3    0    0 -0.24768544346E+02 -0.31815037407E+02  0.15769735657E+02  0.43293902075E+02  0.00000000000E+00 0. -1.
</event>
<event>
 7    1  0.2284751E-015  0.9000849E+02  0.7816164E-02  0.1186338E+00
        -11   -1    0    0    0    0  0.00000000000E+00  0.00000000000E+00  0.45593999997E+02  0.45594000000E+02  0.51100000000E-03 0. -1.
         11   -1    0    0    0    0 -0.00000000000E+00 -0.00000000000E+00 -0.45593999997E+02  0.45594000000E+02  0.51100000000E-03 0.  1.
    9900012    2    1    2    0    0 -0.29868857944E+00  0.94610936255E+00 -0.63788729249E+00  0.90008492479E+02  0.90000763777E+02 0.  0.
         12    1    1    2    0    0  0.29868857944E+00 -0.94610936255E+00  0.63788729249E+00  0.11795075207E+01  0.00000000000E+00 0. -1.
         11    1    3    3    0    0 -0.27295147863E+01  0.41794488407E+01  0.55973353827E+01  0.74998804809E+01  0.51100000000E-03 0. -1.
        -11    1    3    3    0    0 -0.36912307493E+02  0.13673292049E+02 -0.10877534804E+01  0.39378427696E+02  0.51100000000E-03 0.  1.
         12    1    3    3    0    0  0.39343133700E+02 -0.16906631527E+02 -0.51474691947E+01  0.43130184303E+02  0.00000000000E+00 0. -1.
</event>
<event>
 7    1  0.2284751E-015  0.9000773E+02  0.7816164E-02  0.1186339E+00
        -11   -1    0    0    0    0  0.00000000000E+00  0.00000000000E+00  0.45593999997E+02  0.45594000000E+02  0.51100000000E-03 0.  1.
         11   -1    0    0    0    0 -0.00000000000E+00 -0.00000000000E+00 -0.45593999997E+02  0.45594000000E+02  0.51100000000E-03 0. -1.
    9900012    2    1    2    0    0 -0.23947916573E-01 -0.11148454081E+01  0.38675104297E+00  0.90007733015E+02  0.89999994291E+02 0.  0.
         12    1    1    2    0    0  0.23947916573E-01  0.11148454081E+01 -0.38675104297E+00  0.11802669850E+01  0.00000000000E+00 0. -1.
         11    1    3    3    0    0 -0.70498874409E+01  0.33143699869E+01  0.68196552950E+01  0.10353437108E+02  0.51100000000E-03 0. -1.
        -11    1    3    3    0    0 -0.12998164307E+02 -0.38070312536E+02 -0.24498490873E+01  0.40302639277E+02  0.51100000000E-03 0.  1.
         12    1    3    3    0    0  0.20024103831E+02  0.33641097141E+02 -0.39830551647E+01  0.39351656630E+02  0.00000000000E+00 0. -1.
</event>
<event>
 7    1  0.2284751E-015  0.9000773E+02  0.7816164E-02  0.1186339E+00
        -11   -1    0    0    0    0  0.00000000000E+00  0.00000000000E+00  0.45593999997E+02  0.45594000000E+02  0.51100000000E-03 0. -1.
         11   -1    0    0    0    0 -0.00000000000E+00 -0.00000000000E+00 -0.45593999997E+02  0.45594000000E+02  0.51100000000E-03 0.  1.
    9900012    2    1    2    0    0  0.86238006077E+00  0.59726978531E+00 -0.54093898047E+00  0.90007726495E+02  0.89999987685E+02 0.  0.
         12    1    1    2    0    0 -0.86238006077E+00 -0.59726978531E+00  0.54093898047E+00  0.11802735048E+01  0.00000000000E+00 0. -1.
         11    1    3    3    0    0 -0.83638142277E+01 -0.11729746880E+01  0.49061682080E+01  0.97672792937E+01  0.51100000000E-03 0. -1.
        -11    1    3    3    0    0  0.12294868947E+01 -0.36165134779E+02  0.11442633421E+02  0.37952107603E+02  0.51100000000E-03 0.  1.
         12    1    3    3    0    0  0.79967073938E+01  0.37935379252E+02 -0.16889740609E+02  0.42288339599E+02  0.00000000000E+00 0. -1.
</event>
<event>
 7    1  0.2284751E-015  0.9000753E+02  0.7816164E-02  0.1186339E+00
        -11   -1    0    0    0    0  0.00000000000E+00  0.00000000000E+00  0.45593999997E+02  0.45594000000E+02  0.51100000000E-03 0.  1.
         11   -1    0    0    0    0 -0.00000000000E+00 -0.00000000000E+00 -0.45593999997E+02  0.45594000000E+02  0.51100000000E-03 0. -1.
    9900012    2    1    2    0    0  0.75684522378E+00  0.85237578083E+00  0.30684242609E+00  0.90007529145E+02  0.89999787730E+02 0.  0.
         12    1    1    2    0    0 -0.75684522378E+00 -0.85237578083E+00 -0.30684242609E+00  0.11804708548E+01  0.00000000000E+00 0. -1.
         11    1    3    3    0    0 -0.27531455072E+02 -0.72122568164E+01  0.28216243963E+02  0.40076852302E+02  0.51100000000E-03 0. -1.
        -11    1    3    3    0    0 -0.46161518077E+01  0.70459691800E+01 -0.46403225733E+01  0.96170230863E+01  0.51100000000E-03 0.  1.
        -12    1    3    3    0    0  0.32904452104E+02  0.10186634172E+01 -0.23269078964E+02  0.40313653757E+02  0.00000000000E+00 0.  1.
</event>
<event>
 7    1  0.2284751E-015  0.9000764E+02  0.7816164E-02  0.1186339E+00
        -11   -1    0    0    0    0  0.00000000000E+00  0.00000000000E+00  0.45593999997E+02  0.45594000000E+02  0.51100000000E-03 0.  1.
         11   -1    0    0    0    0 -0.00000000000E+00 -0.00000000000E+00 -0.45593999997E+02  0.45594000000E+02  0.51100000000E-03 0. -1.
    9900012    2    1    2    0    0 -0.93816655607E+00 -0.70588261085E+00  0.12176024269E+00  0.90007638910E+02  0.89999898943E+02 0.  0.
         12    1    1    2    0    0  0.93816655607E+00  0.70588261085E+00 -0.12176024269E+00  0.11803610905E+01  0.00000000000E+00 0. -1.
         11    1    3    3    0    0 -0.50417506684E+01 -0.12082616723E+02 -0.36739752560E+02  0.39002798555E+02  0.51100000000E-03 0. -1.
        -11    1    3    3    0    0  0.11292957472E+01 -0.63872131040E+01 -0.30872545990E+01  0.71835187297E+01  0.51100000000E-03 0.  1.
        -12    1    3    3    0    0  0.29742883651E+01  0.17763947216E+02  0.39948767402E+02  0.43821321625E+02  0.00000000000E+00 0.  1.
</event>
<event>
 7    1  0.2284751E-015  0.9000772E+02  0.7816164E-02  0.1186339E+00
        -11   -1    0    0    0    0  0.00000000000E+00  0.00000000000E+00  0.45593999997E+02  0.45594000000E+02  0.51100000000E-03 0. -1.
         11   -1    0    0    0    0 -0.00000000000E+00 -0.00000000000E+00 -0.45593999997E+02  0.45594000000E+02  0.51100000000E-03 0.  1.
    9900012    2    1    2    0    0  0.87411080211E+00  0.79291535739E+00  0.16945066242E-01  0.90007715461E+02  0.89999976505E+02 0.  0.
         12    1    1    2    0    0 -0.87411080211E+00 -0.79291535739E+00 -0.16945066242E-01  0.11802845393E+01  0.00000000000E+00 0. -1.
         11    1    3    3    0    0  0.33727569692E+02  0.16301574058E+02  0.29133274770E+01  0.37573631064E+02  0.51100000000E-03 0. -1.
        -11    1    3    3    0    0  0.71978244489E+01  0.49267634575E-01 -0.59781869931E+01  0.93568062972E+01  0.51100000000E-03 0.  1.
        -12    1    3    3    0    0 -0.40051283339E+02 -0.15557926335E+02  0.30818045824E+01  0.43077278099E+02  0.00000000000E+00 0.  1.
</event>
<event>
 7    1  0.2284751E-015  0.9000773E+02  0.7816164E-02  0.1186339E+00
        -11   -1    0    0    0    0  0.00000000000E+00  0.00000000000E+00  0.45593999997E+02  0.45594000000E+02  0.51100000000E-03 0.  1.
         11   -1    0    0    0    0 -0.00000000000E+00 -0.00000000000E+00 -0.45593999997E+02  0.45594000000E+02  0.51100000000E-03 0. -1.
    9900012    2    1    2    0    0  0.61010732406E+00 -0.18389377773E+00  0.99346914860E+00  0.90007733582E+02  0.89999994865E+02 0.  0.
         12    1    1    2    0    0 -0.61010732406E+00  0.18389377773E+00 -0.99346914860E+00  0.11802664181E+01  0.00000000000E+00 0. -1.
         11    1    3    3    0    0 -0.67232421373E+01  0.62151542400E+01 -0.25297658788E+01  0.94989390316E+01  0.51100000000E-03 0. -1.
        -11    1    3    3    0    0 -0.15787529856E+02 -0.87477484745E+01  0.36176926805E+02  0.40429435262E+02  0.51100000000E-03 0.  1.
         12    1    3    3    0    0  0.23120879317E+02  0.23487004568E+01 -0.32653691778E+02  0.40079359288E+02  0.00000000000E+00 0. -1.
</event>
<event>
 7    1  0.2284751E-015  0.9000776E+02  0.7816164E-02  0.1186339E+00
        -11   -1    0    0    0    0  0.00000000000E+00  0.00000000000E+00  0.45593999997E+02  0.45594000000E+02  0.51100000000E-03 0.  1.
         11   -1    0    0    0    0 -0.00000000000E+00 -0.00000000000E+00 -0.45593999997E+02  0.45594000000E+02  0.51100000000E-03 0. -1.
    9900012    2    1    2    0    0 -0.11500071121E+01  0.66532768044E-01  0.25694856757E+00  0.90007760391E+02  0.90000022029E+02 0.  0.
         12    1    1    2    0    0  0.11500071121E+01 -0.66532768044E-01 -0.25694856757E+00  0.11802396085E+01  0.00000000000E+00 0. -1.
         11    1    3    3    0    0 -0.30847691356E+02  0.31118567765E+02 -0.13190189174E+00  0.43817379202E+02  0.51100000000E-03 0. -1.
        -11    1    3    3    0    0  0.53730211262E+01 -0.27169441434E+01 -0.57731800453E+01  0.83415076334E+01  0.51100000000E-03 0.  1.
        -12    1    3    3    0    0  0.24324663118E+02 -0.28335090854E+02  0.61620305046E+01  0.37848873556E+02  0.00000000000E+00 0.  1.
</event>
<event>
 7    1  0.2284751E-015  0.9000796E+02  0.7816164E-02  0.1186339E+00
        -11   -1    0    0    0    0  0.00000000000E+00  0.00000000000E+00  0.45593999997E+02  0.45594000000E+02  0.51100000000E-03 0.  1.
         11   -1    0    0    0    0 -0.00000000000E+00 -0.00000000000E+00 -0.45593999997E+02  0.45594000000E+02  0.51100000000E-03 0. -1.
    9900012    2    1    2    0    0  0.70193488386E+00 -0.84887137049E+00  0.42331002973E+00  0.90007963320E+02  0.90000227636E+02 0.  0.
         12    1    1    2    0    0 -0.70193488386E+00  0.84887137049E+00 -0.42331002973E+00  0.11800366800E+01  0.00000000000E+00 0. -1.
         11    1    3    3    0    0 -0.29424216463E+02  0.23381566500E+02 -0.13735239187E+02  0.40014234495E+02  0.51100000000E-03 0. -1.
        -11    1    3    3    0    0  0.17053780858E+02  0.17907875368E+01  0.11722964592E+02  0.20771765949E+02  0.51100000000E-03 0.  1.
        -12    1    3    3    0    0  0.13072370489E+02 -0.26021225407E+02  0.24355846251E+01  0.29221962876E+02  0.00000000000E+00 0.  1.
</event>
<event>
 7    1  0.2284751E-015  0.9000774E+02  0.7816164E-02  0.1186339E+00
        -11   -1    0    0    0    0  0.00000000000E+00  0.00000000000E+00  0.45593999997E+02  0.45594000000E+02  0.51100000000E-03 0. -1.
         11   -1    0    0    0    0 -0.00000000000E+00 -0.00000000000E+00 -0.45593999997E+02  0.45594000000E+02  0.51100000000E-03 0.  1.
    9900012    2    1    2    0    0 -0.10152517636E+01  0.58046840934E+00 -0.15920290469E+00  0.90007735080E+02  0.89999996383E+02 0.  0.
         12    1    1    2    0    0  0.10152517636E+01 -0.58046840934E+00  0.15920290469E+00  0.11802649205E+01  0.00000000000E+00 0. -1.
         11    1    3    3    0    0 -0.87320539942E+01  0.29648249327E+01  0.34138506196E+01  0.98332766743E+01  0.51100000000E-03 0. -1.
        -11    1    3    3    0    0 -0.18796487967E+02 -0.16383917171E+02 -0.30832032500E+02  0.39652930914E+02  0.51100000000E-03 0.  1.
         12    1    3    3    0    0  0.26513290197E+02  0.13999560648E+02  0.27258978976E+02  0.40521527491E+02  0.00000000000E+00 0. -1.
</event>
<event>
 7    1  0.2284751E-015  0.9000778E+02  0.7816164E-02  0.1186339E+00
        -11   -1    0    0    0    0  0.00000000000E+00  0.00000000000E+00  0.45593999997E+02  0.45594000000E+02  0.51100000000E-03 0. -1.
         11   -1    0    0    0    0 -0.00000000000E+00 -0.00000000000E+00 -0.45593999997E+02  0.45594000000E+02  0.51100000000E-03 0.  1.
    9900012    2    1    2    0    0  0.59496155297E+00  0.29076073308E+00 -0.97693443136E+00  0.90007778861E+02  0.90000040742E+02 0.  0.
         12    1    1    2    0    0 -0.59496155297E+00 -0.29076073308E+00  0.97693443136E+00  0.11802211389E+01  0.00000000000E+00 0. -1.
         11    1    3    3    0    0 -0.29839716738E+02 -0.26597701385E+01  0.15337198292E+02  0.33655797776E+02  0.51100000000E-03 0. -1.
        -11    1    3    3    0    0 -0.10183888640E+02 -0.62838437324E+01 -0.11462013663E+01  0.12021316805E+02  0.51100000000E-03 0.  1.
        -12    1    3    3    0    0  0.40618566932E+02  0.92343746039E+01 -0.15167931357E+02  0.44330664281E+02  0.00000000000E+00 0.  1.
</event>
<event>
 7    1  0.2284751E-015  0.9000767E+02  0.7816164E-02  0.1186339E+00
        -11   -1    0    0    0    0  0.00000000000E+00  0.00000000000E+00  0.45593999997E+02  0.45594000000E+02  0.51100000000E-03 0. -1.
         11   -1    0    0    0    0 -0.00000000000E+00 -0.00000000000E+00 -0.45593999997E+02  0.45594000000E+02  0.51100000000E-03 0.  1.
    9900012    2    1    2    0    0  0.24002654913E+00  0.10500066610E+01 -0.48274505275E+00  0.90007673978E+02  0.89999934474E+02 0.  0.
         12    1    1    2    0    0 -0.24002654913E+00 -0.10500066610E+01  0.48274505275E+00  0.11803260221E+01  0.00000000000E+00 0. -1.
         11    1    3    3    0    0  0.10913120551E+01  0.73885521773E+01  0.81435267242E+01  0.11049827738E+02  0.51100000000E-03 0. -1.
        -11    1    3    3    0    0 -0.32397159236E+02  0.12492384471E+02  0.12106866672E+02  0.36772432843E+02  0.51100000000E-03 0.  1.
         12    1    3    3    0    0  0.31545873730E+02 -0.18830929987E+02 -0.20733138448E+02  0.42185413397E+02  0.00000000000E+00 0. -1.
</event>
<event>
 7    1  0.2284751E-015  0.9000790E+02  0.7816164E-02  0.1186339E+00
        -11   -1    0    0    0    0  0.00000000000E+00  0.00000000000E+00  0.45593999997E+02  0.45594000000E+02  0.51100000000E-03 0. -1.
         11   -1    0    0    0    0 -0.00000000000E+00 -0.00000000000E+00 -0.45593999997E+02  0.45594000000E+02  0.51100000000E-03 0.  1.
    9900012    2    1    2    0    0 -0.58213792904E+00 -0.34293334796E+00 -0.96754488357E+00  0.90007902143E+02  0.90000165651E+02 0.  0.
         12    1    1    2    0    0  0.58213792904E+00  0.34293334796E+00  0.96754488357E+00  0.11800978567E+01  0.00000000000E+00 0. -1.
         11    1    3    3    0    0 -0.46994038611E+01  0.31129031809E+02 -0.15658826165E+01  0.31520675860E+02  0.51100000000E-03 0. -1.
        -11    1    3    3    0    0 -0.21068128385E+02 -0.88542939304E+01 -0.67884383707E+01  0.23840038809E+02  0.51100000000E-03 0.  1.
        -12    1    3    3    0    0  0.25185394317E+02 -0.22617671227E+02  0.73867761036E+01  0.34647187474E+02  0.00000000000E+00 0.  1.
</event>
<event>
 7    1  0.2284751E-015  0.9000776E+02  0.7816164E-02  0.1186339E+00
        -11   -1    0    0    0    0  0.00000000000E+00  0.00000000000E+00  0.45593999997E+02  0.45594000000E+02  0.51100000000E-03 0.  1.
         11   -1    0    0    0    0 -0.00000000000E+00 -0.00000000000E+00 -0.45593999997E+02  0.45594000000E+02  0.51100000000E-03 0. -1.
    9900012    2    1    2    0    0  0.18359929038E+00 -0.57746647927E+00  0.10128138608E+01  0.90007759283E+02  0.90000020905E+02 0.  0.
         12    1    1    2    0    0 -0.18359929038E+00  0.57746647927E+00 -0.10128138608E+01  0.11802407173E+01  0.00000000000E+00 0. -1.
         11    1    3    3    0    0  0.34705593785E+01 -0.96411763438E+01 -0.39707963058E+00  0.10254498339E+02  0.51100000000E-03 0. -1.
        -11    1    3    3    0    0 -0.34019843961E+02 -0.17665016760E+02  0.58705213657E+01  0.38779706312E+02  0.51100000000E-03 0.  1.
         12    1    3    3    0    0  0.30732883873E+02  0.26728726624E+02 -0.44606278743E+01  0.40973554632E+02  0.00000000000E+00 0. -1.
</event>
<event>
 7    1  0.2284751E-015  0.9000766E+02  0.7816164E-02  0.1186339E+00
        -11   -1    0    0    0    0  0.00000000000E+00  0.00000000000E+00  0.45593999997E+02  0.45594000000E+02  0.51100000000E-03 0. -1.
         11   -1    0    0    0    0 -0.00000000000E+00 -0.00000000000E+00 -0.45593999997E+02  0.45594000000E+02  0.51100000000E-03 0.  1.
    9900012    2    1    2    0    0  0.20205904271E+00  0.11589947840E+01  0.95369950395E-01  0.90007664373E+02  0.89999924742E+02 0.  0.
         12    1    1    2    0    0 -0.20205904271E+00 -0.11589947840E+01 -0.95369950395E-01  0.11803356275E+01  0.00000000000E+00 0. -1.
         11    1    3    3    0    0  0.13916570253E+02 -0.36025286304E+02 -0.25551300439E+01  0.38704274579E+02  0.51100000000E-03 0. -1.
        -11    1    3    3    0    0 -0.56341640973E+01 -0.46683199267E+01  0.45837120263E+01  0.86340854881E+01  0.51100000000E-03 0.  1.
        -12    1    3    3    0    0 -0.80803471133E+01  0.41852601014E+02 -0.19332120321E+01  0.42669304305E+02  0.00000000000E+00 0.  1.
</event>
<event>
 7    1  0.2284751E-015  0.9000764E+02  0.7816164E-02  0.1186339E+00
        -11   -1    0    0    0    0  0.00000000000E+00  0.00000000000E+00  0.45593999997E+02  0.45594000000E+02  0.51100000000E-03 0. -1.
         11   -1    0    0    0    0 -0.00000000000E+00 -0.00000000000E+00 -0.45593999997E+02  0.45594000000E+02  0.51100000000E-03 0.  1.
    9900012    2    1    2    0    0  0.22953369161E+00  0.97920234852E+00 -0.61784409906E+00  0.90007638070E+02  0.89999898093E+02 0.  0.
         12    1    1    2    0    0 -0.22953369161E+00 -0.97920234852E+00  0.61784409906E+00  0.11803619299E+01  0.00000000000E+00 0. -1.
         11    1    3    3    0    0 -0.32208676043E+01 -0.15369644986E+02 -0.64181843535E+01  0.16964464795E+02  0.51100000000E-03 0. -1.
        -11    1    3    3    0    0  0.35917621061E+01 -0.85802101401E+00 -0.31631122931E+02  0.31845955681E+02  0.51100000000E-03 0.  1.
         12    1    3    3    0    0 -0.14136081026E+00  0.17206868349E+02  0.37431463186E+02  0.41197217594E+02  0.00000000000E+00 0. -1.
</event>
<event>
 7    1  0.2284751E-015  0.9000775E+02  0.7816164E-02  0.1186339E+00
        -11   -1    0    0    0    0  0.00000000000E+00  0.00000000000E+00  0.45593999997E+02  0.45594000000E+02  0.51100000000E-03 0. -1.
         11   -1    0    0    0    0 -0.00000000000E+00 -0.00000000000E+00 -0.45593999997E+02  0.45594000000E+02  0.51100000000E-03 0.  1.
    9900012    2    1    2    0    0 -0.45158143384E+00  0.59725432708E+00 -0.91232779360E+00  0.90007754040E+02  0.90000015594E+02 0.  0.
         12    1    1    2    0    0  0.45158143384E+00 -0.59725432708E+00  0.91232779360E+00  0.11802459598E+01  0.00000000000E+00 0. -1.
         11    1    3    3    0    0 -0.78696065751E+01  0.51366324522E+01  0.69423355579E+01  0.11683823169E+02  0.51100000000E-03 0. -1.
        -11    1    3    3    0    0  0.64325688760E+01  0.35754485766E+02 -0.10829738076E+02  0.37908368757E+02  0.51100000000E-03 0.  1.
         12    1    3    3    0    0  0.98545626525E+00 -0.40293863892E+02  0.29750747240E+01  0.40415562114E+02  0.00000000000E+00 0. -1.
</event>
<event>
 7    1  0.2284751E-015  0.9000751E+02  0.7816164E-02  0.1186339E+00
        -11   -1    0    0    0    0  0.00000000000E+00  0.00000000000E+00  0.45593999997E+02  0.45594000000E+02  0.51100000000E-03 0.  1.
         11   -1    0    0    0    0 -0.00000000000E+00 -0.00000000000E+00 -0.45593999997E+02  0.45594000000E+02  0.51100000000E-03 0. -1.
    9900012    2    1    2    0    0 -0.86092299580E-01  0.11149842161E+01  0.37808173825E+00  0.90007513877E+02  0.89999772260E+02 0.  0.
         12    1    1    2    0    0  0.86092299580E-01 -0.11149842161E+01 -0.37808173825E+00  0.11804861232E+01  0.00000000000E+00 0. -1.
         11    1    3    3    0    0  0.55900200097E+01 -0.65137094956E+01  0.35595311543E+01  0.92923085077E+01  0.51100000000E-03 0. -1.
        -11    1    3    3    0    0  0.10021266956E+02  0.30076039533E+02  0.25773711887E+02  0.40856800781E+02  0.51100000000E-03 0.  1.
         12    1    3    3    0    0 -0.15697379265E+02 -0.22447345821E+02 -0.28955161303E+02  0.39858404588E+02  0.00000000000E+00 0. -1.
</event>
<event>
 7    1  0.2284751E-015  0.9000779E+02  0.7816164E-02  0.1186339E+00
        -11   -1    0    0    0    0  0.00000000000E+00  0.00000000000E+00  0.45593999997E+02  0.45594000000E+02  0.51100000000E-03 0.  1.
         11   -1    0    0    0    0 -0.00000000000E+00 -0.00000000000E+00 -0.45593999997E+02  0.45594000000E+02  0.51100000000E-03 0. -1.
    9900012    2    1    2    0    0  0.54992771120E+00  0.92575493521E+00  0.48316837168E+00  0.90007790543E+02  0.90000052578E+02 0.  0.
         12    1    1    2    0    0 -0.54992771120E+00 -0.92575493521E+00 -0.48316837168E+00  0.11802094573E+01  0.00000000000E+00 0. -1.
         11    1    3    3    0    0 -0.31288510260E+02 -0.92470997068E+01  0.95469097136E+01  0.33994458558E+02  0.51100000000E-03 0. -1.
        -11    1    3    3    0    0 -0.86544415818E+01  0.14029427219E+01  0.73580120391E+01  0.11445870382E+02  0.51100000000E-03 0.  1.
        -12    1    3    3    0    0  0.40492879553E+02  0.87699119201E+01 -0.16421753381E+02  0.44567461603E+02  0.00000000000E+00 0.  1.
</event>
<event>
 7    1  0.2284751E-015  0.9000844E+02  0.7816164E-02  0.1186338E+00
        -11   -1    0    0    0    0  0.00000000000E+00  0.00000000000E+00  0.45593999997E+02  0.45594000000E+02  0.51100000000E-03 0.  1.
         11   -1    0    0    0    0 -0.00000000000E+00 -0.00000000000E+00 -0.45593999997E+02  0.45594000000E+02  0.51100000000E-03 0. -1.
    9900012    2    1    2    0    0 -0.57896900213E+00  0.53837032807E+00  0.87539752246E+00  0.90008437141E+02  0.90000707709E+02 0.  0.
         12    1    1    2    0    0  0.57896900213E+00 -0.53837032807E+00 -0.87539752246E+00  0.11795628588E+01  0.00000000000E+00 0. -1.
         11    1    3    3    0    0 -0.14920380901E+01 -0.13978812523E+01 -0.86601585359E+01  0.88982355434E+01  0.51100000000E-03 0. -1.
        -11    1    3    3    0    0  0.38899068794E+02 -0.10756358033E+02  0.71626813759E+01  0.40989520563E+02  0.51100000000E-03 0.  1.
         12    1    3    3    0    0 -0.37985999706E+02  0.12692609613E+02  0.23728746824E+01  0.40120681035E+02  0.00000000000E+00 0. -1.
</event>
<event>
 7    1  0.2284751E-015  0.9000778E+02  0.7816164E-02  0.1186339E+00
        -11   -1    0    0    0    0  0.00000000000E+00  0.00000000000E+00  0.45593999997E+02  0.45594000000E+02  0.51100000000E-03 0. -1.
         11   -1    0    0    0    0 -0.00000000000E+00 -0.00000000000E+00 -0.45593999997E+02  0.45594000000E+02  0.51100000000E-03 0.  1.
    9900012    2    1    2    0    0  0.79906999227E+00 -0.60475295106E+00  0.62343593443E+00  0.90007783347E+02  0.90000045287E+02 0.  0.
         12    1    1    2    0    0 -0.79906999227E+00  0.60475295106E+00 -0.62343593443E+00  0.11802166533E+01  0.00000000000E+00 0. -1.
         11    1    3    3    0    0 -0.86986259860E+00  0.52427684979E+01 -0.84503065977E+01  0.99825329611E+01  0.51100000000E-03 0. -1.
        -11    1    3    3    0    0  0.28249424367E+02  0.23318833074E+02  0.15979377603E+02  0.39964214766E+02  0.51100000000E-03 0.  1.
         12    1    3    3    0    0 -0.26580491776E+02 -0.29166354523E+02 -0.69056350710E+01  0.40061035620E+02  0.00000000000E+00 0. -1.
</event>
<event>
 7    1  0.2284751E-015  0.9000778E+02  0.7816164E-02  0.1186339E+00
        -11   -1    0    0    0    0  0.00000000000E+00  0.00000000000E+00  0.45593999997E+02  0.45594000000E+02  0.51100000000E-03 0.  1.
         11   -1    0    0    0    0 -0.00000000000E+00 -0.00000000000E+00 -0.45593999997E+02  0.45594000000E+02  0.51100000000E-03 0. -1.
    9900012    2    1    2    0    0 -0.54517702895E+00 -0.37357397013E+00  0.97783004124E+00  0.90007776676E+02  0.90000038528E+02 0.  0.
         12    1    1    2    0    0  0.54517702895E+00  0.37357397013E+00 -0.97783004124E+00  0.11802233236E+01  0.00000000000E+00 0. -1.
         11    1    3    3    0    0  0.59270678069E+01  0.74357276170E+01  0.36882858195E+01  0.10199197543E+02  0.51100000000E-03 0. -1.
        -11    1    3    3    0    0 -0.41525157215E+02 -0.98917268200E+01 -0.10234523805E+02  0.43896815590E+02  0.51100000000E-03 0.  1.
         12    1    3    3    0    0  0.35052912379E+02  0.20824252328E+01  0.75240680268E+01  0.35911763543E+02  0.00000000000E+00 0. -1.
</event>
<event>
 7    1  0.2284751E-015  0.9000775E+02  0.7816164E-02  0.1186339E+00
        -11   -1    0    0    0    0  0.00000000000E+00  0.00000000000E+00  0.45593999997E+02  0.45594000000E+02  0.51100000000E-03 0. -1.
         11   -1    0    0    0    0 -0.00000000000E+00 -0.00000000000E+00 -0.45593999997E+02  0.45594000000E+02  0.51100000000E-03 0.  1.
    9900012    2    1    2    0    0 -0.89125477454E+00 -0.51517404825E+00 -0.57727061626E+00  0.90007753950E+02  0.90000015503E+02 0.  0.
         12    1    1    2    0    0  0.89125477454E+00  0.51517404825E+00  0.57727061626E+00  0.11802460496E+01  0.00000000000E+00 0. -1.
         11    1    3    3    0    0  0.11257909604E+02 -0.10495158564E+01  0.39985797002E+01  0.11992941760E+02  0.51100000000E-03 0. -1.
        -11    1    3    3    0    0  0.13338662477E+02  0.21487814946E+02  0.23625816064E+02  0.34609612722E+02  0.51100000000E-03 0.  1.
         12    1    3    3    0    0 -0.25487826855E+02 -0.20953473138E+02 -0.28201666380E+02  0.43405199469E+02  0.00000000000E+00 0. -1.
</event>
<event>
 7    1  0.2284751E-015  0.9000780E+02  0.7816164E-02  0.1186339E+00
        -11   -1    0    0    0    0  0.00000000000E+00  0.00000000000E+00  0.45593999997E+02  0.45594000000E+02  0.51100000000E-03 0.  1.
         11   -1    0    0    0    0 -0.00000000000E+00 -0.00000000000E+00 -0.45593999997E+02  0.45594000000E+02  0.51100000000E-03 0. -1.
    9900012    2    1    2    0    0  0.13737801620E+00 -0.10177333608E+01  0.58156788365E+00  0.90007798697E+02  0.90000060839E+02 0.  0.
         12    1    1    2    0    0 -0.13737801620E+00  0.10177333608E+01 -0.58156788365E+00  0.11802013033E+01  0.00000000000E+00 0. -1.
         11    1    3    3    0    0 -0.27036292434E+02  0.75866423298E+01 -0.33029366486E+02  0.43352708117E+02  0.51100000000E-03 0. -1.
        -11    1    3    3    0    0  0.37472939482E+01  0.14526190924E+01 -0.52154297329E+00  0.40526931165E+01  0.51100000000E-03 0.  1.
        -12    1    3    3    0    0  0.23426376502E+02 -0.10056994783E+02  0.34132477342E+02  0.42602397463E+02  0.00000000000E+00 0.  1.
</event>
<event>
 7    1  0.2284751E-015  0.9000775E+02  0.7816164E-02  0.1186339E+00
        -11   -1    0    0    0    0  0.00000000000E+00  0.00000000000E+00  0.45593999997E+02  0.45594000000E+02  0.51100000000E-03 0.  1.
         11   -1    0    0    0    0 -0.00000000000E+00 -0.00000000000E+00 -0.45593999997E+02  0.45594000000E+02  0.51100000000E-03 0. -1.
    9900012    2    1    2    0    0  0.14267013338E-01  0.82131807946E+00  0.84748595229E+00  0.90007746055E+02  0.90000007503E+02 0.  0.
         12    1    1    2    0    0 -0.14267013338E-01 -0.82131807946E+00 -0.84748595229E+00  0.11802539450E+01  0.00000000000E+00 0. -1.
         11    1    3    3    0    0  0.14664773192E+02 -0.27108508258E+02 -0.21564447146E+02  0.37615850033E+02  0.51100000000E-03 0. -1.
        -11    1    3    3    0    0 -0.24083605749E+01 -0.71160644340E+01 -0.22282532945E+01  0.78360504524E+01  0.51100000000E-03 0.  1.
        -12    1    3    3    0    0 -0.12242145604E+02  0.35045890772E+02  0.24640186392E+02  0.44555845569E+02  0.00000000000E+00 0.  1.
</event>
<event>
 7    1  0.2284751E-015  0.9000774E+02  0.7816164E-02  0.1186339E+00
        -11   -1    0    0    0    0  0.00000000000E+00  0.00000000000E+00  0.45593999997E+02  0.45594000000E+02  0.51100000000E-03 0. -1.
         11   -1    0    0    0    0 -0.00000000000E+00 -0.00000000000E+00 -0.45593999997E+02  0.45594000000E+02  0.51100000000E-03 0.  1.
    9900012    2    1    2    0    0 -0.39898490856E+00 -0.11093138603E+01 -0.57024435368E-01  0.90007738171E+02  0.89999999515E+02 0.  0.
         12    1    1    2    0    0  0.39898490856E+00  0.11093138603E+01  0.57024435368E-01  0.11802618286E+01  0.00000000000E+00 0. -1.
         11    1    3    3    0    0 -0.34102648048E+02 -0.50794089723E+01  0.23829707665E+02  0.41912360553E+02  0.51100000000E-03 0. -1.
        -11    1    3    3    0    0 -0.12820787865E+01  0.46619081306E+01 -0.86918614148E+01  0.99461333466E+01  0.51100000000E-03 0.  1.
        -12    1    3    3    0    0  0.34985741926E+02 -0.69181301861E+00 -0.15194870686E+02  0.38149244272E+02  0.00000000000E+00 0.  1.
</event>
<event>
 7    1  0.2284751E-015  0.9000772E+02  0.7816164E-02  0.1186339E+00
        -11   -1    0    0    0    0  0.00000000000E+00  0.00000000000E+00  0.45593999997E+02  0.45594000000E+02  0.51100000000E-03 0. -1.
         11   -1    0    0    0    0 -0.00000000000E+00 -0.00000000000E+00 -0.45593999997E+02  0.45594000000E+02  0.51100000000E-03 0.  1.
    9900012    2    1    2    0    0 -0.62221184118E+00 -0.29504659860E+00 -0.95856635784E+00  0.90007724806E+02  0.89999985974E+02 0.  0.
         12    1    1    2    0    0  0.62221184118E+00  0.29504659860E+00  0.95856635784E+00  0.11802751938E+01  0.00000000000E+00 0. -1.
         11    1    3    3    0    0  0.21480932764E+02 -0.10191862571E+02  0.76251620122E+01  0.24968933318E+02  0.51100000000E-03 0. -1.
        -11    1    3    3    0    0 -0.73205352762E+01 -0.20176784335E+02  0.13080364730E+02  0.25135409377E+02  0.51100000000E-03 0.  1.
         12    1    3    3    0    0 -0.14782609329E+02  0.30073600308E+02 -0.21664093100E+02  0.39903382111E+02  0.00000000000E+00 0. -1.
</event>
<event>
 7    1  0.2284751E-015  0.9000769E+02  0.7816164E-02  0.1186339E+00
        -11   -1    0    0    0    0  0.00000000000E+00  0.00000000000E+00  0.45593999997E+02  0.45594000000E+02  0.51100000000E-03 0. -1.
         11   -1    0    0    0    0 -0.00000000000E+00 -0.00000000000E+00 -0.45593999997E+02  0.45594000000E+02  0.51100000000E-03 0.  1.
    9900012    2    1    2    0    0  0.77443378431E-01  0.10768130973E+01 -0.47707585989E+00  0.90007692710E+02  0.89999953454E+02 0.  0.
         12    1    1    2    0    0 -0.77443378431E-01 -0.10768130973E+01  0.47707585989E+00  0.11803072902E+01  0.00000000000E+00 0. -1.
         11    1    3    3    0    0  0.34944087806E+02 -0.26267126557E+02  0.45586252947E+01  0.43952613972E+02  0.51100000000E-03 0. -1.
        -11    1    3    3    0    0 -0.49003278069E+01  0.62439717357E+01  0.30865719962E+01  0.85162974702E+01  0.51100000000E-03 0.  1.
        -12    1    3    3    0    0 -0.29966316620E+02  0.21099967918E+02 -0.81222731508E+01  0.37538781268E+02  0.00000000000E+00 0.  1.
</event>
<event>
 7    1  0.2284751E-015  0.9000787E+02  0.7816164E-02  0.1186339E+00
        -11   -1    0    0    0    0  0.00000000000E+00  0.00000000000E+00  0.45593999997E+02  0.45594000000E+02  0.51100000000E-03 0. -1.
         11   -1    0    0    0    0 -0.00000000000E+00 -0.00000000000E+00 -0.45593999997E+02  0.45594000000E+02  0.51100000000E-03 0.  1.
    9900012    2    1    2    0    0 -0.10514511743E+01 -0.50639610883E+00 -0.17529011059E+00  0.90007867290E+02  0.90000130338E+02 0.  0.
         12    1    1    2    0    0  0.10514511743E+01  0.50639610883E+00  0.17529011059E+00  0.11801327102E+01  0.00000000000E+00 0. -1.
         11    1    3    3    0    0 -0.62026994834E+01 -0.62938081873E+01 -0.13733993210E+01  0.89426913363E+01  0.51100000000E-03 0. -1.
        -11    1    3    3    0    0  0.15996385241E+02 -0.79961418813E+01 -0.35856858554E+02  0.40069151868E+02  0.51100000000E-03 0.  1.
         12    1    3    3    0    0 -0.10845136932E+02  0.13783553960E+02  0.37054967764E+02  0.40996024086E+02  0.00000000000E+00 0. -1.
</event>
<event>
 7    1  0.2284751E-015  0.9000779E+02  0.7816164E-02  0.1186339E+00
        -11   -1    0    0    0    0  0.00000000000E+00  0.00000000000E+00  0.45593999997E+02  0.45594000000E+02  0.51100000000E-03 0. -1.
         11   -1    0    0    0    0 -0.00000000000E+00 -0.00000000000E+00 -0.45593999997E+02  0.45594000000E+02  0.51100000000E-03 0.  1.
    9900012    2    1    2    0    0  0.29670392320E-01 -0.79640354957E+00 -0.87049781268E+00  0.90007785872E+02  0.90000047846E+02 0.  0.
         12    1    1    2    0    0 -0.29670392320E-01  0.79640354957E+00  0.87049781268E+00  0.11802141280E+01  0.00000000000E+00 0. -1.
         11    1    3    3    0    0  0.11326864420E+01  0.27838411670E+01 -0.98846811738E+01  0.10331489360E+02  0.51100000000E-03 0. -1.
        -11    1    3    3    0    0  0.26565233089E+02  0.37793132157E+01 -0.23983852375E+02  0.35989164931E+02  0.51100000000E-03 0.  1.
         12    1    3    3    0    0 -0.27668249139E+02 -0.73595579323E+01  0.32998035736E+02  0.43687131581E+02  0.00000000000E+00 0. -1.
</event>
<event>
 7    1  0.2284751E-015  0.9000797E+02  0.7816164E-02  0.1186339E+00
        -11   -1    0    0    0    0  0.00000000000E+00  0.00000000000E+00  0.45593999997E+02  0.45594000000E+02  0.51100000000E-03 0.  1.
         11   -1    0    0    0    0 -0.00000000000E+00 -0.00000000000E+00 -0.45593999997E+02  0.45594000000E+02  0.51100000000E-03 0. -1.
    9900012    2    1    2    0    0  0.94881595861E+00  0.68125270582E+00 -0.16767301470E+00  0.90007969826E+02  0.90000234227E+02 0.  0.
         12    1    1    2    0    0 -0.94881595861E+00 -0.68125270582E+00  0.16767301470E+00  0.11800301743E+01  0.00000000000E+00 0. -1.
         11    1    3    3    0    0  0.25602732408E+02 -0.24212416666E+02  0.99132436493E+01  0.36606193840E+02  0.51100000000E-03 0. -1.
        -11    1    3    3    0    0  0.68528616197E+01 -0.52721994617E+01 -0.33185815483E+01  0.92612517133E+01  0.51100000000E-03 0.  1.
        -12    1    3    3    0    0 -0.31506778069E+02  0.30165868834E+02 -0.67623351157E+01  0.44140524272E+02  0.00000000000E+00 0.  1.
</event>
<event>
 7    1  0.2284751E-015  0.9000775E+02  0.7816164E-02  0.1186339E+00
        -11   -1    0    0    0    0  0.00000000000E+00  0.00000000000E+00  0.45593999997E+02  0.45594000000E+02  0.51100000000E-03 0.  1.
         11   -1    0    0    0    0 -0.00000000000E+00 -0.00000000000E+00 -0.45593999997E+02  0.45594000000E+02  0.51100000000E-03 0. -1.
    9900012    2    1    2    0    0 -0.11111476933E+01 -0.14379070096E+00  0.37103300022E+00  0.90007749836E+02  0.90000011334E+02 0.  0.
         12    1    1    2    0    0  0.11111476933E+01  0.14379070096E+00 -0.37103300022E+00  0.11802501638E+01  0.00000000000E+00 0. -1.
         11    1    3    3    0    0 -0.32032045198E+01 -0.25810796171E+01  0.96350019652E+01  0.10476438055E+02  0.51100000000E-03 0. -1.
        -11    1    3    3    0    0 -0.12246984303E+02  0.26321979510E+02  0.22902762654E+02  0.36977990309E+02  0.51100000000E-03 0.  1.
         12    1    3    3    0    0  0.14339041129E+02 -0.23884690594E+02 -0.32166731619E+02  0.42553321472E+02  0.00000000000E+00 0. -1.
</event>
<event>
 7    1  0.2284751E-015  0.9000769E+02  0.7816164E-02  0.1186339E+00
        -11   -1    0    0    0    0  0.00000000000E+00  0.00000000000E+00  0.45593999997E+02  0.45594000000E+02  0.51100000000E-03 0. -1.
         11   -1    0    0    0    0 -0.00000000000E+00 -0.00000000000E+00 -0.45593999997E+02  0.45594000000E+02  0.51100000000E-03 0.  1.
    9900012    2    1    2    0    0 -0.25675071577E+00 -0.87675261276E+00 -0.74733676934E+00  0.90007691430E+02  0.89999952157E+02 0.  0.
         12    1    1    2    0    0  0.25675071577E+00  0.87675261276E+00  0.74733676934E+00  0.11803085702E+01  0.00000000000E+00 0. -1.
         11    1    3    3    0    0  0.11366813918E+02  0.27206664437E+02  0.20738092952E+02  0.36048239180E+02  0.51100000000E-03 0. -1.
        -11    1    3    3    0    0  0.95264989979E+01  0.35049573873E+01  0.27944458793E+00  0.10154654055E+02  0.51100000000E-03 0.  1.
        -12    1    3    3    0    0 -0.21150063631E+02 -0.31588374437E+02 -0.21764874309E+02  0.43804798195E+02  0.00000000000E+00 0.  1.
</event>
<event>
 7    1  0.2284751E-015  0.9000766E+02  0.7816164E-02  0.1186339E+00
        -11   -1    0    0    0    0  0.00000000000E+00  0.00000000000E+00  0.45593999997E+02  0.45594000000E+02  0.51100000000E-03 0.  1.
         11   -1    0    0    0    0 -0.00000000000E+00 -0.00000000000E+00 -0.45593999997E+02  0.45594000000E+02  0.51100000000E-03 0. -1.
    9900012    2    1    2    0    0 -0.82460024787E+00 -0.25186599206E+00  0.80609532037E+00  0.90007664576E+02  0.89999924949E+02 0.  0.
         12    1    1    2    0    0  0.82460024787E+00  0.25186599206E+00 -0.80609532037E+00  0.11803354236E+01  0.00000000000E+00 0. -1.
         11    1    3    3    0    0  0.29048937781E+00 -0.83473154100E+01  0.36408161733E+01  0.91113995249E+01  0.51100000000E-03 0. -1.
        -11    1    3    3    0    0 -0.22993145202E+02  0.33097591813E+02  0.15226852992E+02  0.43081229815E+02  0.51100000000E-03 0.  1.
         12    1    3    3    0    0  0.21878055576E+02 -0.25002142395E+02 -0.18061573845E+02  0.37815035236E+02  0.00000000000E+00 0. -1.
</event>
<event>
 7    1  0.2284751E-015  0.9000779E+02  0.7816164E-02  0.1186339E+00
        -11   -1    0    0    0    0  0.00000000000E+00  0.00000000000E+00  0.45593999997E+02  0.45594000000E+02  0.51100000000E-03 0.  1.
         11   -1    0    0    0    0 -0.00000000000E+00 -0.00000000000E+00 -0.45593999997E+02  0.45594000000E+02  0.51100000000E-03 0. -1.
    9900012    2    1    2    0    0  0.91762903242E+00  0.57211803306E+00 -0.47279559841E+00  0.90007789102E+02  0.90000051119E+02 0.  0.
         12    1    1    2    0    0 -0.91762903242E+00 -0.57211803306E+00  0.47279559841E+00  0.11802108976E+01  0.00000000000E+00 0. -1.
         11    1    3    3    0    0 -0.78642385274E+01 -0.62963522378E+01  0.28277217055E+01  0.10463570587E+02  0.51100000000E-03 0. -1.
        -11    1    3    3    0    0 -0.89938134933E+01  0.34517229995E+02  0.18421075820E+02  0.40145533778E+02  0.51100000000E-03 0.  1.
         12    1    3    3    0    0  0.17775681053E+02 -0.27648759724E+02 -0.21721593124E+02  0.39398684738E+02  0.00000000000E+00 0. -1.
</event>
<event>
 7    1  0.2284751E-015  0.9000789E+02  0.7816164E-02  0.1186339E+00
        -11   -1    0    0    0    0  0.00000000000E+00  0.00000000000E+00  0.45593999997E+02  0.45594000000E+02  0.51100000000E-03 0.  1.
         11   -1    0    0    0    0 -0.00000000000E+00 -0.00000000000E+00 -0.45593999997E+02  0.45594000000E+02  0.51100000000E-03 0. -1.
    9900012    2    1    2    0    0  0.56802272741E+00  0.62540033127E+00 -0.82393825454E+00  0.90007894225E+02  0.90000157629E+02 0.  0.
         12    1    1    2    0    0 -0.56802272741E+00 -0.62540033127E+00  0.82393825454E+00  0.11801057751E+01  0.00000000000E+00 0. -1.
         11    1    3    3    0    0  0.73058774416E+01  0.30061446064E+01 -0.38669038464E+02  0.39467800630E+02  0.51100000000E-03 0. -1.
        -11    1    3    3    0    0  0.10810083312E+02 -0.20071438798E+00  0.26186506291E+01  0.11124545782E+02  0.51100000000E-03 0.  1.
        -12    1    3    3    0    0 -0.17547938027E+02 -0.21800298871E+01  0.35226449581E+02  0.39415547812E+02  0.00000000000E+00 0.  1.
</event>
<event>
 7    1  0.2284751E-015  0.9000784E+02  0.7816164E-02  0.1186339E+00
        -11   -1    0    0    0    0  0.00000000000E+00  0.00000000000E+00  0.45593999997E+02  0.45594000000E+02  0.51100000000E-03 0.  1.
         11   -1    0    0    0    0 -0.00000000000E+00 -0.00000000000E+00 -0.45593999997E+02  0.45594000000E+02  0.51100000000E-03 0. -1.
    9900012    2    1    2    0    0  0.56041112243E+00  0.57939884985E+00  0.86198567962E+00  0.90007837738E+02  0.90000100396E+02 0.  0.
         12    1    1    2    0    0 -0.56041112243E+00 -0.57939884985E+00 -0.86198567962E+00  0.11801622622E+01  0.00000000000E+00 0. -1.
         11    1    3    3    0    0 -0.66133740095E+01  0.48335175104E+01  0.57750027887E+01  0.10022487954E+02  0.51100000000E-03 0. -1.
        -11    1    3    3    0    0 -0.15011107155E+02 -0.37143555218E+02 -0.46802438745E+00  0.40064898344E+02  0.51100000000E-03 0.  1.
         12    1    3    3    0    0  0.22184892287E+02  0.32889436558E+02 -0.44449927216E+01  0.39920451440E+02  0.00000000000E+00 0. -1.
</event>
<event>
 7    1  0.2284751E-015  0.9000763E+02  0.7816164E-02  0.1186339E+00
        -11   -1    0    0    0    0  0.00000000000E+00  0.00000000000E+00  0.45593999997E+02  0.45594000000E+02  0.51100000000E-03 0. -1.
         11   -1    0    0    0    0 -0.00000000000E+00 -0.00000000000E+00 -0.45593999997E+02  0.45594000000E+02  0.51100000000E-03 0.  1.
    9900012    2    1    2    0    0  0.36223515387E+00 -0.98371577838E+00  0.54255297859E+00  0.90007629391E+02  0.89999889299E+02 0.  0.
         12    1    1    2    0    0 -0.36223515387E+00  0.98371577838E+00 -0.54255297859E+00  0.11803706087E+01  0.00000000000E+00 0. -1.
         11    1    3    3    0    0 -0.15318334994E+02 -0.33194208396E+02  0.45367040757E+01  0.36838682688E+02  0.51100000000E-03 0. -1.
        -11    1    3    3    0    0 -0.10066885448E+02 -0.16389976718E+01 -0.29876034322E+01  0.10627994661E+02  0.51100000000E-03 0.  1.
        -12    1    3    3    0    0  0.25747455595E+02  0.33849490290E+02 -0.10065476650E+01  0.42540952043E+02  0.00000000000E+00 0.  1.
</event>
<event>
 7    1  0.2284751E-015  0.9000771E+02  0.7816164E-02  0.1186339E+00
        -11   -1    0    0    0    0  0.00000000000E+00  0.00000000000E+00  0.45593999997E+02  0.45594000000E+02  0.51100000000E-03 0. -1.
         11   -1    0    0    0    0 -0.00000000000E+00 -0.00000000000E+00 -0.45593999997E+02  0.45594000000E+02  0.51100000000E-03 0.  1.
    9900012    2    1    2    0    0 -0.45418312040E+00  0.81565497903E+00 -0.72215845917E+00  0.90007708429E+02  0.89999969381E+02 0.  0.
         12    1    1    2    0    0  0.45418312040E+00 -0.81565497903E+00  0.72215845917E+00  0.11802915707E+01  0.00000000000E+00 0. -1.
         11    1    3    3    0    0  0.81958246506E+01 -0.25209394594E+01  0.22474531585E+01  0.88644076746E+01  0.51100000000E-03 0. -1.
        -11    1    3    3    0    0  0.61573517157E+01  0.39132699221E+02  0.89509879086E+01  0.40612822030E+02  0.51100000000E-03 0.  1.
         12    1    3    3    0    0 -0.14807359487E+02 -0.35796104782E+02 -0.11920599526E+02  0.40530478724E+02  0.00000000000E+00 0. -1.
</event>
<event>
 7    1  0.2284751E-015  0.9000754E+02  0.7816164E-02  0.1186339E+00
        -11   -1    0    0    0    0  0.00000000000E+00  0.00000000000E+00  0.45593999997E+02  0.45594000000E+02  0.51100000000E-03 0. -1.
         11   -1    0    0    0    0 -0.00000000000E+00 -0.00000000000E+00 -0.45593999997E+02  0.45594000000E+02  0.51100000000E-03 0.  1.
    9900012    2    1    2    0    0  0.20795315322E+00 -0.11405674390E+01 -0.22215737614E+00  0.90007537169E+02  0.89999795859E+02 0.  0.
         12    1    1    2    0    0 -0.20795315322E+00  0.11405674390E+01  0.22215737614E+00  0.11804628315E+01  0.00000000000E+00 0. -1.
         11    1    3    3    0    0  0.59695649266E+01  0.44794951785E+01  0.56929525243E+01  0.93867614848E+01  0.51100000000E-03 0. -1.
        -11    1    3    3    0    0 -0.26885790804E+02 -0.31864889706E+02  0.10719236353E+02  0.43047868372E+02  0.51100000000E-03 0.  1.
         12    1    3    3    0    0  0.21124179031E+02  0.26244827088E+02 -0.16634346253E+02  0.37572907312E+02  0.00000000000E+00 0. -1.
</event>
<event>
 7    1  0.2284751E-015  0.9000778E+02  0.7816164E-02  0.1186339E+00
        -11   -1    0    0    0    0  0.00000000000E+00  0.00000000000E+00  0.45593999997E+02  0.45594000000E+02  0.51100000000E-03 0. -1.
         11   -1    0    0    0    0 -0.00000000000E+00 -0.00000000000E+00 -0.45593999997E+02  0.45594000000E+02  0.51100000000E-03 0.  1.
    9900012    2    1    2    0    0  0.56295103438E+00 -0.97332686163E+00 -0.35867075149E+00  0.90007778091E+02  0.90000039962E+02 0.  0.
         12    1    1    2    0    0 -0.56295103438E+00  0.97332686163E+00  0.35867075149E+00  0.11802219091E+01  0.00000000000E+00 0. -1.
         11    1    3    3    0    0 -0.27640185421E+01 -0.24935532378E+02  0.27390119226E+02  0.37143494786E+02  0.51100000000E-03 0. -1.
        -11    1    3    3    0    0  0.45201022852E+01 -0.41681804036E+01  0.62184491383E+01  0.87449506855E+01  0.51100000000E-03 0.  1.
        -12    1    3    3    0    0 -0.11931327087E+01  0.28130385919E+02 -0.33967239116E+02  0.44119332619E+02  0.00000000000E+00 0.  1.
</event>
<event>
 7    1  0.2284751E-015  0.9000770E+02  0.7816164E-02  0.1186339E+00
        -11   -1    0    0    0    0  0.00000000000E+00  0.00000000000E+00  0.45593999997E+02  0.45594000000E+02  0.51100000000E-03 0. -1.
         11   -1    0    0    0    0 -0.00000000000E+00 -0.00000000000E+00 -0.45593999997E+02  0.45594000000E+02  0.51100000000E-03 0.  1.
    9900012    2    1    2    0    0 -0.13925413996E+00  0.97418614878E+00 -0.65167643694E+00  0.90007698112E+02  0.89999958927E+02 0.  0.
         12    1    1    2    0    0  0.13925413996E+00 -0.97418614878E+00  0.65167643694E+00  0.11803018878E+01  0.00000000000E+00 0. -1.
         11    1    3    3    0    0 -0.82625825022E+01 -0.52614592800E+01  0.29350955991E+02  0.30942395531E+02  0.51100000000E-03 0. -1.
        -11    1    3    3    0    0 -0.20630141976E+02  0.74866473730E+01 -0.10742532555E+02  0.24434701815E+02  0.51100000000E-03 0.  1.
        -12    1    3    3    0    0  0.28753470338E+02 -0.12510019442E+01 -0.19260099873E+02  0.34630600767E+02  0.00000000000E+00 0.  1.
</event>
<event>
 7    1  0.2284751E-015  0.9000775E+02  0.7816164E-02  0.1186339E+00
        -11   -1    0    0    0    0  0.00000000000E+00  0.00000000000E+00  0.45593999997E+02  0.45594000000E+02  0.51100000000E-03 0.  1.
         11   -1    0    0    0    0 -0.00000000000E+00 -0.00000000000E+00 -0.45593999997E+02  0.45594000000E+02  0.51100000000E-03 0. -1.
    9900012    2    1    2    0    0 -0.55604393107E+00 -0.93995812566E+00 -0.44751854954E+00  0.90007754694E+02  0.90000016255E+02 0.  0.
         12    1    1    2    0    0  0.55604393107E+00  0.93995812566E+00  0.44751854954E+00  0.11802453065E+01  0.00000000000E+00 0. -1.
         11    1    3    3    0    0  0.73304838777E+01  0.48073225925E+01 -0.78776628975E+01  0.11785750607E+02  0.51100000000E-03 0. -1.
        -11    1    3    3    0    0  0.58464610392E+01 -0.15151682220E+02  0.39158587161E+02  0.42392800444E+02  0.51100000000E-03 0.  1.
         12    1    3    3    0    0 -0.13732988848E+02  0.94044015022E+01 -0.31728442813E+02  0.35829203642E+02  0.00000000000E+00 0. -1.
</event>
<event>
 7    1  0.2284751E-015  0.9000776E+02  0.7816164E-02  0.1186339E+00
        -11   -1    0    0    0    0  0.00000000000E+00  0.00000000000E+00  0.45593999997E+02  0.45594000000E+02  0.51100000000E-03 0.  1.
         11   -1    0    0    0    0 -0.00000000000E+00 -0.00000000000E+00 -0.45593999997E+02  0.45594000000E+02  0.51100000000E-03 0. -1.
    9900012    2    1    2    0    0 -0.11360527760E+01 -0.18038160360E+00  0.26424103778E+00  0.90007755636E+02  0.90000017210E+02 0.  0.
         12    1    1    2    0    0  0.11360527760E+01  0.18038160360E+00 -0.26424103778E+00  0.11802443640E+01  0.00000000000E+00 0. -1.
         11    1    3    3    0    0  0.19057703596E+01 -0.82237566228E+01 -0.41709194893E+01  0.94158750683E+01  0.51100000000E-03 0. -1.
        -11    1    3    3    0    0  0.12606847432E+02 -0.16908312640E+02 -0.29112754909E+02  0.35949633338E+02  0.51100000000E-03 0.  1.
         12    1    3    3    0    0 -0.15648670567E+02  0.24951687659E+02  0.33547915436E+02  0.44642247229E+02  0.00000000000E+00 0. -1.
</event>
<event>
 7    1  0.2284751E-015  0.9000800E+02  0.7816164E-02  0.1186339E+00
        -11   -1    0    0    0    0  0.00000000000E+00  0.00000000000E+00  0.45593999997E+02  0.45594000000E+02  0.51100000000E-03 0. -1.
         11   -1    0    0    0    0 -0.00000000000E+00 -0.00000000000E+00 -0.45593999997E+02  0.45594000000E+02  0.51100000000E-03 0.  1.
    9900012    2    1    2    0    0  0.27204680598E+00  0.11418546834E+01 -0.12067294387E+00  0.90007998499E+02  0.90000263279E+02 0.  0.
         12    1    1    2    0    0 -0.27204680598E+00 -0.11418546834E+01  0.12067294387E+00  0.11800015009E+01  0.00000000000E+00 0. -1.
         11    1    3    3    0    0 -0.70143845200E+01  0.36625522756E+02  0.10743094172E+02  0.38807790197E+02  0.51100000000E-03 0. -1.
        -11    1    3    3    0    0  0.83395251347E+01 -0.49296380913E+01  0.10205340605E+02  0.14071175797E+02  0.51100000000E-03 0.  1.
        -12    1    3    3    0    0 -0.10530938087E+01 -0.30554029981E+02 -0.21069107720E+02  0.37129032505E+02  0.00000000000E+00 0.  1.
</event>
<event>
 7    1  0.2284751E-015  0.9000771E+02  0.7816164E-02  0.1186339E+00
        -11   -1    0    0    0    0  0.00000000000E+00  0.00000000000E+00  0.45593999997E+02  0.45594000000E+02  0.51100000000E-03 0. -1.
         11   -1    0    0    0    0 -0.00000000000E+00 -0.00000000000E+00 -0.45593999997E+02  0.45594000000E+02  0.51100000000E-03 0.  1.
    9900012    2    1    2    0    0  0.96142931107E+00 -0.50207445332E+00 -0.46545614338E+00  0.90007714230E+02  0.89999975258E+02 0.  0.
         12    1    1    2    0    0 -0.96142931107E+00  0.50207445332E+00  0.46545614338E+00  0.11802857698E+01  0.00000000000E+00 0. -1.
         11    1    3    3    0    0 -0.11336234351E+01 -0.92455511314E+01 -0.36725484967E+01  0.10012638540E+02  0.51100000000E-03 0. -1.
        -11    1    3    3    0    0  0.50397923563E+01  0.40965951651E+02 -0.13697882821E+02  0.43488397254E+02  0.51100000000E-03 0.  1.
         12    1    3    3    0    0 -0.29447396101E+01 -0.32222474973E+02  0.16904975174E+02  0.36506678436E+02  0.00000000000E+00 0. -1.
</event>
<event>
 7    1  0.2284751E-015  0.9000777E+02  0.7816164E-02  0.1186339E+00
        -11   -1    0    0    0    0  0.00000000000E+00  0.00000000000E+00  0.45593999997E+02  0.45594000000E+02  0.51100000000E-03 0. -1.
         11   -1    0    0    0    0 -0.00000000000E+00 -0.00000000000E+00 -0.45593999997E+02  0.45594000000E+02  0.51100000000E-03 0.  1.
    9900012    2    1    2    0    0 -0.11758967319E+01 -0.83153971275E-01  0.57486892277E-01  0.90007765934E+02  0.90000027645E+02 0.  0.
         12    1    1    2    0    0  0.11758967319E+01  0.83153971275E-01 -0.57486892277E-01  0.11802340656E+01  0.00000000000E+00 0. -1.
         11    1    3    3    0    0  0.48613189243E+01  0.75813437893E+01 -0.32967217661E+01  0.95904937307E+01  0.51100000000E-03 0. -1.
        -11    1    3    3    0    0 -0.30671459181E+02  0.14910605802E+02 -0.20106649786E+02  0.39589669606E+02  0.51100000000E-03 0.  1.
         12    1    3    3    0    0  0.24634243525E+02 -0.22575103563E+02  0.23460858444E+02  0.40827602597E+02  0.00000000000E+00 0. -1.
</event>
<event>
 7    1  0.2284751E-015  0.9000774E+02  0.7816164E-02  0.1186339E+00
        -11   -1    0    0    0    0  0.00000000000E+00  0.00000000000E+00  0.45593999997E+02  0.45594000000E+02  0.51100000000E-03 0.  1.
         11   -1    0    0    0    0 -0.00000000000E+00 -0.00000000000E+00 -0.45593999997E+02  0.45594000000E+02  0.51100000000E-03 0. -1.
    9900012    2    1    2    0    0 -0.97419119347E+00  0.64361563109E+00 -0.17240584299E+00  0.90007740140E+02  0.90000001510E+02 0.  0.
         12    1    1    2    0    0  0.97419119347E+00 -0.64361563109E+00  0.17240584299E+00  0.11802598598E+01  0.00000000000E+00 0. -1.
         11    1    3    3    0    0  0.78989356242E+01  0.15419759632E+01  0.55080938716E+01  0.97524341692E+01  0.51100000000E-03 0. -1.
        -11    1    3    3    0    0  0.79554326222E+01 -0.22931873209E+02  0.27721365108E+02  0.36846082571E+02  0.51100000000E-03 0.  1.
         12    1    3    3    0    0 -0.16828559440E+02  0.22033512877E+02 -0.33401864823E+02  0.43409223400E+02  0.00000000000E+00 0. -1.
</event>
<event>
 7    1  0.2284751E-015  0.9000776E+02  0.7816164E-02  0.1186339E+00
        -11   -1    0    0    0    0  0.00000000000E+00  0.00000000000E+00  0.45593999997E+02  0.45594000000E+02  0.51100000000E-03 0. -1.
         11   -1    0    0    0    0 -0.00000000000E+00 -0.00000000000E+00 -0.45593999997E+02  0.45594000000E+02  0.51100000000E-03 0.  1.
    9900012    2    1    2    0    0  0.13162981677E+00 -0.10261473376E+01 -0.56802593414E+00  0.90007763486E+02  0.90000025164E+02 0.  0.
         12    1    1    2    0    0 -0.13162981677E+00  0.10261473376E+01  0.56802593414E+00  0.11802365140E+01  0.00000000000E+00 0. -1.
         11    1    3    3    0    0  0.94008552778E+01  0.76991755329E+00  0.58428715205E+01  0.11095404493E+02  0.51100000000E-03 0. -1.
        -11    1    3    3    0    0 -0.27132146715E+02 -0.31969154765E+02  0.45453237959E+01  0.42176299156E+02  0.51100000000E-03 0.  1.
         12    1    3    3    0    0  0.17862921254E+02  0.30173089874E+02 -0.10956221251E+02  0.36736059838E+02  0.00000000000E+00 0. -1.
</event>
<event>
 7    1  0.2284751E-015  0.9000778E+02  0.7816164E-02  0.1186339E+00
        -11   -1    0    0    0    0  0.00000000000E+00  0.00000000000E+00  0.45593999997E+02  0.45594000000E+02  0.51100000000E-03 0.  1.
         11   -1    0    0    0    0 -0.00000000000E+00 -0.00000000000E+00 -0.45593999997E+02  0.45594000000E+02  0.51100000000E-03 0. -1.
    9900012    2    1    2    0    0 -0.76170186020E+00  0.85179850087E+00  0.29524261905E+00  0.90007780269E+02  0.90000042168E+02 0.  0.
         12    1    1    2    0    0  0.76170186020E+00 -0.85179850087E+00 -0.29524261905E+00  0.11802197312E+01  0.00000000000E+00 0. -1.
         11    1    3    3    0    0 -0.98590892688E+01  0.86542218819E+00  0.12597523925E+01  0.99768518645E+01  0.51100000000E-03 0. -1.
        -11    1    3    3    0    0 -0.10501806912E+02 -0.26016838492E+02 -0.26543982754E+02  0.38623138845E+02  0.51100000000E-03 0.  1.
         12    1    3    3    0    0  0.19599194321E+02  0.26003214805E+02  0.25579472981E+02  0.41407789559E+02  0.00000000000E+00 0. -1.
</event>
<event>
 7    1  0.2284751E-015  0.9000768E+02  0.7816164E-02  0.1186339E+00
        -11   -1    0    0    0    0  0.00000000000E+00  0.00000000000E+00  0.45593999997E+02  0.45594000000E+02  0.51100000000E-03 0. -1.
         11   -1    0    0    0    0 -0.00000000000E+00 -0.00000000000E+00 -0.45593999997E+02  0.45594000000E+02  0.51100000000E-03 0.  1.
    9900012    2    1    2    0    0 -0.10781348032E+00 -0.51083291345E+00 -0.10585748768E+01  0.90007680220E+02  0.89999940799E+02 0.  0.
         12    1    1    2    0    0  0.10781348032E+00  0.51083291345E+00  0.10585748768E+01  0.11803197795E+01  0.00000000000E+00 0. -1.
         11    1    3    3    0    0  0.12391605539E+02  0.29948075702E+02  0.19199475393E+02  0.37670399277E+02  0.51100000000E-03 0. -1.
        -11    1    3    3    0    0  0.95914150592E+01  0.11816374912E+01 -0.43444582972E+01  0.10595557001E+02  0.51100000000E-03 0.  1.
        -12    1    3    3    0    0 -0.22090834079E+02 -0.31640546107E+02 -0.15913591972E+02  0.41741723942E+02  0.00000000000E+00 0.  1.
</event>
<event>
 7    1  0.2284751E-015  0.9000772E+02  0.7816164E-02  0.1186339E+00
        -11   -1    0    0    0    0  0.00000000000E+00  0.00000000000E+00  0.45593999997E+02  0.45594000000E+02  0.51100000000E-03 0. -1.
         11   -1    0    0    0    0 -0.00000000000E+00 -0.00000000000E+00 -0.45593999997E+02  0.45594000000E+02  0.51100000000E-03 0.  1.
    9900012    2    1    2    0    0  0.11042267475E+01 -0.31173048050E+00  0.27670436692E+00  0.90007721258E+02  0.89999982379E+02 0.  0.
         12    1    1    2    0    0 -0.11042267475E+01  0.31173048050E+00 -0.27670436692E+00  0.11802787421E+01  0.00000000000E+00 0. -1.
         11    1    3    3    0    0 -0.23198161679E+02 -0.15836389490E+02  0.27047471677E+02  0.38993738750E+02  0.51100000000E-03 0. -1.
        -11    1    3    3    0    0  0.66963224735E+00 -0.89658313119E+01 -0.29128705274E+01  0.94508916739E+01  0.51100000000E-03 0.  1.
        -12    1    3    3    0    0  0.23632756179E+02  0.24490490321E+02 -0.23857896782E+02  0.41563090834E+02  0.00000000000E+00 0.  1.
</event>
<event>
 7    1  0.2284751E-015  0.9000760E+02  0.7816164E-02  0.1186339E+00
        -11   -1    0    0    0    0  0.00000000000E+00  0.00000000000E+00  0.45593999997E+02  0.45594000000E+02  0.51100000000E-03 0. -1.
         11   -1    0    0    0    0 -0.00000000000E+00 -0.00000000000E+00 -0.45593999997E+02  0.45594000000E+02  0.51100000000E-03 0.  1.
    9900012    2    1    2    0    0 -0.49846303638E+00 -0.10058249461E+01 -0.36495142120E+00  0.90007602287E+02  0.89999861837E+02 0.  0.
         12    1    1    2    0    0  0.49846303638E+00  0.10058249461E+01  0.36495142120E+00  0.11803977129E+01  0.00000000000E+00 0. -1.
         11    1    3    3    0    0  0.32649763732E+01  0.92958611763E+01 -0.12209548205E+01  0.99279321443E+01  0.51100000000E-03 0. -1.
        -11    1    3    3    0    0 -0.39237344497E+02  0.81229940267E+01  0.15678786760E+01  0.40100005972E+02  0.51100000000E-03 0.  1.
         12    1    3    3    0    0  0.35473905088E+02 -0.18424680149E+02 -0.71187527667E+00  0.39979664171E+02  0.00000000000E+00 0. -1.
</event>
<event>
 7    1  0.2284751E-015  0.9000774E+02  0.7816164E-02  0.1186339E+00
        -11   -1    0    0    0    0  0.00000000000E+00  0.00000000000E+00  0.45593999997E+02  0.45594000000E+02  0.51100000000E-03 0.  1.
         11   -1    0    0    0    0 -0.00000000000E+00 -0.00000000000E+00 -0.45593999997E+02  0.45594000000E+02  0.51100000000E-03 0. -1.
    9900012    2    1    2    0    0 -0.81623913007E+00  0.73858012762E+00 -0.42574923907E+00  0.90007741835E+02  0.90000003227E+02 0.  0.
         12    1    1    2    0    0  0.81623913007E+00 -0.73858012762E+00  0.42574923907E+00  0.11802581654E+01  0.00000000000E+00 0. -1.
         11    1    3    3    0    0 -0.60259443783E+01 -0.57852180625E+01 -0.39845962494E+01  0.92551478223E+01  0.51100000000E-03 0. -1.
        -11    1    3    3    0    0 -0.27792835487E+02 -0.15263833172E+02  0.20470850757E+02  0.37742310985E+02  0.51100000000E-03 0.  1.
         12    1    3    3    0    0  0.33002540735E+02  0.21787631362E+02 -0.16912003747E+02  0.43010283027E+02  0.00000000000E+00 0. -1.
</event>
<event>
 7    1  0.2284751E-015  0.9000780E+02  0.7816164E-02  0.1186339E+00
        -11   -1    0    0    0    0  0.00000000000E+00  0.00000000000E+00  0.45593999997E+02  0.45594000000E+02  0.51100000000E-03 0. -1.
         11   -1    0    0    0    0 -0.00000000000E+00 -0.00000000000E+00 -0.45593999997E+02  0.45594000000E+02  0.51100000000E-03 0.  1.
    9900012    2    1    2    0    0 -0.47119108603E+00  0.10427167972E+01 -0.28911996824E+00  0.90007800985E+02  0.90000063158E+02 0.  0.
         12    1    1    2    0    0  0.47119108603E+00 -0.10427167972E+01  0.28911996824E+00  0.11801990149E+01  0.00000000000E+00 0. -1.
         11    1    3    3    0    0  0.37171494310E+02  0.33420633196E+01 -0.42781185858E+01  0.37565831222E+02  0.51100000000E-03 0. -1.
        -11    1    3    3    0    0 -0.16124173614E+02  0.68895806031E+00 -0.16140420717E+02  0.22824916629E+02  0.51100000000E-03 0.  1.
        -12    1    3    3    0    0 -0.21518511782E+02 -0.29883045827E+01  0.20129419335E+02  0.29617053134E+02  0.00000000000E+00 0.  1.
</event>
<event>
 7    1  0.3291155E-015  0.9000775E+02  0.7816164E-02  0.1186339E+00
        -11   -1    0    0    0    0  0.00000000000E+00  0.00000000000E+00  0.45593999997E+02  0.45594000000E+02  0.51100000000E-03 0. -1.
         11   -1    0    0    0    0 -0.00000000000E+00 -0.00000000000E+00 -0.45593999997E+02  0.45594000000E+02  0.51100000000E-03 0.  1.
    9900012    2    1    2    0    0 -0.23536196706E+00 -0.45529373304E+00 -0.10631619530E+01  0.90007745376E+02  0.90000006815E+02 0.  0.
         12    1    1    2    0    0  0.23536196706E+00  0.45529373304E+00  0.10631619530E+01  0.11802546239E+01  0.00000000000E+00 0. -1.
         11    1    3    3    0    0  0.25629230391E+02 -0.51927948158E+01  0.26023640941E+02  0.36892444437E+02  0.51100000000E-03 0. -1.
        -11    1    3    3    0    0  0.75910888949E+01  0.44607013796E+01  0.17135320879E+01  0.89698762470E+01  0.51100000000E-03 0.  1.
        -12    1    3    3    0    0 -0.33455681253E+02  0.27679970323E+00 -0.28800334982E+02  0.44145424692E+02  0.00000000000E+00 0.  1.
</event>
<event>
 7    1  0.2284751E-015  0.9000772E+02  0.7816164E-02  0.1186339E+00
        -11   -1    0    0    0    0  0.00000000000E+00  0.00000000000E+00  0.45593999997E+02  0.45594000000E+02  0.51100000000E-03 0. -1.
         11   -1    0    0    0    0 -0.00000000000E+00 -0.00000000000E+00 -0.45593999997E+02  0.45594000000E+02  0.51100000000E-03 0.  1.
    9900012    2    1    2    0    0 -0.65633901036E+00  0.40729556482E+00  0.89240391916E+00  0.90007722351E+02  0.89999983486E+02 0.  0.
         12    1    1    2    0    0  0.65633901036E+00 -0.40729556482E+00 -0.89240391916E+00  0.11802776489E+01  0.00000000000E+00 0. -1.
         11    1    3    3    0    0 -0.96366472048E+01  0.26382668402E+00  0.12968984449E+01  0.97271023284E+01  0.51100000000E-03 0. -1.
        -11    1    3    3    0    0  0.11251045386E+02 -0.20285859018E+02 -0.33842799056E+02  0.41029710535E+02  0.51100000000E-03 0.  1.
         12    1    3    3    0    0 -0.22707371916E+01  0.20429327899E+02  0.33438304530E+02  0.39250909488E+02  0.00000000000E+00 0. -1.
</event>
<event>
 7    1  0.2284751E-015  0.9000764E+02  0.7816164E-02  0.1186339E+00
        -11   -1    0    0    0    0  0.00000000000E+00  0.00000000000E+00  0.45593999997E+02  0.45594000000E+02  0.51100000000E-03 0.  1.
         11   -1    0    0    0    0 -0.00000000000E+00 -0.00000000000E+00 -0.45593999997E+02  0.45594000000E+02  0.51100000000E-03 0. -1.
    9900012    2    1    2    0    0  0.31808077397E+00  0.49901860279E+00 -0.10212987357E+01  0.90007641558E+02  0.89999901626E+02 0.  0.
         12    1    1    2    0    0 -0.31808077397E+00 -0.49901860279E+00  0.10212987357E+01  0.11803584423E+01  0.00000000000E+00 0. -1.
         11    1    3    3    0    0  0.58423186159E+01  0.20825120052E+02 -0.28297820826E+02  0.35617200560E+02  0.51100000000E-03 0. -1.
        -11    1    3    3    0    0  0.51714793268E+01  0.11618537838E+02  0.36080756430E+01  0.13219411108E+02  0.51100000000E-03 0.  1.
        -12    1    3    3    0    0 -0.10695717169E+02 -0.31944639287E+02  0.23668446447E+02  0.41171029890E+02  0.00000000000E+00 0.  1.
</event>
<event>
 7    1  0.2284751E-015  0.9000776E+02  0.7816164E-02  0.1186339E+00
        -11   -1    0    0    0    0  0.00000000000E+00  0.00000000000E+00  0.45593999997E+02  0.45594000000E+02  0.51100000000E-03 0. -1.
         11   -1    0    0    0    0 -0.00000000000E+00 -0.00000000000E+00 -0.45593999997E+02  0.45594000000E+02  0.51100000000E-03 0.  1.
    9900012    2    1    2    0    0 -0.55076436599E+00  0.48009882387E+00 -0.92689710444E+00  0.90007756589E+02  0.90000018176E+02 0.  0.
         12    1    1    2    0    0  0.55076436599E+00 -0.48009882387E+00  0.92689710444E+00  0.11802434112E+01  0.00000000000E+00 0. -1.
         11    1    3    3    0    0  0.31088011161E+02 -0.10126038913E+02 -0.28839654541E+02  0.43597325334E+02  0.51100000000E-03 0. -1.
        -11    1    3    3    0    0 -0.67157437729E+01 -0.36660456496E+01  0.24662888121E+01  0.80388858615E+01  0.51100000000E-03 0.  1.
        -12    1    3    3    0    0 -0.24923031754E+02  0.14272183386E+02  0.25446468624E+02  0.38371545393E+02  0.00000000000E+00 0.  1.
</event>
<event>
 7    1  0.2284751E-015  0.9000778E+02  0.7816164E-02  0.1186339E+00
        -11   -1    0    0    0    0  0.00000000000E+00  0.00000000000E+00  0.45593999997E+02  0.45594000000E+02  0.51100000000E-03 0. -1.
         11   -1    0    0    0    0 -0.00000000000E+00 -0.00000000000E+00 -0.45593999997E+02  0.45594000000E+02  0.51100000000E-03 0.  1.
    9900012    2    1    2    0    0  0.11058608212E+01  0.37827363982E+00  0.16400541616E+00  0.90007781004E+02  0.90000042913E+02 0.  0.
         12    1    1    2    0    0 -0.11058608212E+01 -0.37827363982E+00 -0.16400541616E+00  0.11802189962E+01  0.00000000000E+00 0. -1.
         11    1    3    3    0    0 -0.11999540791E+02  0.19390782521E+01  0.34490364576E+02  0.36569580973E+02  0.51100000000E-03 0. -1.
        -11    1    3    3    0    0 -0.77771159288E+01  0.42194979970E+01  0.37646633798E+01  0.96156323838E+01  0.51100000000E-03 0.  1.
        -12    1    3    3    0    0  0.20882517541E+02 -0.57803026092E+01 -0.38091022539E+02  0.43822567647E+02  0.00000000000E+00 0.  1.
</event>
<event>
 7    1  0.2284751E-015  0.9000778E+02  0.7816164E-02  0.1186339E+00
        -11   -1    0    0    0    0  0.00000000000E+00  0.00000000000E+00  0.45593999997E+02  0.45594000000E+02  0.51100000000E-03 0. -1.
         11   -1    0    0    0    0 -0.00000000000E+00 -0.00000000000E+00 -0.45593999997E+02  0.45594000000E+02  0.51100000000E-03 0.  1.
    9900012    2    1    2    0    0 -0.61828036409E+00  0.26824518352E+00 -0.96886317062E+00  0.90007778864E+02  0.90000040745E+02 0.  0.
         12    1    1    2    0    0  0.61828036409E+00 -0.26824518352E+00  0.96886317062E+00  0.11802211363E+01  0.00000000000E+00 0. -1.
         11    1    3    3    0    0  0.14456104280E+02  0.32047254070E+02  0.19582625817E+02  0.40242821453E+02  0.51100000000E-03 0. -1.
        -11    1    3    3    0    0  0.12592595447E+01 -0.11764340842E+02  0.55255213672E+01  0.13058209551E+02  0.51100000000E-03 0.  1.
        -12    1    3    3    0    0 -0.16333644189E+02 -0.20014668045E+02 -0.26077010354E+02  0.36706747860E+02  0.00000000000E+00 0.  1.
</event>
<event>
 7    1  0.2284751E-015  0.9000770E+02  0.7816164E-02  0.1186339E+00
        -11   -1    0    0    0    0  0.00000000000E+00  0.00000000000E+00  0.45593999997E+02  0.45594000000E+02  0.51100000000E-03 0.  1.
         11   -1    0    0    0    0 -0.00000000000E+00 -0.00000000000E+00 -0.45593999997E+02  0.45594000000E+02  0.51100000000E-03 0. -1.
    9900012    2    1    2    0    0 -0.40219452760E+00  0.86632197772E+00  0.69341850141E+00  0.90007701976E+02  0.89999962842E+02 0.  0.
         12    1    1    2    0    0  0.40219452760E+00 -0.86632197772E+00 -0.69341850141E+00  0.11802980239E+01  0.00000000000E+00 0. -1.
         11    1    3    3    0    0 -0.22400157812E+01 -0.87954362062E+01 -0.42134053654E+01  0.10006505573E+02  0.51100000000E-03 0. -1.
        -11    1    3    3    0    0 -0.28465706125E+02 -0.88691850570E+01  0.25247427388E+02  0.39069060121E+02  0.51100000000E-03 0.  1.
         12    1    3    3    0    0  0.30303527379E+02  0.18530943241E+02 -0.20340603521E+02  0.40932136282E+02  0.00000000000E+00 0. -1.
</event>
<event>
 7    1  0.3515673E-015  0.9000779E+02  0.7816164E-02  0.1186339E+00
        -11   -1    0    0    0    0  0.00000000000E+00  0.00000000000E+00  0.45593999997E+02  0.45594000000E+02  0.51100000000E-03 0.  1.
         11   -1    0    0    0    0 -0.00000000000E+00 -0.00000000000E+00 -0.45593999997E+02  0.45594000000E+02  0.51100000000E-03 0. -1.
    9900012    2    1    2    0    0 -0.82793832667E+00  0.60585862135E+00  0.58339501465E+00  0.90007789729E+02  0.90000051753E+02 0.  0.
         12    1    1    2    0    0  0.82793832667E+00 -0.60585862135E+00 -0.58339501465E+00  0.11802102715E+01  0.00000000000E+00 0. -1.
         11    1    3    3    0    0 -0.14584346191E+01  0.22374170079E+02 -0.30378351720E+02  0.37756784447E+02  0.51100000000E-03 0. -1.
        -11    1    3    3    0    0  0.45060254656E+01 -0.22978210789E+01 -0.74543851031E+01  0.90084462996E+01  0.51100000000E-03 0.  1.
        -12    1    3    3    0    0 -0.38755291731E+01 -0.19470490378E+02  0.38416131838E+02  0.43242558982E+02  0.00000000000E+00 0.  1.
</event>
<event>
 7    1  0.2284751E-015  0.9000770E+02  0.7816164E-02  0.1186339E+00
        -11   -1    0    0    0    0  0.00000000000E+00  0.00000000000E+00  0.45593999997E+02  0.45594000000E+02  0.51100000000E-03 0. -1.
         11   -1    0    0    0    0 -0.00000000000E+00 -0.00000000000E+00 -0.45593999997E+02  0.45594000000E+02  0.51100000000E-03 0.  1.
    9900012    2    1    2    0    0  0.11284530351E+01 -0.33451064825E+00 -0.88307707330E-01  0.90007702632E+02  0.89999963507E+02 0.  0.
         12    1    1    2    0    0 -0.11284530351E+01  0.33451064825E+00  0.88307707330E-01  0.11802973682E+01  0.00000000000E+00 0. -1.
         11    1    3    3    0    0  0.80118350227E+01  0.22061705039E+02  0.30814334538E+02  0.38735404257E+02  0.51100000000E-03 0. -1.
        -11    1    3    3    0    0  0.13707484020E+01 -0.58146587463E+01  0.69295636222E+01  0.91492108826E+01  0.51100000000E-03 0.  1.
        -12    1    3    3    0    0 -0.82541303896E+01 -0.16581556941E+02 -0.37832205868E+02  0.42123087492E+02  0.00000000000E+00 0.  1.
</event>
<event>
 7    1  0.2284751E-015  0.9000771E+02  0.7816164E-02  0.1186339E+00
        -11   -1    0    0    0    0  0.00000000000E+00  0.00000000000E+00  0.45593999997E+02  0.45594000000E+02  0.51100000000E-03 0.  1.
         11   -1    0    0    0    0 -0.00000000000E+00 -0.00000000000E+00 -0.45593999997E+02  0.45594000000E+02  0.51100000000E-03 0. -1.
    9900012    2    1    2    0    0 -0.45175653255E-01  0.77965326930E+00 -0.88498094422E+00  0.90007707099E+02  0.89999968033E+02 0.  0.
         12    1    1    2    0    0  0.45175653255E-01 -0.77965326930E+00  0.88498094422E+00  0.11802929008E+01  0.00000000000E+00 0. -1.
         11    1    3    3    0    0 -0.97417377664E+00  0.41933462193E+01  0.63485512821E+01  0.76705456589E+01  0.51100000000E-03 0. -1.
        -11    1    3    3    0    0 -0.29941755123E+02  0.35318326043E+01  0.23499952656E+02  0.38226042386E+02  0.51100000000E-03 0.  1.
         12    1    3    3    0    0  0.30870753246E+02 -0.69455255544E+01 -0.30733484883E+02  0.44111119055E+02  0.00000000000E+00 0. -1.
</event>
<event>
 7    1  0.2284751E-015  0.9000780E+02  0.7816164E-02  0.1186339E+00
        -11   -1    0    0    0    0  0.00000000000E+00  0.00000000000E+00  0.45593999997E+02  0.45594000000E+02  0.51100000000E-03 0.  1.
         11   -1    0    0    0    0 -0.00000000000E+00 -0.00000000000E+00 -0.45593999997E+02  0.45594000000E+02  0.51100000000E-03 0. -1.
    9900012    2    1    2    0    0 -0.37564726981E+00  0.51234319712E-01  0.11176502920E+01  0.90007797474E+02  0.90000059601E+02 0.  0.
         12    1    1    2    0    0  0.37564726981E+00 -0.51234319712E-01 -0.11176502920E+01  0.11802025259E+01  0.00000000000E+00 0. -1.
         11    1    3    3    0    0  0.27122136475E+01 -0.94669022220E+01  0.22772294747E+01  0.10107626571E+02  0.51100000000E-03 0. -1.
        -11    1    3    3    0    0  0.29831380197E+02 -0.19641637956E+02  0.22746242093E+01  0.35789371350E+02  0.51100000000E-03 0.  1.
         12    1    3    3    0    0 -0.32919241114E+02  0.29159774498E+02 -0.34342033920E+01  0.44110799554E+02  0.00000000000E+00 0. -1.
</event>
<event>
 7    1  0.2284751E-015  0.9000808E+02  0.7816164E-02  0.1186338E+00
        -11   -1    0    0    0    0  0.00000000000E+00  0.00000000000E+00  0.45593999997E+02  0.45594000000E+02  0.51100000000E-03 0. -1.
         11   -1    0    0    0    0 -0.00000000000E+00 -0.00000000000E+00 -0.45593999997E+02  0.45594000000E+02  0.51100000000E-03 0.  1.
    9900012    2    1    2    0    0 -0.34325695534E+00 -0.10638945013E+01 -0.37751801523E+00  0.90008077672E+02  0.90000343497E+02 0.  0.
         12    1    1    2    0    0  0.34325695534E+00  0.10638945013E+01  0.37751801523E+00  0.11799223276E+01  0.00000000000E+00 0. -1.
         11    1    3    3    0    0  0.74242663478E+01 -0.34732661200E+01 -0.36256049855E+01  0.89626067701E+01  0.51100000000E-03 0. -1.
        -11    1    3    3    0    0  0.63147514405E+00 -0.30872587823E+02 -0.22440601739E+02  0.38171927466E+02  0.51100000000E-03 0.  1.
         12    1    3    3    0    0 -0.83989984472E+01  0.33281959442E+02  0.25688688709E+02  0.42873543437E+02  0.00000000000E+00 0. -1.
</event>
<event>
 7    1  0.2284751E-015  0.9000783E+02  0.7816164E-02  0.1186339E+00
        -11   -1    0    0    0    0  0.00000000000E+00  0.00000000000E+00  0.45593999997E+02  0.45594000000E+02  0.51100000000E-03 0.  1.
         11   -1    0    0    0    0 -0.00000000000E+00 -0.00000000000E+00 -0.45593999997E+02  0.45594000000E+02  0.51100000000E-03 0. -1.
    9900012    2    1    2    0    0 -0.80775972579E+00  0.78659617695E+00 -0.34869166347E+00  0.90007832556E+02  0.90000095145E+02 0.  0.
         12    1    1    2    0    0  0.80775972579E+00 -0.78659617695E+00  0.34869166347E+00  0.11801674442E+01  0.00000000000E+00 0. -1.
         11    1    3    3    0    0 -0.57354414491E+00  0.33817897691E+01 -0.11341942057E+02  0.11849266003E+02  0.51100000000E-03 0. -1.
        -11    1    3    3    0    0 -0.34046256652E+02  0.16925409864E+02  0.18858669444E+01  0.38068012628E+02  0.51100000000E-03 0.  1.
         12    1    3    3    0    0  0.33812041071E+02 -0.19520603456E+02  0.91073834491E+01  0.40090553924E+02  0.00000000000E+00 0. -1.
</event>
<event>
 7    1  0.2284751E-015  0.9000767E+02  0.7816164E-02  0.1186339E+00
        -11   -1    0    0    0    0  0.00000000000E+00  0.00000000000E+00  0.45593999997E+02  0.45594000000E+02  0.51100000000E-03 0. -1.
         11   -1    0    0    0    0 -0.00000000000E+00 -0.00000000000E+00 -0.45593999997E+02  0.45594000000E+02  0.51100000000E-03 0.  1.
    9900012    2    1    2    0    0 -0.77195531608E-01  0.10564855362E+01  0.52062371618E+00  0.90007673820E+02  0.89999934314E+02 0.  0.
         12    1    1    2    0    0  0.77195531608E-01 -0.10564855362E+01 -0.52062371618E+00  0.11803261804E+01  0.00000000000E+00 0. -1.
         11    1    3    3    0    0  0.24322343685E+02  0.25257939349E+02  0.14600577949E+02  0.37983111763E+02  0.51100000000E-03 0. -1.
        -11    1    3    3    0    0 -0.62345179107E+01  0.33613004883E+01  0.92149446468E+01  0.11622510902E+02  0.51100000000E-03 0.  1.
        -12    1    3    3    0    0 -0.18165021306E+02 -0.27562754301E+02 -0.23294898880E+02  0.40402051155E+02  0.00000000000E+00 0.  1.
</event>
<event>
 7    1  0.2284751E-015  0.9000781E+02  0.7816164E-02  0.1186339E+00
        -11   -1    0    0    0    0  0.00000000000E+00  0.00000000000E+00  0.45593999997E+02  0.45594000000E+02  0.51100000000E-03 0.  1.
         11   -1    0    0    0    0 -0.00000000000E+00 -0.00000000000E+00 -0.45593999997E+02  0.45594000000E+02  0.51100000000E-03 0. -1.
    9900012    2    1    2    0    0  0.86045575040E-01  0.11530293120E+01 -0.23655962171E+00  0.90007813197E+02  0.90000075531E+02 0.  0.
         12    1    1    2    0    0 -0.86045575040E-01 -0.11530293120E+01  0.23655962171E+00  0.11801868029E+01  0.00000000000E+00 0. -1.
         11    1    3    3    0    0 -0.10118115831E+02  0.10542283231E+02 -0.30453021412E+01  0.14926147161E+02  0.51100000000E-03 0. -1.
        -11    1    3    3    0    0 -0.32839928869E+01 -0.23560284006E+02  0.32041406844E+02  0.39906432370E+02  0.51100000000E-03 0.  1.
         12    1    3    3    0    0  0.13488154293E+02  0.14171030087E+02 -0.29232664324E+02  0.35175233666E+02  0.00000000000E+00 0. -1.
</event>
<event>
 7    1  0.2284751E-015  0.9000766E+02  0.7816164E-02  0.1186339E+00
        -11   -1    0    0    0    0  0.00000000000E+00  0.00000000000E+00  0.45593999997E+02  0.45594000000E+02  0.51100000000E-03 0.  1.
         11   -1    0    0    0    0 -0.00000000000E+00 -0.00000000000E+00 -0.45593999997E+02  0.45594000000E+02  0.51100000000E-03 0. -1.
    9900012    2    1    2    0    0  0.60534724860E+00  0.60863265518E+00  0.81013147368E+00  0.90007664452E+02  0.89999924823E+02 0.  0.
         12    1    1    2    0    0 -0.60534724860E+00 -0.60863265518E+00 -0.81013147368E+00  0.11803355476E+01  0.00000000000E+00 0. -1.
         11    1    3    3    0    0 -0.92136866731E+00 -0.56738983612E+01  0.70419161976E+01  0.90901389884E+01  0.51100000000E-03 0. -1.
        -11    1    3    3    0    0  0.64307681431E+01 -0.36606109721E+02  0.82824258269E+00  0.37175906631E+02  0.51100000000E-03 0.  1.
         12    1    3    3    0    0 -0.49040522272E+01  0.42888640737E+02 -0.70600273066E+01  0.43741618833E+02  0.00000000000E+00 0. -1.
</event>
<event>
 7    1  0.2284751E-015  0.9000725E+02  0.7816164E-02  0.1186340E+00
        -11   -1    0    0    0    0  0.00000000000E+00  0.00000000000E+00  0.45593999997E+02  0.45594000000E+02  0.51100000000E-03 0.  1.
         11   -1    0    0    0    0 -0.00000000000E+00 -0.00000000000E+00 -0.45593999997E+02  0.45594000000E+02  0.51100000000E-03 0. -1.
    9900012    2    1    2    0    0  0.97229210251E+00  0.66447485934E+00  0.85355259989E-01  0.90007252655E+02  0.89999507589E+02 0.  0.
         12    1    1    2    0    0 -0.97229210251E+00 -0.66447485934E+00 -0.85355259989E-01  0.11807473446E+01  0.00000000000E+00 0. -1.
         11    1    3    3    0    0 -0.25801080772E+01  0.10127073188E+02 -0.60461114927E+01  0.12073526141E+02  0.51100000000E-03 0. -1.
        -11    1    3    3    0    0  0.28456592930E+02  0.20558927471E+02  0.14595535718E+02  0.38019427180E+02  0.51100000000E-03 0.  1.
         12    1    3    3    0    0 -0.24904192751E+02 -0.30021525799E+02 -0.84640689657E+01  0.39914299334E+02  0.00000000000E+00 0. -1.
</event>
<event>
 7    1  0.2284751E-015  0.9000771E+02  0.7816164E-02  0.1186339E+00
        -11   -1    0    0    0    0  0.00000000000E+00  0.00000000000E+00  0.45593999997E+02  0.45594000000E+02  0.51100000000E-03 0. -1.
         11   -1    0    0    0    0 -0.00000000000E+00 -0.00000000000E+00 -0.45593999997E+02  0.45594000000E+02  0.51100000000E-03 0.  1.
    9900012    2    1    2    0    0  0.59130160928E+00 -0.10187785614E+01  0.74424637485E-01  0.90007709198E+02  0.89999970160E+02 0.  0.
         12    1    1    2    0    0 -0.59130160928E+00  0.10187785614E+01 -0.74424637485E-01  0.11802908019E+01  0.00000000000E+00 0. -1.
         11    1    3    3    0    0 -0.14005824187E+02 -0.27807158007E+02  0.25974144200E+02  0.40546976642E+02  0.51100000000E-03 0. -1.
        -11    1    3    3    0    0  0.25359507766E+01  0.49468521765E+01  0.65093170968E+01  0.85600001242E+01  0.51100000000E-03 0.  1.
        -12    1    3    3    0    0  0.12061175020E+02  0.21841527269E+02 -0.32409036660E+02  0.40900732432E+02  0.00000000000E+00 0.  1.
</event>
<event>
 7    1  0.2284751E-015  0.9000772E+02  0.7816164E-02  0.1186339E+00
        -11   -1    0    0    0    0  0.00000000000E+00  0.00000000000E+00  0.45593999997E+02  0.45594000000E+02  0.51100000000E-03 0.  1.
         11   -1    0    0    0    0 -0.00000000000E+00 -0.00000000000E+00 -0.45593999997E+02  0.45594000000E+02  0.51100000000E-03 0. -1.
    9900012    2    1    2    0    0  0.96785147391E+00  0.40017283688E-01 -0.67433853610E+00  0.90007716000E+02  0.89999977052E+02 0.  0.
         12    1    1    2    0    0 -0.96785147391E+00 -0.40017283688E-01  0.67433853610E+00  0.11802839996E+01  0.00000000000E+00 0. -1.
         11    1    3    3    0    0 -0.37607899940E+01  0.33418868638E+01  0.94437192572E+01  0.10700260878E+02  0.51100000000E-03 0. -1.
        -11    1    3    3    0    0 -0.63962604150E+01  0.36527779257E+02 -0.77556862896E+01  0.37885900739E+02  0.51100000000E-03 0.  1.
         12    1    3    3    0    0  0.11124901883E+02 -0.39829648837E+02 -0.23623715037E+01  0.41421554383E+02  0.00000000000E+00 0. -1.
</event>
<event>
 7    1  0.2284751E-015  0.9000792E+02  0.7816164E-02  0.1186339E+00
        -11   -1    0    0    0    0  0.00000000000E+00  0.00000000000E+00  0.45593999997E+02  0.45594000000E+02  0.51100000000E-03 0. -1.
         11   -1    0    0    0    0 -0.00000000000E+00 -0.00000000000E+00 -0.45593999997E+02  0.45594000000E+02  0.51100000000E-03 0.  1.
    9900012    2    1    2    0    0 -0.82273736777E+00 -0.83566606496E+00 -0.13177857746E+00  0.90007915197E+02  0.90000178878E+02 0.  0.
         12    1    1    2    0    0  0.82273736777E+00  0.83566606496E+00  0.13177857746E+00  0.11800848029E+01  0.00000000000E+00 0. -1.
         11    1    3    3    0    0 -0.52290062243E+01  0.55272570636E+01  0.65671238440E+01  0.10050880190E+02  0.51100000000E-03 0. -1.
        -11    1    3    3    0    0  0.34736748686E+02  0.94229142637E+01  0.15502729916E+02  0.39188871604E+02  0.51100000000E-03 0.  1.
         12    1    3    3    0    0 -0.30330479829E+02 -0.15785837392E+02 -0.22201632338E+02  0.40768163404E+02  0.00000000000E+00 0. -1.
</event>
<event>
 7    1  0.2284751E-015  0.9000769E+02  0.7816164E-02  0.1186339E+00
        -11   -1    0    0    0    0  0.00000000000E+00  0.00000000000E+00  0.45593999997E+02  0.45594000000E+02  0.51100000000E-03 0. -1.
         11   -1    0    0    0    0 -0.00000000000E+00 -0.00000000000E+00 -0.45593999997E+02  0.45594000000E+02  0.51100000000E-03 0.  1.
    9900012    2    1    2    0    0 -0.98873474864E+00 -0.15638177039E+00 -0.62536219535E+00  0.90007690915E+02  0.89999951635E+02 0.  0.
         12    1    1    2    0    0  0.98873474864E+00  0.15638177039E+00  0.62536219535E+00  0.11803090852E+01  0.00000000000E+00 0. -1.
         11    1    3    3    0    0 -0.22751851427E+02 -0.30822523322E+02  0.19930277264E+02  0.43184379576E+02  0.51100000000E-03 0. -1.
        -11    1    3    3    0    0 -0.21326304492E+01  0.24967651561E+01 -0.65331567852E+01  0.73119140257E+01  0.51100000000E-03 0.  1.
        -12    1    3    3    0    0  0.23895747128E+02  0.28169376395E+02 -0.14022482674E+02  0.39511397313E+02  0.00000000000E+00 0.  1.
</event>
<event>
 7    1  0.2284751E-015  0.9000757E+02  0.7816164E-02  0.1186339E+00
        -11   -1    0    0    0    0  0.00000000000E+00  0.00000000000E+00  0.45593999997E+02  0.45594000000E+02  0.51100000000E-03 0. -1.
         11   -1    0    0    0    0 -0.00000000000E+00 -0.00000000000E+00 -0.45593999997E+02  0.45594000000E+02  0.51100000000E-03 0.  1.
    9900012    2    1    2    0    0  0.27528467286E+00  0.25810942171E+00 -0.11184879731E+01  0.90007568947E+02  0.89999828057E+02 0.  0.
         12    1    1    2    0    0 -0.27528467286E+00 -0.25810942171E+00  0.11184879731E+01  0.11804310529E+01  0.00000000000E+00 0. -1.
         11    1    3    3    0    0 -0.22534044075E+02  0.25994177511E+02  0.10013845662E+02  0.35829561985E+02  0.51100000000E-03 0. -1.
        -11    1    3    3    0    0  0.35536763030E+01  0.65721746614E+01  0.88549164097E+01  0.11585837904E+02  0.51100000000E-03 0.  1.
        -12    1    3    3    0    0  0.19255652444E+02 -0.32308242751E+02 -0.19987250045E+02  0.42592169058E+02  0.00000000000E+00 0.  1.
</event>
<event>
 7    1  0.2284751E-015  0.9000775E+02  0.7816164E-02  0.1186339E+00
        -11   -1    0    0    0    0  0.00000000000E+00  0.00000000000E+00  0.45593999997E+02  0.45594000000E+02  0.51100000000E-03 0.  1.
         11   -1    0    0    0    0 -0.00000000000E+00 -0.00000000000E+00 -0.45593999997E+02  0.45594000000E+02  0.51100000000E-03 0. -1.
    9900012    2    1    2    0    0  0.47434141798E+00 -0.10335975113E+01  0.31570634230E+00  0.90007748293E+02  0.90000009771E+02 0.  0.
         12    1    1    2    0    0 -0.47434141798E+00  0.10335975113E+01 -0.31570634230E+00  0.11802517065E+01  0.00000000000E+00 0. -1.
         11    1    3    3    0    0 -0.75976531311E+01  0.29497638807E+02  0.41937847129E+01  0.30747729327E+02  0.51100000000E-03 0. -1.
        -11    1    3    3    0    0  0.87793898418E+01 -0.76737246000E+01  0.21893556672E+02  0.24805071240E+02  0.51100000000E-03 0.  1.
        -12    1    3    3    0    0 -0.70739529273E+00 -0.22857511718E+02 -0.25771635043E+02  0.34454947726E+02  0.00000000000E+00 0.  1.
</event>
<event>
 7    1  0.2284751E-015  0.9000777E+02  0.7816164E-02  0.1186339E+00
        -11   -1    0    0    0    0  0.00000000000E+00  0.00000000000E+00  0.45593999997E+02  0.45594000000E+02  0.51100000000E-03 0.  1.
         11   -1    0    0    0    0 -0.00000000000E+00 -0.00000000000E+00 -0.45593999997E+02  0.45594000000E+02  0.51100000000E-03 0. -1.
    9900012    2    1    2    0    0 -0.11136192490E+01 -0.27579602779E+00  0.27700669843E+00  0.90007769518E+02  0.90000031275E+02 0.  0.
         12    1    1    2    0    0  0.11136192490E+01  0.27579602779E+00 -0.27700669843E+00  0.11802304825E+01  0.00000000000E+00 0. -1.
         11    1    3    3    0    0 -0.12359377549E+01 -0.31635895477E+01 -0.92795113410E+01  0.98815571622E+01  0.51100000000E-03 0. -1.
        -11    1    3    3    0    0 -0.19451909927E+02  0.21138291893E+02  0.33560516753E+02  0.44175926351E+02  0.51100000000E-03 0.  1.
         12    1    3    3    0    0  0.19574228432E+02 -0.18250498373E+02 -0.24003998714E+02  0.35950286005E+02  0.00000000000E+00 0. -1.
</event>
<event>
 7    1  0.2284751E-015  0.9000776E+02  0.7816164E-02  0.1186339E+00
        -11   -1    0    0    0    0  0.00000000000E+00  0.00000000000E+00  0.45593999997E+02  0.45594000000E+02  0.51100000000E-03 0.  1.
         11   -1    0    0    0    0 -0.00000000000E+00 -0.00000000000E+00 -0.45593999997E+02  0.45594000000E+02  0.51100000000E-03 0. -1.
    9900012    2    1    2    0    0 -0.41915701218E-01  0.40596624826E+00  0.11074261460E+01  0.90007763503E+02  0.90000025181E+02 0.  0.
         12    1    1    2    0    0  0.41915701218E-01 -0.40596624826E+00 -0.11074261460E+01  0.11802364973E+01  0.00000000000E+00 0. -1.
         11    1    3    3    0    0  0.50037692802E+01  0.34366646278E+00  0.63138559627E+01  0.80635346484E+01  0.51100000000E-03 0. -1.
        -11    1    3    3    0    0  0.95728060451E+00  0.49163316594E+01  0.37860747130E+02  0.38190612416E+02  0.51100000000E-03 0.  1.
         12    1    3    3    0    0 -0.60029655859E+01 -0.48540318740E+01 -0.43067176947E+02  0.43753616439E+02  0.00000000000E+00 0. -1.
</event>
<event>
 7    1  0.2284751E-015  0.9000773E+02  0.7816164E-02  0.1186339E+00
        -11   -1    0    0    0    0  0.00000000000E+00  0.00000000000E+00  0.45593999997E+02  0.45594000000E+02  0.51100000000E-03 0.  1.
         11   -1    0    0    0    0 -0.00000000000E+00 -0.00000000000E+00 -0.45593999997E+02  0.45594000000E+02  0.51100000000E-03 0. -1.
    9900012    2    1    2    0    0  0.38843320299E+00  0.91175411609E+00  0.64098622062E+00  0.90007729160E+02  0.89999990385E+02 0.  0.
         12    1    1    2    0    0 -0.38843320299E+00 -0.91175411609E+00 -0.64098622062E+00  0.11802708403E+01  0.00000000000E+00 0. -1.
         11    1    3    3    0    0  0.31960194484E+02 -0.13995816608E+02 -0.20122519400E+02  0.40277198279E+02  0.51100000000E-03 0. -1.
        -11    1    3    3    0    0 -0.13562950085E+02 -0.45930876417E+01 -0.23773689447E+01  0.14515576201E+02  0.51100000000E-03 0.  1.
        -12    1    3    3    0    0 -0.18008811196E+02  0.19500658366E+02  0.23140874565E+02  0.35214954679E+02  0.00000000000E+00 0.  1.
</event>
<event>
 7    1  0.2284751E-015  0.9000782E+02  0.7816164E-02  0.1186339E+00
        -11   -1    0    0    0    0  0.00000000000E+00  0.00000000000E+00  0.45593999997E+02  0.45594000000E+02  0.51100000000E-03 0. -1.
         11   -1    0    0    0    0 -0.00000000000E+00 -0.00000000000E+00 -0.45593999997E+02  0.45594000000E+02  0.51100000000E-03 0.  1.
    9900012    2    1    2    0    0  0.89472614940E+00 -0.33396388549E+00 -0.69337307476E+00  0.90007816548E+02  0.90000078927E+02 0.  0.
         12    1    1    2    0    0 -0.89472614940E+00  0.33396388549E+00  0.69337307476E+00  0.11801834519E+01  0.00000000000E+00 0. -1.
         11    1    3    3    0    0 -0.64297432658E+01 -0.64423217214E+01  0.44554296641E+00  0.91128270269E+01  0.51100000000E-03 0. -1.
        -11    1    3    3    0    0 -0.35246892667E+02  0.65839741462E+01 -0.10381670793E+02  0.37329227784E+02  0.51100000000E-03 0.  1.
         12    1    3    3    0    0  0.42571362082E+02 -0.47561631032E+00  0.92427547514E+01  0.43565761738E+02  0.00000000000E+00 0. -1.
</event>
<event>
 7    1  0.2284751E-015  0.9000772E+02  0.7816164E-02  0.1186339E+00
        -11   -1    0    0    0    0  0.00000000000E+00  0.00000000000E+00  0.45593999997E+02  0.45594000000E+02  0.51100000000E-03 0.  1.
         11   -1    0    0    0    0 -0.00000000000E+00 -0.00000000000E+00 -0.45593999997E+02  0.45594000000E+02  0.51100000000E-03 0. -1.
    9900012    2    1    2    0    0  0.60258836454E+00 -0.99955947006E+00  0.17555206935E+00  0.90007724439E+02  0.89999985601E+02 0.  0.
         12    1    1    2    0    0 -0.60258836454E+00  0.99955947006E+00 -0.17555206935E+00  0.11802755612E+01  0.00000000000E+00 0. -1.
         11    1    3    3    0    0  0.95137017937E+01  0.15756757384E+01  0.23936165429E+02  0.25805683319E+02  0.51100000000E-03 0. -1.
        -11    1    3    3    0    0 -0.90864143134E+01  0.27766514306E+02 -0.99362534083E+01  0.30858894566E+02  0.51100000000E-03 0.  1.
         12    1    3    3    0    0  0.17530088426E+00 -0.30341749515E+02 -0.13824359952E+02  0.33343146553E+02  0.00000000000E+00 0. -1.
</event>
<event>
 7    1  0.2284751E-015  0.9000772E+02  0.7816164E-02  0.1186339E+00
        -11   -1    0    0    0    0  0.00000000000E+00  0.00000000000E+00  0.45593999997E+02  0.45594000000E+02  0.51100000000E-03 0. -1.
         11   -1    0    0    0    0 -0.00000000000E+00 -0.00000000000E+00 -0.45593999997E+02  0.45594000000E+02  0.51100000000E-03 0.  1.
    9900012    2    1    2    0    0 -0.28242927803E-01 -0.11159533048E+00 -0.11746534068E+01  0.90007719607E+02  0.89999980705E+02 0.  0.
         12    1    1    2    0    0  0.28242927803E-01  0.11159533048E+00  0.11746534068E+01  0.11802803933E+01  0.00000000000E+00 0. -1.
         11    1    3    3    0    0 -0.12833743696E+02 -0.14362652329E+02 -0.51832885459E+01  0.19946359056E+02  0.51100000000E-03 0. -1.
        -11    1    3    3    0    0 -0.32855806411E+01 -0.16432381367E+02 -0.21338919172E+02  0.27132409941E+02  0.51100000000E-03 0.  1.
         12    1    3    3    0    0  0.16091081409E+02  0.30683438365E+02  0.25347554311E+02  0.42928950609E+02  0.00000000000E+00 0. -1.
</event>
<event>
 7    1  0.2284751E-015  0.9000773E+02  0.7816164E-02  0.1186339E+00
        -11   -1    0    0    0    0  0.00000000000E+00  0.00000000000E+00  0.45593999997E+02  0.45594000000E+02  0.51100000000E-03 0.  1.
         11   -1    0    0    0    0 -0.00000000000E+00 -0.00000000000E+00 -0.45593999997E+02  0.45594000000E+02  0.51100000000E-03 0. -1.
    9900012    2    1    2    0    0 -0.10637551033E+01 -0.51099526080E+00 -0.18630007834E-01  0.90007729627E+02  0.89999990858E+02 0.  0.
         12    1    1    2    0    0  0.10637551033E+01  0.51099526080E+00  0.18630007834E-01  0.11802703730E+01  0.00000000000E+00 0. -1.
         11    1    3    3    0    0  0.55683608351E+01 -0.72412703264E+01 -0.16626827462E+01  0.92847806924E+01  0.51100000000E-03 0. -1.
        -11    1    3    3    0    0  0.26243240838E+02  0.21444093309E+02  0.20964340893E+02  0.39850475742E+02  0.51100000000E-03 0.  1.
         12    1    3    3    0    0 -0.32875356777E+02 -0.14713818243E+02 -0.19320288155E+02  0.40872473192E+02  0.00000000000E+00 0. -1.
</event>
<event>
 7    1  0.2284751E-015  0.9000707E+02  0.7816164E-02  0.1186340E+00
        -11   -1    0    0    0    0  0.00000000000E+00  0.00000000000E+00  0.45593999997E+02  0.45594000000E+02  0.51100000000E-03 0.  1.
         11   -1    0    0    0    0 -0.00000000000E+00 -0.00000000000E+00 -0.45593999997E+02  0.45594000000E+02  0.51100000000E-03 0. -1.
    9900012    2    1    2    0    0  0.10810238214E+01 -0.32000732957E+00  0.35153866037E+00  0.90007069594E+02  0.89999322110E+02 0.  0.
         12    1    1    2    0    0 -0.10810238214E+01  0.32000732957E+00 -0.35153866037E+00  0.11809304057E+01  0.00000000000E+00 0. -1.
         11    1    3    3    0    0  0.18875552026E+02 -0.96155913241E+01 -0.33365512822E+02  0.39522190057E+02  0.51100000000E-03 0. -1.
        -11    1    3    3    0    0  0.58501690289E+01 -0.62175369310E+01  0.38861583010E+01  0.93800037183E+01  0.51100000000E-03 0.  1.
        -12    1    3    3    0    0 -0.23644697234E+02  0.15513120926E+02  0.29830893181E+02  0.41104875819E+02  0.00000000000E+00 0.  1.
</event>
<event>
 7    1  0.2284751E-015  0.9000779E+02  0.7816164E-02  0.1186339E+00
        -11   -1    0    0    0    0  0.00000000000E+00  0.00000000000E+00  0.45593999997E+02  0.45594000000E+02  0.51100000000E-03 0.  1.
         11   -1    0    0    0    0 -0.00000000000E+00 -0.00000000000E+00 -0.45593999997E+02  0.45594000000E+02  0.51100000000E-03 0. -1.
    9900012    2    1    2    0    0 -0.13933273607E+00 -0.63634356179E+00  0.98414708674E+00  0.90007791447E+02  0.90000053494E+02 0.  0.
         12    1    1    2    0    0  0.13933273607E+00  0.63634356179E+00 -0.98414708674E+00  0.11802085529E+01  0.00000000000E+00 0. -1.
         11    1    3    3    0    0  0.76759230746E+01  0.41496995804E+01  0.28099923296E+01  0.91671074395E+01  0.51100000000E-03 0. -1.
        -11    1    3    3    0    0 -0.11871015084E+02  0.36937259660E+02 -0.29076320474E+01  0.38906766439E+02  0.51100000000E-03 0.  1.
         12    1    3    3    0    0  0.40557592737E+01 -0.41723302802E+02  0.10817868045E+01  0.41933917569E+02  0.00000000000E+00 0. -1.
</event>
<event>
 7    1  0.2284751E-015  0.9000771E+02  0.7816164E-02  0.1186339E+00
        -11   -1    0    0    0    0  0.00000000000E+00  0.00000000000E+00  0.45593999997E+02  0.45594000000E+02  0.51100000000E-03 0.  1.
         11   -1    0    0    0    0 -0.00000000000E+00 -0.00000000000E+00 -0.45593999997E+02  0.45594000000E+02  0.51100000000E-03 0. -1.
    9900012    2    1    2    0    0 -0.10438902895E+01  0.45608345179E+00  0.30880857193E+00  0.90007711143E+02  0.89999972130E+02 0.  0.
         12    1    1    2    0    0  0.10438902895E+01 -0.45608345179E+00 -0.30880857193E+00  0.11802888568E+01  0.00000000000E+00 0. -1.
         11    1    3    3    0    0  0.18912969372E+02 -0.11576157034E+02 -0.89304237134E+01  0.23905235621E+02  0.51100000000E-03 0. -1.
        -11    1    3    3    0    0  0.26151105196E+01 -0.18893500299E+02  0.18649519780E+02  0.26675976924E+02  0.51100000000E-03 0.  1.
        -12    1    3    3    0    0 -0.22571970181E+02  0.30925740785E+02 -0.94102874946E+01  0.39426498598E+02  0.00000000000E+00 0.  1.
</event>
<event>
 7    1  0.2284751E-015  0.9000772E+02  0.7816164E-02  0.1186339E+00
        -11   -1    0    0    0    0  0.00000000000E+00  0.00000000000E+00  0.45593999997E+02  0.45594000000E+02  0.51100000000E-03 0.  1.
         11   -1    0    0    0    0 -0.00000000000E+00 -0.00000000000E+00 -0.45593999997E+02  0.45594000000E+02  0.51100000000E-03 0. -1.
    9900012    2    1    2    0    0  0.34234034575E+00  0.71145281672E+00  0.87733121464E+00  0.90007715253E+02  0.89999976295E+02 0.  0.
         12    1    1    2    0    0 -0.34234034575E+00 -0.71145281672E+00 -0.87733121464E+00  0.11802847465E+01  0.00000000000E+00 0. -1.
         11    1    3    3    0    0  0.11618863479E+02 -0.26367452580E+01 -0.38002927432E+01  0.12505704270E+02  0.51100000000E-03 0. -1.
        -11    1    3    3    0    0 -0.83256959096E+01 -0.29449725017E+02  0.24379795751E+02  0.39127713415E+02  0.51100000000E-03 0.  1.
         12    1    3    3    0    0 -0.29508272238E+01  0.32797923092E+02 -0.19702171793E+02  0.38374297568E+02  0.00000000000E+00 0. -1.
</event>
<event>
 7    1  0.2284751E-015  0.9000774E+02  0.7816164E-02  0.1186339E+00
        -11   -1    0    0    0    0  0.00000000000E+00  0.00000000000E+00  0.45593999997E+02  0.45594000000E+02  0.51100000000E-03 0.  1.
         11   -1    0    0    0    0 -0.00000000000E+00 -0.00000000000E+00 -0.45593999997E+02  0.45594000000E+02  0.51100000000E-03 0. -1.
    9900012    2    1    2    0    0  0.20980526636E+00 -0.76118080081E-01  0.11589616802E+01  0.90007743931E+02  0.90000005351E+02 0.  0.
         12    1    1    2    0    0 -0.20980526636E+00  0.76118080081E-01 -0.11589616802E+01  0.11802560689E+01  0.00000000000E+00 0. -1.
         11    1    3    3    0    0 -0.64415363680E+01 -0.27231440509E+02 -0.26165434499E+02  0.38310242831E+02  0.51100000000E-03 0. -1.
        -11    1    3    3    0    0 -0.77989572734E+01 -0.25108537934E+01 -0.94276274389E+00  0.82472373057E+01  0.51100000000E-03 0.  1.
        -12    1    3    3    0    0  0.14450298908E+02  0.29666176223E+02  0.28267158923E+02  0.43450263794E+02  0.00000000000E+00 0.  1.
</event>
<event>
 7    1  0.2284751E-015  0.9000773E+02  0.7816164E-02  0.1186339E+00
        -11   -1    0    0    0    0  0.00000000000E+00  0.00000000000E+00  0.45593999997E+02  0.45594000000E+02  0.51100000000E-03 0. -1.
         11   -1    0    0    0    0 -0.00000000000E+00 -0.00000000000E+00 -0.45593999997E+02  0.45594000000E+02  0.51100000000E-03 0.  1.
    9900012    2    1    2    0    0  0.15202987397E-01 -0.10511864962E+01 -0.53648119147E+00  0.90007730434E+02  0.89999991675E+02 0.  0.
         12    1    1    2    0    0 -0.15202987397E-01  0.10511864962E+01  0.53648119147E+00  0.11802695665E+01  0.00000000000E+00 0. -1.
         11    1    3    3    0    0  0.83516462039E+01  0.10206050896E+01  0.38651788979E+01  0.92591164393E+01  0.51100000000E-03 0. -1.
        -11    1    3    3    0    0  0.11983790423E+02  0.34210482595E+02 -0.12575057873E+02  0.38367961023E+02  0.51100000000E-03 0.  1.
         12    1    3    3    0    0 -0.20320233640E+02 -0.36282274181E+02  0.81733977838E+01  0.42380652971E+02  0.00000000000E+00 0. -1.
</event>
<event>
 7    1  0.2284751E-015  0.9000761E+02  0.7816164E-02  0.1186339E+00
        -11   -1    0    0    0    0  0.00000000000E+00  0.00000000000E+00  0.45593999997E+02  0.45594000000E+02  0.51100000000E-03 0.  1.
         11   -1    0    0    0    0 -0.00000000000E+00 -0.00000000000E+00 -0.45593999997E+02  0.45594000000E+02  0.51100000000E-03 0. -1.
    9900012    2    1    2    0    0 -0.60213258069E+00  0.84665602085E+00 -0.56030315522E+00  0.90007606130E+02  0.89999865731E+02 0.  0.
         12    1    1    2    0    0  0.60213258069E+00 -0.84665602085E+00  0.56030315522E+00  0.11803938699E+01  0.00000000000E+00 0. -1.
         11    1    3    3    0    0 -0.21994935397E+02 -0.81965935615E+01 -0.74996310504E+01  0.24641546122E+02  0.51100000000E-03 0. -1.
        -11    1    3    3    0    0  0.33914419439E+01 -0.24720446441E+02 -0.46608190485E+01  0.25383569197E+02  0.51100000000E-03 0.  1.
         12    1    3    3    0    0  0.18001360872E+02  0.33763696023E+02  0.11600146944E+02  0.39982490812E+02  0.00000000000E+00 0. -1.
</event>
<event>
 7    1  0.2284751E-015  0.9000773E+02  0.7816164E-02  0.1186339E+00
        -11   -1    0    0    0    0  0.00000000000E+00  0.00000000000E+00  0.45593999997E+02  0.45594000000E+02  0.51100000000E-03 0.  1.
         11   -1    0    0    0    0 -0.00000000000E+00 -0.00000000000E+00 -0.45593999997E+02  0.45594000000E+02  0.51100000000E-03 0. -1.
    9900012    2    1    2    0    0 -0.62653440868E+00 -0.99930248038E+00 -0.43525968549E-01  0.90007726590E+02  0.89999987781E+02 0.  0.
         12    1    1    2    0    0  0.62653440868E+00  0.99930248038E+00  0.43525968549E-01  0.11802734101E+01  0.00000000000E+00 0. -1.
         11    1    3    3    0    0  0.23848267612E+01  0.31977193659E+02 -0.16435559968E+02  0.36032706597E+02  0.51100000000E-03 0. -1.
        -11    1    3    3    0    0 -0.30041705280E+01  0.81238446127E+01  0.84770397008E+01  0.12119492324E+02  0.51100000000E-03 0.  1.
        -12    1    3    3    0    0 -0.71906418388E-02 -0.41100340752E+02  0.79149942983E+01  0.41855527668E+02  0.00000000000E+00 0.  1.
</event>
<event>
 7    1  0.2284751E-015  0.9000785E+02  0.7816164E-02  0.1186339E+00
        -11   -1    0    0    0    0  0.00000000000E+00  0.00000000000E+00  0.45593999997E+02  0.45594000000E+02  0.51100000000E-03 0. -1.
         11   -1    0    0    0    0 -0.00000000000E+00 -0.00000000000E+00 -0.45593999997E+02  0.45594000000E+02  0.51100000000E-03 0.  1.
    9900012    2    1    2    0    0  0.11191587269E+01  0.20507398299E+00 -0.31332588558E+00  0.90007853948E+02  0.90000116820E+02 0.  0.
         12    1    1    2    0    0 -0.11191587269E+01 -0.20507398299E+00  0.31332588558E+00  0.11801460524E+01  0.00000000000E+00 0. -1.
         11    1    3    3    0    0  0.70023882875E+01  0.65003172332E+01  0.33572874711E+01  0.10127139047E+02  0.51100000000E-03 0. -1.
        -11    1    3    3    0    0 -0.35420240985E+02  0.18951239659E+02 -0.73943595649E+01  0.40846291259E+02  0.51100000000E-03 0.  1.
         12    1    3    3    0    0  0.29537011424E+02 -0.25246482909E+02  0.37237462082E+01  0.39034423641E+02  0.00000000000E+00 0. -1.
</event>
<event>
 7    1  0.2284751E-015  0.9000778E+02  0.7816164E-02  0.1186339E+00
        -11   -1    0    0    0    0  0.00000000000E+00  0.00000000000E+00  0.45593999997E+02  0.45594000000E+02  0.51100000000E-03 0.  1.
         11   -1    0    0    0    0 -0.00000000000E+00 -0.00000000000E+00 -0.45593999997E+02  0.45594000000E+02  0.51100000000E-03 0. -1.
    9900012    2    1    2    0    0 -0.47591209559E+00 -0.33099334753E+00  0.10280451688E+01  0.90007777230E+02  0.90000039089E+02 0.  0.
         12    1    1    2    0    0  0.47591209559E+00  0.33099334753E+00 -0.10280451688E+01  0.11802227705E+01  0.00000000000E+00 0. -1.
         11    1    3    3    0    0  0.86950964732E+01  0.32899225188E+01  0.65796200608E+01  0.11389455354E+02  0.51100000000E-03 0. -1.
        -11    1    3    3    0    0 -0.68295815928E+01  0.36175873100E+02  0.55617892582E+01  0.37232653401E+02  0.51100000000E-03 0.  1.
         12    1    3    3    0    0 -0.23414269760E+01 -0.39796788966E+02 -0.11113364150E+02  0.41385668474E+02  0.00000000000E+00 0. -1.
</event>
<event>
 7    1  0.2284751E-015  0.9000774E+02  0.7816164E-02  0.1186339E+00
        -11   -1    0    0    0    0  0.00000000000E+00  0.00000000000E+00  0.45593999997E+02  0.45594000000E+02  0.51100000000E-03 0. -1.
         11   -1    0    0    0    0 -0.00000000000E+00 -0.00000000000E+00 -0.45593999997E+02  0.45594000000E+02  0.51100000000E-03 0.  1.
    9900012    2    1    2    0    0  0.45370964156E+00  0.10478602676E+01  0.29859686787E+00  0.90007735763E+02  0.89999997075E+02 0.  0.
         12    1    1    2    0    0 -0.45370964156E+00 -0.10478602676E+01 -0.29859686787E+00  0.11802642369E+01  0.00000000000E+00 0. -1.
         11    1    3    3    0    0  0.34178777664E+02 -0.11703829816E+02  0.12028244659E+02  0.38076858389E+02  0.51100000000E-03 0. -1.
        -11    1    3    3    0    0  0.24538266706E+01 -0.74689112166E+01  0.22722161904E+01  0.81834507861E+01  0.51100000000E-03 0.  1.
        -12    1    3    3    0    0 -0.36178894693E+02  0.20220601300E+02 -0.14001863981E+02  0.43747426588E+02  0.00000000000E+00 0.  1.
</event>
<event>
 7    1  0.2284751E-015  0.9000766E+02  0.7816164E-02  0.1186339E+00
        -11   -1    0    0    0    0  0.00000000000E+00  0.00000000000E+00  0.45593999997E+02  0.45594000000E+02  0.51100000000E-03 0.  1.
         11   -1    0    0    0    0 -0.00000000000E+00 -0.00000000000E+00 -0.45593999997E+02  0.45594000000E+02  0.51100000000E-03 0. -1.
    9900012    2    1    2    0    0 -0.10191994760E+01 -0.53054130897E-01 -0.59298044591E+00  0.90007657625E+02  0.89999917906E+02 0.  0.
         12    1    1    2    0    0  0.10191994760E+01  0.53054130897E-01  0.59298044591E+00  0.11803423749E+01  0.00000000000E+00 0. -1.
         11    1    3    3    0    0  0.67935680819E+01  0.62467692474E+01  0.11517710011E+02  0.14759144198E+02  0.51100000000E-03 0. -1.
        -11    1    3    3    0    0 -0.16832608781E+02  0.21701913134E+02  0.18248101604E+02  0.32974277315E+02  0.51100000000E-03 0.  1.
         12    1    3    3    0    0  0.90198412228E+01 -0.28001736513E+02 -0.30358792061E+02  0.42274236111E+02  0.00000000000E+00 0. -1.
</event>
<event>
 7    1  0.2284751E-015  0.9000778E+02  0.7816164E-02  0.1186339E+00
        -11   -1    0    0    0    0  0.00000000000E+00  0.00000000000E+00  0.45593999997E+02  0.45594000000E+02  0.51100000000E-03 0.  1.
         11   -1    0    0    0    0 -0.00000000000E+00 -0.00000000000E+00 -0.45593999997E+02  0.45594000000E+02  0.51100000000E-03 0. -1.
    9900012    2    1    2    0    0 -0.38883616777E-01  0.89914584731E+00  0.76350956603E+00  0.90007778814E+02  0.90000040694E+02 0.  0.
         12    1    1    2    0    0  0.38883616777E-01 -0.89914584731E+00 -0.76350956603E+00  0.11802211860E+01  0.00000000000E+00 0. -1.
         11    1    3    3    0    0  0.39159913517E+02  0.72316639400E+01  0.85302223623E+01  0.40725427975E+02  0.51100000000E-03 0. -1.
        -11    1    3    3    0    0 -0.10620621317E+00 -0.85367945079E+01  0.23243753117E+01  0.88482123099E+01  0.51100000000E-03 0.  1.
        -12    1    3    3    0    0 -0.39092590920E+02  0.22042764152E+01 -0.10091088108E+02  0.40434138529E+02  0.00000000000E+00 0.  1.
</event>
<event>
 7    1  0.2284751E-015  0.9000773E+02  0.7816164E-02  0.1186339E+00
        -11   -1    0    0    0    0  0.00000000000E+00  0.00000000000E+00  0.45593999997E+02  0.45594000000E+02  0.51100000000E-03 0. -1.
         11   -1    0    0    0    0 -0.00000000000E+00 -0.00000000000E+00 -0.45593999997E+02  0.45594000000E+02  0.51100000000E-03 0.  1.
    9900012    2    1    2    0    0 -0.35522210390E+00  0.10654641549E+01 -0.36282896840E+00  0.90007728222E+02  0.89999989435E+02 0.  0.
         12    1    1    2    0    0  0.35522210390E+00 -0.10654641549E+01  0.36282896840E+00  0.11802717775E+01  0.00000000000E+00 0. -1.
         11    1    3    3    0    0 -0.26858124973E+02 -0.24803459363E+02  0.11822387235E+01  0.36578247116E+02  0.51100000000E-03 0. -1.
        -11    1    3    3    0    0  0.27059415868E+01 -0.89376852872E+01 -0.58925463987E+01  0.11042030678E+02  0.51100000000E-03 0.  1.
        -12    1    3    3    0    0  0.23796961282E+02  0.34806608805E+02  0.43474787069E+01  0.42387450429E+02  0.00000000000E+00 0.  1.
</event>
<event>
 7    1  0.2284751E-015  0.9000774E+02  0.7816164E-02  0.1186339E+00
        -11   -1    0    0    0    0  0.00000000000E+00  0.00000000000E+00  0.45593999997E+02  0.45594000000E+02  0.51100000000E-03 0.  1.
         11   -1    0    0    0    0 -0.00000000000E+00 -0.00000000000E+00 -0.45593999997E+02  0.45594000000E+02  0.51100000000E-03 0. -1.
    9900012    2    1    2    0    0  0.85522938058E+00 -0.81033799712E+00  0.70424545185E-01  0.90007735377E+02  0.89999996684E+02 0.  0.
         12    1    1    2    0    0 -0.85522938058E+00  0.81033799712E+00 -0.70424545185E-01  0.11802646227E+01  0.00000000000E+00 0. -1.
         11    1    3    3    0    0  0.28694490130E+01  0.22817167293E+01  0.11004156004E+02  0.11598767973E+02  0.51100000000E-03 0. -1.
        -11    1    3    3    0    0  0.56815523098E+01 -0.18722824439E+02  0.28917978881E+02  0.34915235850E+02  0.51100000000E-03 0.  1.
         12    1    3    3    0    0 -0.76957719422E+01  0.15630769713E+02 -0.39851710339E+02  0.43493731555E+02  0.00000000000E+00 0. -1.
</event>
<event>
 7    1  0.2284751E-015  0.9000836E+02  0.7816164E-02  0.1186338E+00
        -11   -1    0    0    0    0  0.00000000000E+00  0.00000000000E+00  0.45593999997E+02  0.45594000000E+02  0.51100000000E-03 0.  1.
         11   -1    0    0    0    0 -0.00000000000E+00 -0.00000000000E+00 -0.45593999997E+02  0.45594000000E+02  0.51100000000E-03 0. -1.
    9900012    2    1    2    0    0  0.72998466819E+00 -0.92371217168E+00  0.73663920090E-01  0.90008361002E+02  0.90000630565E+02 0.  0.
         12    1    1    2    0    0 -0.72998466819E+00  0.92371217168E+00 -0.73663920090E-01  0.11796389978E+01  0.00000000000E+00 0. -1.
         11    1    3    3    0    0 -0.39953405958E+01 -0.16474023326E+01 -0.11021108560E+02  0.11838138159E+02  0.51100000000E-03 0. -1.
        -11    1    3    3    0    0  0.21146450736E+02 -0.24221382071E+02  0.29041899823E+02  0.43327585597E+02  0.51100000000E-03 0.  1.
         12    1    3    3    0    0 -0.16421125472E+02  0.24945072231E+02 -0.17947127343E+02  0.34842637246E+02  0.00000000000E+00 0. -1.
</event>
<event>
 7    1  0.2284751E-015  0.9000774E+02  0.7816164E-02  0.1186339E+00
        -11   -1    0    0    0    0  0.00000000000E+00  0.00000000000E+00  0.45593999997E+02  0.45594000000E+02  0.51100000000E-03 0.  1.
         11   -1    0    0    0    0 -0.00000000000E+00 -0.00000000000E+00 -0.45593999997E+02  0.45594000000E+02  0.51100000000E-03 0. -1.
    9900012    2    1    2    0    0  0.11756736118E+01  0.76900038096E-01 -0.69878784885E-01  0.90007743629E+02  0.90000005045E+02 0.  0.
         12    1    1    2    0    0 -0.11756736118E+01 -0.76900038096E-01  0.69878784885E-01  0.11802563713E+01  0.00000000000E+00 0. -1.
         11    1    3    3    0    0 -0.30274655724E+00  0.93811017270E+01 -0.39892466068E+01  0.10198569206E+02  0.51100000000E-03 0. -1.
        -11    1    3    3    0    0 -0.57911342228E+01  0.27384618791E+02  0.24430235876E+02  0.37152267860E+02  0.51100000000E-03 0.  1.
         12    1    3    3    0    0  0.72695543918E+01 -0.36688820480E+02 -0.20510868054E+02  0.42656906564E+02  0.00000000000E+00 0. -1.
</event>
<event>
 7    1  0.2284751E-015  0.9000757E+02  0.7816164E-02  0.1186339E+00
        -11   -1    0    0    0    0  0.00000000000E+00  0.00000000000E+00  0.45593999997E+02  0.45594000000E+02  0.51100000000E-03 0. -1.
         11   -1    0    0    0    0 -0.00000000000E+00 -0.00000000000E+00 -0.45593999997E+02  0.45594000000E+02  0.51100000000E-03 0.  1.
    9900012    2    1    2    0    0 -0.68430411412E+00  0.85764751681E+00 -0.43540993498E+00  0.90007570758E+02  0.89999829892E+02 0.  0.
         12    1    1    2    0    0  0.68430411412E+00 -0.85764751681E+00  0.43540993498E+00  0.11804292419E+01  0.00000000000E+00 0. -1.
         11    1    3    3    0    0 -0.13683742385E+02 -0.81497470825E+01  0.40758349460E+02  0.43759641613E+02  0.51100000000E-03 0. -1.
        -11    1    3    3    0    0  0.57271142929E+01 -0.20647446528E+01 -0.56106313010E+01  0.82790212261E+01  0.51100000000E-03 0.  1.
        -12    1    3    3    0    0  0.72723239777E+01  0.11072139252E+02 -0.35583128094E+02  0.37968907919E+02  0.00000000000E+00 0.  1.
</event>
<event>
 7    1  0.2284751E-015  0.9000732E+02  0.7816164E-02  0.1186340E+00
        -11   -1    0    0    0    0  0.00000000000E+00  0.00000000000E+00  0.45593999997E+02  0.45594000000E+02  0.51100000000E-03 0.  1.
         11   -1    0    0    0    0 -0.00000000000E+00 -0.00000000000E+00 -0.45593999997E+02  0.45594000000E+02  0.51100000000E-03 0. -1.
    9900012    2    1    2    0    0  0.19521996423E+00  0.11383595149E+01 -0.24500808450E+00  0.90007321305E+02  0.89999577145E+02 0.  0.
         12    1    1    2    0    0 -0.19521996423E+00 -0.11383595149E+01  0.24500808450E+00  0.11806786951E+01  0.00000000000E+00 0. -1.
         11    1    3    3    0    0  0.13304251904E+02 -0.32289342030E+02 -0.17982065665E+02  0.39280522060E+02  0.51100000000E-03 0. -1.
        -11    1    3    3    0    0  0.87969855248E+01  0.56936057737E+01 -0.13411695246E+01  0.10564224391E+02  0.51100000000E-03 0.  1.
        -12    1    3    3    0    0 -0.21906017464E+02  0.27734095771E+02  0.19078227106E+02  0.40162574854E+02  0.00000000000E+00 0.  1.
</event>
<event>
 7    1  0.2284751E-015  0.9000772E+02  0.7816164E-02  0.1186339E+00
        -11   -1    0    0    0    0  0.00000000000E+00  0.00000000000E+00  0.45593999997E+02  0.45594000000E+02  0.51100000000E-03 0.  1.
         11   -1    0    0    0    0 -0.00000000000E+00 -0.00000000000E+00 -0.45593999997E+02  0.45594000000E+02  0.51100000000E-03 0. -1.
    9900012    2    1    2    0    0  0.24300003428E+00  0.61461376259E+00  0.97788758591E+00  0.90007719006E+02  0.89999980097E+02 0.  0.
         12    1    1    2    0    0 -0.24300003428E+00 -0.61461376259E+00 -0.97788758591E+00  0.11802809939E+01  0.00000000000E+00 0. -1.
         11    1    3    3    0    0  0.64636025482E+01 -0.15746856109E+02 -0.32243590447E+02  0.36460811296E+02  0.51100000000E-03 0. -1.
        -11    1    3    3    0    0 -0.14448200868E+02  0.53461188765E+01 -0.21895937087E+01  0.15560392548E+02  0.51100000000E-03 0.  1.
        -12    1    3    3    0    0  0.82275983546E+01  0.11015350995E+02  0.35411071742E+02  0.37986515162E+02  0.00000000000E+00 0.  1.
</event>
<event>
 7    1  0.2284751E-015  0.9000803E+02  0.7816164E-02  0.1186338E+00
        -11   -1    0    0    0    0  0.00000000000E+00  0.00000000000E+00  0.45593999997E+02  0.45594000000E+02  0.51100000000E-03 0.  1.
         11   -1    0    0    0    0 -0.00000000000E+00 -0.00000000000E+00 -0.45593999997E+02  0.45594000000E+02  0.51100000000E-03 0. -1.
    9900012    2    1    2    0    0  0.10209246535E+01 -0.25557121345E+00 -0.53359479610E+00  0.90008030848E+02  0.90000296055E+02 0.  0.
         12    1    1    2    0    0 -0.10209246535E+01  0.25557121345E+00  0.53359479610E+00  0.11799691520E+01  0.00000000000E+00 0. -1.
         11    1    3    3    0    0 -0.30376342696E+01 -0.66649149543E+01 -0.67659941982E+01  0.99713083923E+01  0.51100000000E-03 0. -1.
        -11    1    3    3    0    0 -0.19834882463E+02 -0.27772993978E+02  0.15228822415E+02  0.37372165969E+02  0.51100000000E-03 0.  1.
         12    1    3    3    0    0  0.23893441386E+02  0.34182337719E+02 -0.89964230125E+01  0.42664556487E+02  0.00000000000E+00 0. -1.
</event>
<event>
 7    1  0.2490172E-015  0.9000815E+02  0.7816164E-02  0.1186338E+00
        -11   -1    0    0    0    0  0.00000000000E+00  0.00000000000E+00  0.45593999997E+02  0.45594000000E+02  0.51100000000E-03 0.  1.
         11   -1    0    0    0    0 -0.00000000000E+00 -0.00000000000E+00 -0.45593999997E+02  0.45594000000E+02  0.51100000000E-03 0. -1.
    9900012    2    1    2    0    0  0.94694988472E+00 -0.20962797378E+00  0.67185080410E+00  0.90008151927E+02  0.90000418732E+02 0.  0.
         12    1    1    2    0    0 -0.94694988472E+00  0.20962797378E+00 -0.67185080410E+00  0.11798480726E+01  0.00000000000E+00 0. -1.
         11    1    3    3    0    0 -0.10468515668E+02  0.30586994325E+02 -0.20792108376E+02  0.38437817486E+02  0.51100000000E-03 0. -1.
        -11    1    3    3    0    0  0.40813447328E+01  0.70388260521E+01  0.56837929779E+01  0.99251171225E+01  0.51100000000E-03 0.  1.
        -12    1    3    3    0    0  0.73341208200E+01 -0.37835448351E+02  0.15780166202E+02  0.41645217318E+02  0.00000000000E+00 0.  1.
</event>
<event>
 7    1  0.2284751E-015  0.9000751E+02  0.7816164E-02  0.1186340E+00
        -11   -1    0    0    0    0  0.00000000000E+00  0.00000000000E+00  0.45593999997E+02  0.45594000000E+02  0.51100000000E-03 0. -1.
         11   -1    0    0    0    0 -0.00000000000E+00 -0.00000000000E+00 -0.45593999997E+02  0.45594000000E+02  0.51100000000E-03 0.  1.
    9900012    2    1    2    0    0 -0.61503602352E-02  0.68974710536E+00 -0.95800383579E+00  0.90007508473E+02  0.89999766784E+02 0.  0.
         12    1    1    2    0    0  0.61503602352E-02 -0.68974710536E+00  0.95800383579E+00  0.11804915271E+01  0.00000000000E+00 0. -1.
         11    1    3    3    0    0  0.20448106601E+01 -0.20302181269E+01  0.65863428111E+01  0.71890853497E+01  0.51100000000E-03 0. -1.
        -11    1    3    3    0    0 -0.31377013882E+02 -0.18010289486E+02  0.16330393571E+02  0.39693441296E+02  0.51100000000E-03 0.  1.
         12    1    3    3    0    0  0.29326052861E+02  0.20730254718E+02 -0.23874740218E+02  0.43124981827E+02  0.00000000000E+00 0. -1.
</event>
<event>
 7    1  0.2284751E-015  0.9000747E+02  0.7816164E-02  0.1186340E+00
        -11   -1    0    0    0    0  0.00000000000E+00  0.00000000000E+00  0.45593999997E+02  0.45594000000E+02  0.51100000000E-03 0.  1.
         11   -1    0    0    0    0 -0.00000000000E+00 -0.00000000000E+00 -0.45593999997E+02  0.45594000000E+02  0.51100000000E-03 0. -1.
    9900012    2    1    2    0    0  0.63846671410E+00 -0.86173048136E+00 -0.49339516046E+00  0.90007467090E+02  0.89999724855E+02 0.  0.
         12    1    1    2    0    0 -0.63846671410E+00  0.86173048136E+00  0.49339516046E+00  0.11805329101E+01  0.00000000000E+00 0. -1.
         11    1    3    3    0    0  0.23479888281E+01  0.52131307193E+01  0.61186147367E+01  0.83742002598E+01  0.51100000000E-03 0. -1.
        -11    1    3    3    0    0 -0.27272879588E+02  0.72195535561E+01  0.25824581499E+02  0.38247103477E+02  0.51100000000E-03 0.  1.
         12    1    3    3    0    0  0.25563357473E+02 -0.13294414757E+02 -0.32436591396E+02  0.43386163353E+02  0.00000000000E+00 0. -1.
</event>
<event>
 7    1  0.2284751E-015  0.9000777E+02  0.7816164E-02  0.1186339E+00
        -11   -1    0    0    0    0  0.00000000000E+00  0.00000000000E+00  0.45593999997E+02  0.45594000000E+02  0.51100000000E-03 0.  1.
         11   -1    0    0    0    0 -0.00000000000E+00 -0.00000000000E+00 -0.45593999997E+02  0.45594000000E+02  0.51100000000E-03 0. -1.
    9900012    2    1    2    0    0  0.29708808092E+00  0.35031311780E-01  0.11416849995E+01  0.90007774107E+02  0.90000035925E+02 0.  0.
         12    1    1    2    0    0 -0.29708808092E+00 -0.35031311780E-01 -0.11416849995E+01  0.11802258931E+01  0.00000000000E+00 0. -1.
         11    1    3    3    0    0  0.19129531929E+01  0.22072127576E+01 -0.95153868566E+01  0.99535805300E+01  0.51100000000E-03 0. -1.
        -11    1    3    3    0    0  0.26837466343E+02 -0.10624473548E+01 -0.23427644966E+02  0.35640327482E+02  0.51100000000E-03 0.  1.
         12    1    3    3    0    0 -0.28453331455E+02 -0.11097340911E+01  0.34084716822E+02  0.44413866095E+02  0.00000000000E+00 0. -1.
</event>
<event>
 7    1  0.2284751E-015  0.9000778E+02  0.7816164E-02  0.1186339E+00
        -11   -1    0    0    0    0  0.00000000000E+00  0.00000000000E+00  0.45593999997E+02  0.45594000000E+02  0.51100000000E-03 0. -1.
         11   -1    0    0    0    0 -0.00000000000E+00 -0.00000000000E+00 -0.45593999997E+02  0.45594000000E+02  0.51100000000E-03 0.  1.
    9900012    2    1    2    0    0 -0.84438906218E+00  0.31308983318E+00  0.76282847258E+00  0.90007777389E+02  0.90000039251E+02 0.  0.
         12    1    1    2    0    0  0.84438906218E+00 -0.31308983318E+00 -0.76282847258E+00  0.11802226106E+01  0.00000000000E+00 0. -1.
         11    1    3    3    0    0  0.15236012762E+02 -0.11189222220E+02  0.36703110486E+02  0.41285022688E+02  0.51100000000E-03 0. -1.
        -11    1    3    3    0    0  0.72064989591E+01  0.16275823099E+01 -0.59212490906E+01  0.94680432232E+01  0.51100000000E-03 0.  1.
        -12    1    3    3    0    0 -0.23286900784E+02  0.98747297432E+01 -0.30019032923E+02  0.39254711478E+02  0.00000000000E+00 0.  1.
</event>
<event>
 7    1  0.2284751E-015  0.9000778E+02  0.7816164E-02  0.1186339E+00
        -11   -1    0    0    0    0  0.00000000000E+00  0.00000000000E+00  0.45593999997E+02  0.45594000000E+02  0.51100000000E-03 0.  1.
         11   -1    0    0    0    0 -0.00000000000E+00 -0.00000000000E+00 -0.45593999997E+02  0.45594000000E+02  0.51100000000E-03 0. -1.
    9900012    2    1    2    0    0  0.81555977209E+00 -0.82148481610E+00  0.23008824867E+00  0.90007781526E+02  0.90000043442E+02 0.  0.
         12    1    1    2    0    0 -0.81555977209E+00  0.82148481610E+00 -0.23008824867E+00  0.11802184743E+01  0.00000000000E+00 0. -1.
         11    1    3    3    0    0 -0.74610747351E+01 -0.30233303821E+01 -0.48233378115E+01  0.93847083442E+01  0.51100000000E-03 0. -1.
        -11    1    3    3    0    0  0.49245556779E+01  0.32495847274E+02 -0.22260732320E+02  0.39695988996E+02  0.51100000000E-03 0.  1.
         12    1    3    3    0    0  0.33520788292E+01 -0.30294001708E+02  0.27314158380E+02  0.40927084186E+02  0.00000000000E+00 0. -1.
</event>
<event>
 7    1  0.2284751E-015  0.9000774E+02  0.7816164E-02  0.1186339E+00
        -11   -1    0    0    0    0  0.00000000000E+00  0.00000000000E+00  0.45593999997E+02  0.45594000000E+02  0.51100000000E-03 0. -1.
         11   -1    0    0    0    0 -0.00000000000E+00 -0.00000000000E+00 -0.45593999997E+02  0.45594000000E+02  0.51100000000E-03 0.  1.
    9900012    2    1    2    0    0 -0.70390906770E+00 -0.17301874172E+00 -0.93143907289E+00  0.90007744855E+02  0.90000006287E+02 0.  0.
         12    1    1    2    0    0  0.70390906770E+00  0.17301874172E+00  0.93143907289E+00  0.11802551449E+01  0.00000000000E+00 0. -1.
         11    1    3    3    0    0 -0.19151137594E+02  0.28507292349E+01  0.34195577375E+02  0.39296695034E+02  0.51100000000E-03 0. -1.
        -11    1    3    3    0    0  0.29815329565E+01  0.42508939645E+01  0.49301975557E+01  0.71600619039E+01  0.51100000000E-03 0.  1.
        -12    1    3    3    0    0  0.15465695569E+02 -0.72746419411E+01 -0.40057214004E+02  0.43550987917E+02  0.00000000000E+00 0.  1.
</event>
<event>
 7    1  0.2284751E-015  0.9000762E+02  0.7816164E-02  0.1186339E+00
        -11   -1    0    0    0    0  0.00000000000E+00  0.00000000000E+00  0.45593999997E+02  0.45594000000E+02  0.51100000000E-03 0. -1.
         11   -1    0    0    0    0 -0.00000000000E+00 -0.00000000000E+00 -0.45593999997E+02  0.45594000000E+02  0.51100000000E-03 0.  1.
    9900012    2    1    2    0    0  0.68607059873E+00 -0.76400445712E+00 -0.58214488430E+00  0.90007623643E+02  0.89999883475E+02 0.  0.
         12    1    1    2    0    0 -0.68607059873E+00  0.76400445712E+00  0.58214488430E+00  0.11803763566E+01  0.00000000000E+00 0. -1.
         11    1    3    3    0    0 -0.59835510926E+01 -0.35373964420E+01  0.80307500719E+01  0.10621158329E+02  0.51100000000E-03 0. -1.
        -11    1    3    3    0    0 -0.21544861709E+02  0.31141442532E+02  0.22294073652E+01  0.37933372728E+02  0.51100000000E-03 0.  1.
         12    1    3    3    0    0  0.28214483400E+02 -0.28368050547E+02 -0.10842302321E+02  0.41453092587E+02  0.00000000000E+00 0. -1.
</event>
<event>
 7    1  0.2284751E-015  0.9000768E+02  0.7816164E-02  0.1186339E+00
        -11   -1    0    0    0    0  0.00000000000E+00  0.00000000000E+00  0.45593999997E+02  0.45594000000E+02  0.51100000000E-03 0.  1.
         11   -1    0    0    0    0 -0.00000000000E+00 -0.00000000000E+00 -0.45593999997E+02  0.45594000000E+02  0.51100000000E-03 0. -1.
    9900012    2    1    2    0    0  0.10871032618E+01 -0.17912801731E+00  0.42340933022E+00  0.90007679785E+02  0.89999940358E+02 0.  0.
         12    1    1    2    0    0 -0.10871032618E+01  0.17912801731E+00 -0.42340933022E+00  0.11803202147E+01  0.00000000000E+00 0. -1.
         11    1    3    3    0    0 -0.11875516046E+00  0.91345880640E+01 -0.27489709886E+01  0.95400022874E+01  0.51100000000E-03 0. -1.
        -11    1    3    3    0    0 -0.24915437025E+02 -0.61521871103E+01  0.32274526276E+02  0.41234372251E+02  0.51100000000E-03 0.  1.
         12    1    3    3    0    0  0.26121295447E+02 -0.31615289710E+01 -0.29102145957E+02  0.39233305247E+02  0.00000000000E+00 0. -1.
</event>
<event>
 7    1  0.2284751E-015  0.9000772E+02  0.7816164E-02  0.1186339E+00
        -11   -1    0    0    0    0  0.00000000000E+00  0.00000000000E+00  0.45593999997E+02  0.45594000000E+02  0.51100000000E-03 0.  1.
         11   -1    0    0    0    0 -0.00000000000E+00 -0.00000000000E+00 -0.45593999997E+02  0.45594000000E+02  0.51100000000E-03 0. -1.
    9900012    2    1    2    0    0  0.82039534881E+00  0.39696923983E+00  0.74995391649E+00  0.90007718685E+02  0.89999979772E+02 0.  0.
         12    1    1    2    0    0 -0.82039534881E+00 -0.39696923983E+00 -0.74995391649E+00  0.11802813150E+01  0.00000000000E+00 0. -1.
         11    1    3    3    0    0  0.54179611108E+01 -0.69238176221E+01  0.31951586517E+01  0.93542820213E+01  0.51100000000E-03 0. -1.
        -11    1    3    3    0    0  0.85034383645E+01  0.14112135966E+02  0.35936104910E+02  0.39533080855E+02  0.51100000000E-03 0.  1.
         12    1    3    3    0    0 -0.13101004127E+02 -0.67913491045E+01 -0.38381309645E+02  0.41120355809E+02  0.00000000000E+00 0. -1.
</event>
<event>
 7    1  0.2284751E-015  0.9000763E+02  0.7816164E-02  0.1186339E+00
        -11   -1    0    0    0    0  0.00000000000E+00  0.00000000000E+00  0.45593999997E+02  0.45594000000E+02  0.51100000000E-03 0.  1.
         11   -1    0    0    0    0 -0.00000000000E+00 -0.00000000000E+00 -0.45593999997E+02  0.45594000000E+02  0.51100000000E-03 0. -1.
    9900012    2    1    2    0    0 -0.74161355488E+00 -0.56707388651E+00  0.72229525873E+00  0.90007629762E+02  0.89999889675E+02 0.  0.
         12    1    1    2    0    0  0.74161355488E+00  0.56707388651E+00 -0.72229525873E+00  0.11803702378E+01  0.00000000000E+00 0. -1.
         11    1    3    3    0    0  0.23551174513E+01 -0.47773418147E+01 -0.43869796535E+01  0.69003741757E+01  0.51100000000E-03 0. -1.
        -11    1    3    3    0    0  0.26460465813E+02  0.31152320903E+02 -0.66721987192E+01  0.41414267888E+02  0.51100000000E-03 0.  1.
         12    1    3    3    0    0 -0.29557196819E+02 -0.26942052975E+02  0.11781473631E+02  0.41692987698E+02  0.00000000000E+00 0. -1.
</event>
<event>
 7    1  0.2284751E-015  0.9000786E+02  0.7816164E-02  0.1186339E+00
        -11   -1    0    0    0    0  0.00000000000E+00  0.00000000000E+00  0.45593999997E+02  0.45594000000E+02  0.51100000000E-03 0.  1.
         11   -1    0    0    0    0 -0.00000000000E+00 -0.00000000000E+00 -0.45593999997E+02  0.45594000000E+02  0.51100000000E-03 0. -1.
    9900012    2    1    2    0    0  0.77288734909E+00  0.65563581314E+00  0.60457893895E+00  0.90007860658E+02  0.90000123618E+02 0.  0.
         12    1    1    2    0    0 -0.77288734909E+00 -0.65563581314E+00 -0.60457893895E+00  0.11801393423E+01  0.00000000000E+00 0. -1.
         11    1    3    3    0    0  0.10601448946E+01  0.87058049841E+01  0.16343986646E+01  0.89211101817E+01  0.51100000000E-03 0. -1.
        -11    1    3    3    0    0  0.17079763341E+02 -0.40677632154E+02 -0.72285389957E+00  0.44123809803E+02  0.51100000000E-03 0.  1.
         12    1    3    3    0    0 -0.17367020887E+02  0.32627462983E+02 -0.30696582613E+00  0.36962940673E+02  0.00000000000E+00 0. -1.
</event>
<event>
 7    1  0.2284751E-015  0.9000777E+02  0.7816164E-02  0.1186339E+00
        -11   -1    0    0    0    0  0.00000000000E+00  0.00000000000E+00  0.45593999997E+02  0.45594000000E+02  0.51100000000E-03 0.  1.
         11   -1    0    0    0    0 -0.00000000000E+00 -0.00000000000E+00 -0.45593999997E+02  0.45594000000E+02  0.51100000000E-03 0. -1.
    9900012    2    1    2    0    0 -0.31605067292E+00 -0.54564979930E+00  0.99765593273E+00  0.90007771594E+02  0.90000033379E+02 0.  0.
         12    1    1    2    0    0  0.31605067292E+00  0.54564979930E+00 -0.99765593273E+00  0.11802284065E+01  0.00000000000E+00 0. -1.
         11    1    3    3    0    0 -0.17763483217E+01 -0.20412098097E+01  0.88739680055E+01  0.92773519536E+01  0.51100000000E-03 0. -1.
        -11    1    3    3    0    0  0.39449561274E+02  0.11441779836E+02 -0.39297281752E+01  0.41262876467E+02  0.51100000000E-03 0.  1.
         12    1    3    3    0    0 -0.37989263625E+02 -0.99462198260E+01 -0.39465838975E+01  0.39467543173E+02  0.00000000000E+00 0. -1.
</event>
<event>
 7    1  0.2284751E-015  0.9000772E+02  0.7816164E-02  0.1186339E+00
        -11   -1    0    0    0    0  0.00000000000E+00  0.00000000000E+00  0.45593999997E+02  0.45594000000E+02  0.51100000000E-03 0.  1.
         11   -1    0    0    0    0 -0.00000000000E+00 -0.00000000000E+00 -0.45593999997E+02  0.45594000000E+02  0.51100000000E-03 0. -1.
    9900012    2    1    2    0    0 -0.42398554553E-01 -0.11425210933E+01  0.29310254606E+00  0.90007719869E+02  0.89999980971E+02 0.  0.
         12    1    1    2    0    0  0.42398554553E-01  0.11425210933E+01 -0.29310254606E+00  0.11802801314E+01  0.00000000000E+00 0. -1.
         11    1    3    3    0    0  0.11029333527E+02  0.25528539723E+00 -0.14463675708E+02  0.18190912124E+02  0.51100000000E-03 0. -1.
        -11    1    3    3    0    0 -0.35957931454E+02 -0.88181542579E+01 -0.73104708336E+01  0.37738251987E+02  0.51100000000E-03 0.  1.
         12    1    3    3    0    0  0.24886199373E+02  0.74203477674E+01  0.22067249087E+02  0.34078555757E+02  0.00000000000E+00 0. -1.
</event>
<event>
 7    1  0.2284751E-015  0.9000780E+02  0.7816164E-02  0.1186339E+00
        -11   -1    0    0    0    0  0.00000000000E+00  0.00000000000E+00  0.45593999997E+02  0.45594000000E+02  0.51100000000E-03 0. -1.
         11   -1    0    0    0    0 -0.00000000000E+00 -0.00000000000E+00 -0.45593999997E+02  0.45594000000E+02  0.51100000000E-03 0.  1.
    9900012    2    1    2    0    0  0.94100034490E+00  0.71228538347E+00 -0.53181760237E-02  0.90007804932E+02  0.90000067157E+02 0.  0.
         12    1    1    2    0    0 -0.94100034490E+00 -0.71228538347E+00  0.53181760237E-02  0.11801950685E+01  0.00000000000E+00 0. -1.
         11    1    3    3    0    0  0.57607389238E+01 -0.57059348759E+01 -0.45753712942E+01  0.93100928297E+01  0.51100000000E-03 0. -1.
        -11    1    3    3    0    0  0.67037491325E+01 -0.33714916482E+02 -0.11064648346E+02  0.36111802628E+02  0.51100000000E-03 0.  1.
         12    1    3    3    0    0 -0.11523487711E+02  0.40133136741E+02  0.15634701464E+02  0.44585909473E+02  0.00000000000E+00 0. -1.
</event>
<event>
 7    1  0.2284751E-015  0.9000761E+02  0.7816164E-02  0.1186339E+00
        -11   -1    0    0    0    0  0.00000000000E+00  0.00000000000E+00  0.45593999997E+02  0.45594000000E+02  0.51100000000E-03 0. -1.
         11   -1    0    0    0    0 -0.00000000000E+00 -0.00000000000E+00 -0.45593999997E+02  0.45594000000E+02  0.51100000000E-03 0.  1.
    9900012    2    1    2    0    0  0.11053969267E+01  0.21584056558E+00  0.35332349518E+00  0.90007607266E+02  0.89999866881E+02 0.  0.
         12    1    1    2    0    0 -0.11053969267E+01 -0.21584056558E+00 -0.35332349518E+00  0.11803927345E+01  0.00000000000E+00 0. -1.
         11    1    3    3    0    0 -0.17920200217E+02  0.19687655611E+02  0.27026711619E+02  0.37936532531E+02  0.51100000000E-03 0. -1.
        -11    1    3    3    0    0 -0.86787477113E+01  0.21920064014E+01 -0.21784951942E+01  0.92125672574E+01  0.51100000000E-03 0.  1.
        -12    1    3    3    0    0  0.27704344855E+02 -0.21663821447E+02 -0.24494892930E+02  0.42858507477E+02  0.00000000000E+00 0.  1.
</event>
<event>
 7    1  0.2284751E-015  0.9000773E+02  0.7816164E-02  0.1186339E+00
        -11   -1    0    0    0    0  0.00000000000E+00  0.00000000000E+00  0.45593999997E+02  0.45594000000E+02  0.51100000000E-03 0.  1.
         11   -1    0    0    0    0 -0.00000000000E+00 -0.00000000000E+00 -0.45593999997E+02  0.45594000000E+02  0.51100000000E-03 0. -1.
    9900012    2    1    2    0    0 -0.21910821502E-01 -0.11375223535E+01  0.31399758106E+00  0.90007732374E+02  0.89999993641E+02 0.  0.
         12    1    1    2    0    0  0.21910821502E-01  0.11375223535E+01 -0.31399758106E+00  0.11802676263E+01  0.00000000000E+00 0. -1.
         11    1    3    3    0    0 -0.45067823052E+00 -0.94123425836E+01  0.12163913515E+01  0.95013110654E+01  0.51100000000E-03 0. -1.
        -11    1    3    3    0    0 -0.32185736258E+02 -0.16683765881E+02  0.10756360141E+02  0.37814930202E+02  0.51100000000E-03 0.  1.
         12    1    3    3    0    0  0.32614503667E+02  0.24958586111E+02 -0.11658753912E+02  0.42691491106E+02  0.00000000000E+00 0. -1.
</event>
<event>
 7    1  0.2284751E-015  0.9000775E+02  0.7816164E-02  0.1186339E+00
        -11   -1    0    0    0    0  0.00000000000E+00  0.00000000000E+00  0.45593999997E+02  0.45594000000E+02  0.51100000000E-03 0.  1.
         11   -1    0    0    0    0 -0.00000000000E+00 -0.00000000000E+00 -0.45593999997E+02  0.45594000000E+02  0.51100000000E-03 0. -1.
    9900012    2    1    2    0    0 -0.53813685570E+00  0.41948989775E+00 -0.96303066652E+00  0.90007749554E+02  0.90000011048E+02 0.  0.
         12    1    1    2    0    0  0.53813685570E+00 -0.41948989775E+00  0.96303066652E+00  0.11802504456E+01  0.00000000000E+00 0. -1.
         11    1    3    3    0    0 -0.32792286999E+02 -0.99387666672E+01 -0.21109071363E+02  0.40245571974E+02  0.51100000000E-03 0. -1.
        -11    1    3    3    0    0  0.43311933162E+01  0.16327179740E+02  0.86882003992E+01  0.18995285210E+02  0.51100000000E-03 0.  1.
        -12    1    3    3    0    0  0.27922956827E+02 -0.59689231746E+01  0.11457840297E+02  0.30766892370E+02  0.00000000000E+00 0.  1.
</event>
<event>
 7    1  0.2897643E-015  0.9000774E+02  0.7816164E-02  0.1186339E+00
        -11   -1    0    0    0    0  0.00000000000E+00  0.00000000000E+00  0.45593999997E+02  0.45594000000E+02  0.51100000000E-03 0. -1.
         11   -1    0    0    0    0 -0.00000000000E+00 -0.00000000000E+00 -0.45593999997E+02  0.45594000000E+02  0.51100000000E-03 0.  1.
    9900012    2    1    2    0    0  0.13766445956E+00  0.28975703296E-01 -0.11718472455E+01  0.90007738562E+02  0.89999999911E+02 0.  0.
         12    1    1    2    0    0 -0.13766445956E+00 -0.28975703296E-01  0.11718472455E+01  0.11802614378E+01  0.00000000000E+00 0. -1.
         11    1    3    3    0    0 -0.17926811212E+02  0.31279106974E+02  0.19625607127E+02  0.41047747182E+02  0.51100000000E-03 0. -1.
        -11    1    3    3    0    0 -0.36042530716E+01 -0.80838506819E+00 -0.90753283171E+01  0.97982504023E+01  0.51100000000E-03 0.  1.
        -12    1    3    3    0    0  0.21668728743E+02 -0.30441746202E+02 -0.11722126056E+02  0.39161740978E+02  0.00000000000E+00 0.  1.
</event>
<event>
 7    1  0.2284751E-015  0.9000757E+02  0.7816164E-02  0.1186339E+00
        -11   -1    0    0    0    0  0.00000000000E+00  0.00000000000E+00  0.45593999997E+02  0.45594000000E+02  0.51100000000E-03 0.  1.
         11   -1    0    0    0    0 -0.00000000000E+00 -0.00000000000E+00 -0.45593999997E+02  0.45594000000E+02  0.51100000000E-03 0. -1.
    9900012    2    1    2    0    0 -0.11242602725E+01  0.21926947699E+00  0.28525580182E+00  0.90007571630E+02  0.89999830775E+02 0.  0.
         12    1    1    2    0    0  0.11242602725E+01 -0.21926947699E+00 -0.28525580182E+00  0.11804283699E+01  0.00000000000E+00 0. -1.
         11    1    3    3    0    0 -0.41635063072E+01 -0.48972280506E+01  0.21304248226E+01  0.67717307637E+01  0.51100000000E-03 0. -1.
        -11    1    3    3    0    0  0.14110011905E+02 -0.21550092366E+02  0.30471177415E+02  0.39899769050E+02  0.51100000000E-03 0.  1.
         12    1    3    3    0    0 -0.11070765870E+02  0.26666589893E+02 -0.32316346436E+02  0.43336071816E+02  0.00000000000E+00 0. -1.
</event>
<event>
 7    1  0.2284751E-015  0.9000770E+02  0.7816164E-02  0.1186339E+00
        -11   -1    0    0    0    0  0.00000000000E+00  0.00000000000E+00  0.45593999997E+02  0.45594000000E+02  0.51100000000E-03 0.  1.
         11   -1    0    0    0    0 -0.00000000000E+00 -0.00000000000E+00 -0.45593999997E+02  0.45594000000E+02  0.51100000000E-03 0. -1.
    9900012    2    1    2    0    0  0.85201819501E+00 -0.81484779765E+00 -0.56504769165E-01  0.90007701425E+02  0.89999962283E+02 0.  0.
         12    1    1    2    0    0 -0.85201819501E+00  0.81484779765E+00  0.56504769165E-01  0.11802985753E+01  0.00000000000E+00 0. -1.
         11    1    3    3    0    0  0.46620785972E+01  0.68866767788E+01  0.33137256072E+01  0.89522104288E+01  0.51100000000E-03 0. -1.
        -11    1    3    3    0    0  0.27474699299E+02 -0.81846284954E+01  0.25585257030E+02  0.38424635622E+02  0.51100000000E-03 0.  1.
         12    1    3    3    0    0 -0.31284759701E+02  0.48310391901E+00 -0.28955487406E+02  0.42630855373E+02  0.00000000000E+00 0. -1.
</event>
<event>
 7    1  0.2284751E-015  0.9000776E+02  0.7816164E-02  0.1186339E+00
        -11   -1    0    0    0    0  0.00000000000E+00  0.00000000000E+00  0.45593999997E+02  0.45594000000E+02  0.51100000000E-03 0.  1.
         11   -1    0    0    0    0 -0.00000000000E+00 -0.00000000000E+00 -0.45593999997E+02  0.45594000000E+02  0.51100000000E-03 0. -1.
    9900012    2    1    2    0    0 -0.68144623103E+00 -0.13084529877E+00  0.95471031457E+00  0.90007762209E+02  0.90000023870E+02 0.  0.
         12    1    1    2    0    0  0.68144623103E+00  0.13084529877E+00 -0.95471031457E+00  0.11802377908E+01  0.00000000000E+00 0. -1.
         11    1    3    3    0    0 -0.29035463210E+01  0.84730511814E+01  0.26361043770E+01  0.93366066699E+01  0.51100000000E-03 0. -1.
        -11    1    3    3    0    0 -0.22378703808E+01 -0.27901679350E+01  0.39086596965E+02  0.39249906541E+02  0.51100000000E-03 0.  1.
         12    1    3    3    0    0  0.44599704707E+01 -0.58137285452E+01 -0.40767991027E+02  0.41421248998E+02  0.00000000000E+00 0. -1.
</event>
<event>
 7    1  0.2284751E-015  0.9000774E+02  0.7816164E-02  0.1186339E+00
        -11   -1    0    0    0    0  0.00000000000E+00  0.00000000000E+00  0.45593999997E+02  0.45594000000E+02  0.51100000000E-03 0. -1.
         11   -1    0    0    0    0 -0.00000000000E+00 -0.00000000000E+00 -0.45593999997E+02  0.45594000000E+02  0.51100000000E-03 0.  1.
    9900012    2    1    2    0    0  0.68565142771E+00  0.76890356307E+00 -0.57590939803E+00  0.90007744856E+02  0.90000006288E+02 0.  0.
         12    1    1    2    0    0 -0.68565142771E+00 -0.76890356307E+00  0.57590939803E+00  0.11802551438E+01  0.00000000000E+00 0. -1.
         11    1    3    3    0    0 -0.77064022994E+01  0.22682873121E+01 -0.61760392605E+01  0.10132977102E+02  0.51100000000E-03 0. -1.
        -11    1    3    3    0    0 -0.17909509967E+00 -0.25037998857E+02 -0.28259238529E+02  0.37756032953E+02  0.51100000000E-03 0.  1.
         12    1    3    3    0    0  0.85711488268E+01  0.23538615108E+02  0.33859368392E+02  0.42118734802E+02  0.00000000000E+00 0. -1.
</event>
<event>
 7    1  0.2284751E-015  0.9000773E+02  0.7816164E-02  0.1186339E+00
        -11   -1    0    0    0    0  0.00000000000E+00  0.00000000000E+00  0.45593999997E+02  0.45594000000E+02  0.51100000000E-03 0. -1.
         11   -1    0    0    0    0 -0.00000000000E+00 -0.00000000000E+00 -0.45593999997E+02  0.45594000000E+02  0.51100000000E-03 0.  1.
    9900012    2    1    2    0    0 -0.40940702187E+00  0.71905035641E+00 -0.84165278509E+00  0.90007734379E+02  0.89999995673E+02 0.  0.
         12    1    1    2    0    0  0.40940702187E+00 -0.71905035641E+00  0.84165278509E+00  0.11802656206E+01  0.00000000000E+00 0. -1.
         11    1    3    3    0    0  0.85915998397E+01  0.46556750821E+01 -0.26919284177E+01  0.10135944808E+02  0.51100000000E-03 0. -1.
        -11    1    3    3    0    0  0.31606360659E+02 -0.83530088731E+01 -0.14642581035E+02  0.35820943190E+02  0.51100000000E-03 0.  1.
         12    1    3    3    0    0 -0.40607367521E+02  0.44163841474E+01  0.16492856668E+02  0.44050846382E+02  0.00000000000E+00 0. -1.
</event>
<event>
 7    1  0.2284751E-015  0.9000766E+02  0.7816164E-02  0.1186339E+00
        -11   -1    0    0    0    0  0.00000000000E+00  0.00000000000E+00  0.45593999997E+02  0.45594000000E+02  0.51100000000E-03 0.  1.
         11   -1    0    0    0    0 -0.00000000000E+00 -0.00000000000E+00 -0.45593999997E+02  0.45594000000E+02  0.51100000000E-03 0. -1.
    9900012    2    1    2    0    0  0.90052455817E+00 -0.60577052069E+00  0.46399502420E+00  0.90007663698E+02  0.89999924059E+02 0.  0.
         12    1    1    2    0    0 -0.90052455817E+00  0.60577052069E+00 -0.46399502420E+00  0.11803363021E+01  0.00000000000E+00 0. -1.
         11    1    3    3    0    0 -0.52342300170E+01 -0.29491227599E+01 -0.10633941705E+02  0.12213730199E+02  0.51100000000E-03 0. -1.
        -11    1    3    3    0    0 -0.32613616953E+02 -0.12803363657E+02  0.88102969266E+01  0.36127489034E+02  0.51100000000E-03 0.  1.
         12    1    3    3    0    0  0.38748371528E+02  0.15146715896E+02  0.22876398026E+01  0.41666444465E+02  0.00000000000E+00 0. -1.
</event>
<event>
 7    1  0.2284751E-015  0.9000764E+02  0.7816164E-02  0.1186339E+00
        -11   -1    0    0    0    0  0.00000000000E+00  0.00000000000E+00  0.45593999997E+02  0.45594000000E+02  0.51100000000E-03 0. -1.
         11   -1    0    0    0    0 -0.00000000000E+00 -0.00000000000E+00 -0.45593999997E+02  0.45594000000E+02  0.51100000000E-03 0.  1.
    9900012    2    1    2    0    0 -0.10929944616E+01  0.23787922087E+00 -0.37686172652E+00  0.90007640657E+02  0.89999900714E+02 0.  0.
         12    1    1    2    0    0  0.10929944616E+01 -0.23787922087E+00  0.37686172652E+00  0.11803593427E+01  0.00000000000E+00 0. -1.
         11    1    3    3    0    0  0.21909950151E+02 -0.16023999422E+02  0.23086366889E+02  0.35634180354E+02  0.51100000000E-03 0. -1.
        -11    1    3    3    0    0  0.63999786388E+01  0.38762266951E+01  0.70104699284E+01  0.10253367683E+02  0.51100000000E-03 0.  1.
        -12    1    3    3    0    0 -0.29402923251E+02  0.12385651948E+02 -0.30473698544E+02  0.44120092620E+02  0.00000000000E+00 0.  1.
</event>
<event>
 7    1  0.2284751E-015  0.9000784E+02  0.7816164E-02  0.1186339E+00
        -11   -1    0    0    0    0  0.00000000000E+00  0.00000000000E+00  0.45593999997E+02  0.45594000000E+02  0.51100000000E-03 0. -1.
         11   -1    0    0    0    0 -0.00000000000E+00 -0.00000000000E+00 -0.45593999997E+02  0.45594000000E+02  0.51100000000E-03 0.  1.
    9900012    2    1    2    0    0 -0.54714240002E+00 -0.10137655731E+01  0.25628526663E+00  0.90007844256E+02  0.90000107000E+02 0.  0.
         12    1    1    2    0    0  0.54714240002E+00  0.10137655731E+01 -0.25628526663E+00  0.11801557443E+01  0.00000000000E+00 0. -1.
         11    1    3    3    0    0 -0.25427187205E+00 -0.76514956978E+01 -0.47333159616E+01  0.90007955677E+01  0.51100000000E-03 0. -1.
        -11    1    3    3    0    0 -0.25532511850E+01  0.11655471573E+02 -0.36887809389E+02  0.38769570426E+02  0.51100000000E-03 0.  1.
         12    1    3    3    0    0  0.22603806571E+01 -0.50177414485E+01  0.41877410617E+02  0.42237478262E+02  0.00000000000E+00 0. -1.
</event>
<event>
 7    1  0.2284751E-015  0.9000768E+02  0.7816164E-02  0.1186339E+00
        -11   -1    0    0    0    0  0.00000000000E+00  0.00000000000E+00  0.45593999997E+02  0.45594000000E+02  0.51100000000E-03 0. -1.
         11   -1    0    0    0    0 -0.00000000000E+00 -0.00000000000E+00 -0.45593999997E+02  0.45594000000E+02  0.51100000000E-03 0.  1.
    9900012    2    1    2    0    0 -0.66899653681E+00 -0.73362969429E+00 -0.63826947257E+00  0.90007679360E+02  0.89999939927E+02 0.  0.
         12    1    1    2    0    0  0.66899653681E+00  0.73362969429E+00  0.63826947257E+00  0.11803206404E+01  0.00000000000E+00 0. -1.
         11    1    3    3    0    0  0.92173816837E+01  0.67042009464E+01 -0.20572760666E+01  0.11581831483E+02  0.51100000000E-03 0. -1.
        -11    1    3    3    0    0  0.28850612855E+02 -0.20055322891E+02  0.10527942951E+02  0.36679850346E+02  0.51100000000E-03 0.  1.
         12    1    3    3    0    0 -0.38736991075E+02  0.12617492251E+02 -0.91089363567E+01  0.41745997530E+02  0.00000000000E+00 0. -1.
</event>
<event>
 7    1  0.2284751E-015  0.9000776E+02  0.7816164E-02  0.1186339E+00
        -11   -1    0    0    0    0  0.00000000000E+00  0.00000000000E+00  0.45593999997E+02  0.45594000000E+02  0.51100000000E-03 0.  1.
         11   -1    0    0    0    0 -0.00000000000E+00 -0.00000000000E+00 -0.45593999997E+02  0.45594000000E+02  0.51100000000E-03 0. -1.
    9900012    2    1    2    0    0  0.90260905537E+00  0.15010654510E-01  0.76028706488E+00  0.90007760682E+02  0.90000022323E+02 0.  0.
         12    1    1    2    0    0 -0.90260905537E+00 -0.15010654510E-01 -0.76028706488E+00  0.11802393179E+01  0.00000000000E+00 0. -1.
         11    1    3    3    0    0 -0.30175919128E+02 -0.26248775766E+02 -0.24446770009E+01  0.40069449339E+02  0.51100000000E-03 0. -1.
        -11    1    3    3    0    0  0.83693921938E+00  0.42492147501E+00  0.96042061818E+01  0.96499638425E+01  0.51100000000E-03 0.  1.
        -12    1    3    3    0    0  0.30241588964E+02  0.25838864945E+02 -0.63992421161E+01  0.40288347501E+02  0.00000000000E+00 0.  1.
</event>
<event>
 7    1  0.2284751E-015  0.9000780E+02  0.7816164E-02  0.1186339E+00
        -11   -1    0    0    0    0  0.00000000000E+00  0.00000000000E+00  0.45593999997E+02  0.45594000000E+02  0.51100000000E-03 0.  1.
         11   -1    0    0    0    0 -0.00000000000E+00 -0.00000000000E+00 -0.45593999997E+02  0.45594000000E+02  0.51100000000E-03 0. -1.
    9900012    2    1    2    0    0 -0.11273804944E+01 -0.33169346888E+00  0.10892564810E+00  0.90007799960E+02  0.90000062120E+02 0.  0.
         12    1    1    2    0    0  0.11273804944E+01  0.33169346888E+00 -0.10892564810E+00  0.11802000395E+01  0.00000000000E+00 0. -1.
         11    1    3    3    0    0  0.14017047010E+02  0.34627857656E+02  0.49240474763E+01  0.37680397776E+02  0.51100000000E-03 0. -1.
        -11    1    3    3    0    0  0.74756980261E+01 -0.98053737964E+00 -0.84757113111E+01  0.11343949798E+02  0.51100000000E-03 0.  1.
        -12    1    3    3    0    0 -0.22620125531E+02 -0.33979013746E+02  0.36605894829E+01  0.40983452386E+02  0.00000000000E+00 0.  1.
</event>
<event>
 7    1  0.2284751E-015  0.9000775E+02  0.7816164E-02  0.1186339E+00
        -11   -1    0    0    0    0  0.00000000000E+00  0.00000000000E+00  0.45593999997E+02  0.45594000000E+02  0.51100000000E-03 0.  1.
         11   -1    0    0    0    0 -0.00000000000E+00 -0.00000000000E+00 -0.45593999997E+02  0.45594000000E+02  0.51100000000E-03 0. -1.
    9900012    2    1    2    0    0 -0.15430762638E+00  0.50933251259E-02  0.11701096895E+01  0.90007748556E+02  0.90000010037E+02 0.  0.
         12    1    1    2    0    0  0.15430762638E+00 -0.50933251259E-02 -0.11701096895E+01  0.11802514440E+01  0.00000000000E+00 0. -1.
         11    1    3    3    0    0 -0.15067542545E+02  0.32952688191E+02 -0.11762815969E+01  0.36253194839E+02  0.51100000000E-03 0. -1.
        -11    1    3    3    0    0 -0.31495339096E+01  0.81898701032E+01  0.30713765006E+00  0.87799698150E+01  0.51100000000E-03 0.  1.
        -12    1    3    3    0    0  0.18062768828E+02 -0.41137464969E+02  0.20392536364E+01  0.44974583902E+02  0.00000000000E+00 0.  1.
</event>
<event>
 7    1  0.2284751E-015  0.9000777E+02  0.7816164E-02  0.1186339E+00
        -11   -1    0    0    0    0  0.00000000000E+00  0.00000000000E+00  0.45593999997E+02  0.45594000000E+02  0.51100000000E-03 0. -1.
         11   -1    0    0    0    0 -0.00000000000E+00 -0.00000000000E+00 -0.45593999997E+02  0.45594000000E+02  0.51100000000E-03 0.  1.
    9900012    2    1    2    0    0  0.10201554881E+01  0.54630478808E+00  0.23192208843E+00  0.90007765279E+02  0.90000026981E+02 0.  0.
         12    1    1    2    0    0 -0.10201554881E+01 -0.54630478808E+00 -0.23192208843E+00  0.11802347210E+01  0.00000000000E+00 0. -1.
         11    1    3    3    0    0 -0.32118318247E+02 -0.16978703186E+02  0.51892865301E+00  0.36333621015E+02  0.51100000000E-03 0. -1.
        -11    1    3    3    0    0 -0.42733500548E+01 -0.46073955782E+01  0.72099408876E+01  0.95641446334E+01  0.51100000000E-03 0.  1.
        -12    1    3    3    0    0  0.37411823790E+02  0.22132403552E+02 -0.74969474521E+01  0.44109999630E+02  0.00000000000E+00 0.  1.
</event>
<event>
 7    1  0.2284751E-015  0.9000766E+02  0.7816164E-02  0.1186339E+00
        -11   -1    0    0    0    0  0.00000000000E+00  0.00000000000E+00  0.45593999997E+02  0.45594000000E+02  0.51100000000E-03 0.  1.
         11   -1    0    0    0    0 -0.00000000000E+00 -0.00000000000E+00 -0.45593999997E+02  0.45594000000E+02  0.51100000000E-03 0. -1.
    9900012    2    1    2    0    0 -0.10944989321E+00  0.11731815020E+01 -0.69821078963E-01  0.90007657211E+02  0.89999917486E+02 0.  0.
         12    1    1    2    0    0  0.10944989321E+00 -0.11731815020E+01  0.69821078963E-01  0.11803427887E+01  0.00000000000E+00 0. -1.
         11    1    3    3    0    0  0.32805148739E+01 -0.28205829473E+01  0.96283426651E+01  0.10555683244E+02  0.51100000000E-03 0. -1.
        -11    1    3    3    0    0  0.15976942343E+02  0.21204700428E+02  0.24784365455E+02  0.36320335601E+02  0.51100000000E-03 0.  1.
         12    1    3    3    0    0 -0.19366907110E+02 -0.17210935978E+02 -0.34482529199E+02  0.43131638367E+02  0.00000000000E+00 0. -1.
</event>
<event>
 7    1  0.2284751E-015  0.9000778E+02  0.7816164E-02  0.1186339E+00
        -11   -1    0    0    0    0  0.00000000000E+00  0.00000000000E+00  0.45593999997E+02  0.45594000000E+02  0.51100000000E-03 0.  1.
         11   -1    0    0    0    0 -0.00000000000E+00 -0.00000000000E+00 -0.45593999997E+02  0.45594000000E+02  0.51100000000E-03 0. -1.
    9900012    2    1    2    0    0 -0.71880101788E+00  0.58101214683E+00  0.73393779052E+00  0.90007781928E+02  0.90000043849E+02 0.  0.
         12    1    1    2    0    0  0.71880101788E+00 -0.58101214683E+00 -0.73393779052E+00  0.11802180724E+01  0.00000000000E+00 0. -1.
         11    1    3    3    0    0 -0.22171741820E+02  0.18285222492E+02 -0.16195436833E+02  0.32988295976E+02  0.51100000000E-03 0. -1.
        -11    1    3    3    0    0 -0.77792676113E+00  0.11742788899E+02 -0.63704662085E+01  0.13382118709E+02  0.51100000000E-03 0.  1.
        -12    1    3    3    0    0  0.22230867563E+02 -0.29446999244E+02  0.23299840832E+02  0.43637367243E+02  0.00000000000E+00 0.  1.
</event>
<event>
 7    1  0.2284751E-015  0.9000770E+02  0.7816164E-02  0.1186339E+00
        -11   -1    0    0    0    0  0.00000000000E+00  0.00000000000E+00  0.45593999997E+02  0.45594000000E+02  0.51100000000E-03 0.  1.
         11   -1    0    0    0    0 -0.00000000000E+00 -0.00000000000E+00 -0.45593999997E+02  0.45594000000E+02  0.51100000000E-03 0. -1.
    9900012    2    1    2    0    0 -0.61010080476E+00 -0.39818921651E+00  0.92862290974E+00  0.90007695737E+02  0.89999956521E+02 0.  0.
         12    1    1    2    0    0  0.61010080476E+00  0.39818921651E+00 -0.92862290974E+00  0.11803042627E+01  0.00000000000E+00 0. -1.
         11    1    3    3    0    0  0.23606754969E+02  0.33810122547E+02  0.14382087950E+01  0.41261019275E+02  0.51100000000E-03 0. -1.
        -11    1    3    3    0    0 -0.87554863718E+01  0.21705853202E+01 -0.17958642499E+01  0.91975600517E+01  0.51100000000E-03 0.  1.
        -12    1    3    3    0    0 -0.15461369402E+02 -0.36378897084E+02  0.12862783647E+01  0.39549116411E+02  0.00000000000E+00 0.  1.
</event>
<event>
 7    1  0.2284751E-015  0.9000766E+02  0.7816164E-02  0.1186339E+00
        -11   -1    0    0    0    0  0.00000000000E+00  0.00000000000E+00  0.45593999997E+02  0.45594000000E+02  0.51100000000E-03 0.  1.
         11   -1    0    0    0    0 -0.00000000000E+00 -0.00000000000E+00 -0.45593999997E+02  0.45594000000E+02  0.51100000000E-03 0. -1.
    9900012    2    1    2    0    0  0.84189961556E+00 -0.66898884162E+00  0.48667582608E+00  0.90007663441E+02  0.89999923798E+02 0.  0.
         12    1    1    2    0    0 -0.84189961556E+00  0.66898884162E+00 -0.48667582608E+00  0.11803365590E+01  0.00000000000E+00 0. -1.
         11    1    3    3    0    0 -0.87665396519E+01  0.34064394602E+01 -0.47670983234E+00  0.94171810958E+01  0.51100000000E-03 0. -1.
        -11    1    3    3    0    0 -0.19805089142E+02  0.26641989173E+02 -0.13258328141E+02  0.35746613943E+02  0.51100000000E-03 0.  1.
         12    1    3    3    0    0  0.29413528410E+02 -0.30717417475E+02  0.14221713800E+02  0.44843868402E+02  0.00000000000E+00 0. -1.
</event>
<event>
 7    1  0.2284751E-015  0.9000777E+02  0.7816164E-02  0.1186339E+00
        -11   -1    0    0    0    0  0.00000000000E+00  0.00000000000E+00  0.45593999997E+02  0.45594000000E+02  0.51100000000E-03 0. -1.
         11   -1    0    0    0    0 -0.00000000000E+00 -0.00000000000E+00 -0.45593999997E+02  0.45594000000E+02  0.51100000000E-03 0.  1.
    9900012    2    1    2    0    0  0.10565855110E+01 -0.15311290634E+00 -0.50312186045E+00  0.90007767773E+02  0.90000029507E+02 0.  0.
         12    1    1    2    0    0 -0.10565855110E+01  0.15311290634E+00  0.50312186045E+00  0.11802322274E+01  0.00000000000E+00 0. -1.
         11    1    3    3    0    0  0.74463771981E+01 -0.30981874840E+02  0.20450902684E+02  0.37862442114E+02  0.51100000000E-03 0. -1.
        -11    1    3    3    0    0  0.76456105064E+01 -0.43611395646E+01  0.10005826130E+00  0.88025513481E+01  0.51100000000E-03 0.  1.
        -12    1    3    3    0    0 -0.14035402194E+02  0.35189901498E+02 -0.21054082806E+02  0.43342774311E+02  0.00000000000E+00 0.  1.
</event>
<event>
 7    1  0.2284751E-015  0.9000755E+02  0.7816164E-02  0.1186339E+00
        -11   -1    0    0    0    0  0.00000000000E+00  0.00000000000E+00  0.45593999997E+02  0.45594000000E+02  0.51100000000E-03 0.  1.
         11   -1    0    0    0    0 -0.00000000000E+00 -0.00000000000E+00 -0.45593999997E+02  0.45594000000E+02  0.51100000000E-03 0. -1.
    9900012    2    1    2    0    0 -0.57697249223E+00  0.28259873839E-01  0.10294509954E+01  0.90007548718E+02  0.89999807561E+02 0.  0.
         12    1    1    2    0    0  0.57697249223E+00 -0.28259873839E-01 -0.10294509954E+01  0.11804512820E+01  0.00000000000E+00 0. -1.
         11    1    3    3    0    0 -0.35416695766E+02  0.14015560156E+02  0.20079555226E+01  0.38141973613E+02  0.51100000000E-03 0. -1.
        -11    1    3    3    0    0 -0.11348682989E+01  0.33256443503E+01  0.98843030822E+01  0.10490342420E+02  0.51100000000E-03 0.  1.
        -12    1    3    3    0    0  0.35974591572E+02 -0.17312944632E+02 -0.10862807609E+02  0.41375232686E+02  0.00000000000E+00 0.  1.
</event>
<event>
 7    1  0.2316965E-015  0.9000795E+02  0.7816164E-02  0.1186339E+00
        -11   -1    0    0    0    0  0.00000000000E+00  0.00000000000E+00  0.45593999997E+02  0.45594000000E+02  0.51100000000E-03 0.  1.
         11   -1    0    0    0    0 -0.00000000000E+00 -0.00000000000E+00 -0.45593999997E+02  0.45594000000E+02  0.51100000000E-03 0. -1.
    9900012    2    1    2    0    0  0.42678819419E+00  0.76266703668E+00  0.79290487822E+00  0.90007954527E+02  0.90000218727E+02 0.  0.
         12    1    1    2    0    0 -0.42678819419E+00 -0.76266703668E+00 -0.79290487822E+00  0.11800454726E+01  0.00000000000E+00 0. -1.
         11    1    3    3    0    0  0.17718798727E+02  0.15242422331E+02 -0.30990357264E+02  0.38816098599E+02  0.51100000000E-03 0. -1.
        -11    1    3    3    0    0 -0.50745263565E+01 -0.34340625114E+01 -0.68521946510E+01  0.91921800935E+01  0.51100000000E-03 0.  1.
        -12    1    3    3    0    0 -0.12217484176E+02 -0.11045692783E+02  0.38635456793E+02  0.41999675835E+02  0.00000000000E+00 0.  1.
</event>
<event>
 7    1  0.2284751E-015  0.9000768E+02  0.7816164E-02  0.1186339E+00
        -11   -1    0    0    0    0  0.00000000000E+00  0.00000000000E+00  0.45593999997E+02  0.45594000000E+02  0.51100000000E-03 0.  1.
         11   -1    0    0    0    0 -0.00000000000E+00 -0.00000000000E+00 -0.45593999997E+02  0.45594000000E+02  0.51100000000E-03 0. -1.
    9900012    2    1    2    0    0  0.66245473187E+00 -0.56994313823E+00  0.79339627763E+00  0.90007678389E+02  0.89999938943E+02 0.  0.
         12    1    1    2    0    0 -0.66245473187E+00  0.56994313823E+00 -0.79339627763E+00  0.11803216112E+01  0.00000000000E+00 0. -1.
         11    1    3    3    0    0  0.20301606543E+01  0.84311891668E+01  0.14858008218E+01  0.87985287060E+01  0.51100000000E-03 0. -1.
        -11    1    3    3    0    0  0.20668635292E+02 -0.32623475777E+01  0.33874389265E+02  0.39815947118E+02  0.51100000000E-03 0.  1.
         12    1    3    3    0    0 -0.22036341215E+02 -0.57387847273E+01 -0.34566793809E+02  0.41393202564E+02  0.00000000000E+00 0. -1.
</event>
<event>
 7    1  0.2284751E-015  0.9000770E+02  0.7816164E-02  0.1186339E+00
        -11   -1    0    0    0    0  0.00000000000E+00  0.00000000000E+00  0.45593999997E+02  0.45594000000E+02  0.51100000000E-03 0.  1.
         11   -1    0    0    0    0 -0.00000000000E+00 -0.00000000000E+00 -0.45593999997E+02  0.45594000000E+02  0.51100000000E-03 0. -1.
    9900012    2    1    2    0    0 -0.84250362855E-02 -0.92674685947E+00  0.73086782511E+00  0.90007704062E+02  0.89999964956E+02 0.  0.
         12    1    1    2    0    0  0.84250362855E-02  0.92674685947E+00 -0.73086782511E+00  0.11802959377E+01  0.00000000000E+00 0. -1.
         11    1    3    3    0    0 -0.64701365702E+01 -0.65475624563E+01  0.71545656941E+01  0.11658518426E+02  0.51100000000E-03 0. -1.
        -11    1    3    3    0    0 -0.31430462573E+02  0.20319847633E+02 -0.38527757690E+01  0.37624647065E+02  0.51100000000E-03 0.  1.
         12    1    3    3    0    0  0.37892174107E+02 -0.14699032037E+02 -0.25709221000E+01  0.40724538571E+02  0.00000000000E+00 0. -1.
</event>
<event>
 7    1  0.2284751E-015  0.9000827E+02  0.7816164E-02  0.1186338E+00
        -11   -1    0    0    0    0  0.00000000000E+00  0.00000000000E+00  0.45593999997E+02  0.45594000000E+02  0.51100000000E-03 0. -1.
         11   -1    0    0    0    0 -0.00000000000E+00 -0.00000000000E+00 -0.45593999997E+02  0.45594000000E+02  0.51100000000E-03 0.  1.
    9900012    2    1    2    0    0  0.50845949513E+00  0.55099570644E+00 -0.91084919662E+00  0.90008265460E+02  0.90000533762E+02 0.  0.
         12    1    1    2    0    0 -0.50845949513E+00 -0.55099570644E+00  0.91084919662E+00  0.11797345403E+01  0.00000000000E+00 0. -1.
         11    1    3    3    0    0  0.64401850735E+01 -0.12730698901E+02  0.29309208387E+01  0.14564922777E+02  0.51100000000E-03 0. -1.
        -11    1    3    3    0    0  0.22425981443E+00  0.36330463287E+00 -0.38211312964E+02  0.38213698086E+02  0.51100000000E-03 0.  1.
         12    1    3    3    0    0 -0.61559853928E+01  0.12918389974E+02  0.34369542928E+02  0.37229644597E+02  0.00000000000E+00 0. -1.
</event>
<event>
 7    1  0.2284751E-015  0.9000787E+02  0.7816164E-02  0.1186339E+00
        -11   -1    0    0    0    0  0.00000000000E+00  0.00000000000E+00  0.45593999997E+02  0.45594000000E+02  0.51100000000E-03 0.  1.
         11   -1    0    0    0    0 -0.00000000000E+00 -0.00000000000E+00 -0.45593999997E+02  0.45594000000E+02  0.51100000000E-03 0. -1.
    9900012    2    1    2    0    0  0.83744571035E+00 -0.56950776825E+00  0.60585374357E+00  0.90007867306E+02  0.90000130355E+02 0.  0.
         12    1    1    2    0    0 -0.83744571035E+00  0.56950776825E+00 -0.60585374357E+00  0.11801326936E+01  0.00000000000E+00 0. -1.
         11    1    3    3    0    0  0.56346553799E+01  0.36652638267E+02 -0.15896412393E+02  0.40346761461E+02  0.51100000000E-03 0. -1.
        -11    1    3    3    0    0  0.57198991965E+01 -0.66010814146E+01 -0.56758333840E+01  0.10416650495E+02  0.51100000000E-03 0.  1.
        -12    1    3    3    0    0 -0.10517108866E+02 -0.30621064621E+02  0.22178099521E+02  0.39244455350E+02  0.00000000000E+00 0.  1.
</event>
<event>
 7    1  0.2284751E-015  0.9000796E+02  0.7816164E-02  0.1186339E+00
        -11   -1    0    0    0    0  0.00000000000E+00  0.00000000000E+00  0.45593999997E+02  0.45594000000E+02  0.51100000000E-03 0. -1.
         11   -1    0    0    0    0 -0.00000000000E+00 -0.00000000000E+00 -0.45593999997E+02  0.45594000000E+02  0.51100000000E-03 0.  1.
    9900012    2    1    2    0    0  0.38330173969E+00 -0.11145572004E+01  0.57667586308E-01  0.90007964608E+02  0.90000228940E+02 0.  0.
         12    1    1    2    0    0 -0.38330173969E+00  0.11145572004E+01 -0.57667586308E-01  0.11800353923E+01  0.00000000000E+00 0. -1.
         11    1    3    3    0    0 -0.24588554235E+01  0.60299305688E+01 -0.63069607206E+01  0.90655273675E+01  0.51100000000E-03 0. -1.
        -11    1    3    3    0    0 -0.82504358408E+00 -0.26068202307E+02 -0.30020011156E+02  0.39767234484E+02  0.51100000000E-03 0.  1.
         12    1    3    3    0    0  0.36672007472E+01  0.18923714538E+02  0.36384639463E+02  0.41175202757E+02  0.00000000000E+00 0. -1.
</event>
<event>
 7    1  0.2284751E-015  0.9000770E+02  0.7816164E-02  0.1186339E+00
        -11   -1    0    0    0    0  0.00000000000E+00  0.00000000000E+00  0.45593999997E+02  0.45594000000E+02  0.51100000000E-03 0. -1.
         11   -1    0    0    0    0 -0.00000000000E+00 -0.00000000000E+00 -0.45593999997E+02  0.45594000000E+02  0.51100000000E-03 0.  1.
    9900012    2    1    2    0    0 -0.77936064936E+00 -0.27240341622E+00 -0.84349935939E+00  0.90007704354E+02  0.89999965251E+02 0.  0.
         12    1    1    2    0    0  0.77936064936E+00  0.27240341622E+00  0.84349935939E+00  0.11802956461E+01  0.00000000000E+00 0. -1.
         11    1    3    3    0    0 -0.50582346327E+01  0.41615983478E+01 -0.65186697156E+01  0.92410872483E+01  0.51100000000E-03 0. -1.
        -11    1    3    3    0    0  0.39139622821E+02 -0.24630810563E+01 -0.12813515511E+02  0.41257278424E+02  0.51100000000E-03 0.  1.
         12    1    3    3    0    0 -0.34860748838E+02 -0.19709207077E+01  0.18488685867E+02  0.39509338682E+02  0.00000000000E+00 0. -1.
</event>
<event>
 7    1  0.2284751E-015  0.9000765E+02  0.7816164E-02  0.1186339E+00
        -11   -1    0    0    0    0  0.00000000000E+00  0.00000000000E+00  0.45593999997E+02  0.45594000000E+02  0.51100000000E-03 0. -1.
         11   -1    0    0    0    0 -0.00000000000E+00 -0.00000000000E+00 -0.45593999997E+02  0.45594000000E+02  0.51100000000E-03 0.  1.
    9900012    2    1    2    0    0  0.54880513963E+00 -0.10417949692E+01 -0.81921150411E-01  0.90007646276E+02  0.89999906407E+02 0.  0.
         12    1    1    2    0    0 -0.54880513963E+00  0.10417949692E+01  0.81921150411E-01  0.11803537241E+01  0.00000000000E+00 0. -1.
         11    1    3    3    0    0  0.17551972795E+02 -0.15698942120E+02  0.26953374967E+02  0.35791241317E+02  0.51100000000E-03 0. -1.
        -11    1    3    3    0    0  0.20049533622E+01  0.13366146393E+01  0.10122256570E+02  0.10405116770E+02  0.51100000000E-03 0.  1.
        -12    1    3    3    0    0 -0.19008121018E+02  0.13320532511E+02 -0.37157552687E+02  0.43811288188E+02  0.00000000000E+00 0.  1.
</event>
<event>
 7    1  0.2284751E-015  0.9000778E+02  0.7816164E-02  0.1186339E+00
        -11   -1    0    0    0    0  0.00000000000E+00  0.00000000000E+00  0.45593999997E+02  0.45594000000E+02  0.51100000000E-03 0. -1.
         11   -1    0    0    0    0 -0.00000000000E+00 -0.00000000000E+00 -0.45593999997E+02  0.45594000000E+02  0.51100000000E-03 0.  1.
    9900012    2    1    2    0    0 -0.48637238896E+00  0.12135111765E+00 -0.10684723862E+01  0.90007780768E+02  0.90000042675E+02 0.  0.
         12    1    1    2    0    0  0.48637238896E+00 -0.12135111765E+00  0.10684723862E+01  0.11802192315E+01  0.00000000000E+00 0. -1.
         11    1    3    3    0    0 -0.11940059522E+02  0.60410442227E+00  0.17920634242E+01  0.12088898011E+02  0.51100000000E-03 0. -1.
        -11    1    3    3    0    0  0.13537325964E+02 -0.30154531785E+02  0.21534430482E+02  0.39449799465E+02  0.51100000000E-03 0.  1.
         12    1    3    3    0    0 -0.20836388307E+01  0.29671778480E+02 -0.24394966292E+02  0.38469083292E+02  0.00000000000E+00 0. -1.
</event>
<event>
 7    1  0.2284751E-015  0.9000774E+02  0.7816164E-02  0.1186339E+00
        -11   -1    0    0    0    0  0.00000000000E+00  0.00000000000E+00  0.45593999997E+02  0.45594000000E+02  0.51100000000E-03 0. -1.
         11   -1    0    0    0    0 -0.00000000000E+00 -0.00000000000E+00 -0.45593999997E+02  0.45594000000E+02  0.51100000000E-03 0.  1.
    9900012    2    1    2    0    0 -0.52724822847E+00 -0.89806020456E+00 -0.55544262502E+00  0.90007737599E+02  0.89999998935E+02 0.  0.
         12    1    1    2    0    0  0.52724822847E+00  0.89806020456E+00  0.55544262502E+00  0.11802624010E+01  0.00000000000E+00 0. -1.
         11    1    3    3    0    0 -0.54278365509E+00  0.23895810282E+01 -0.86698872595E+01  0.90095314495E+01  0.51100000000E-03 0. -1.
        -11    1    3    3    0    0  0.26038155925E+02 -0.27530220372E+02 -0.12486334268E+02  0.39897457831E+02  0.51100000000E-03 0.  1.
         12    1    3    3    0    0 -0.26022620498E+02  0.24242579139E+02  0.20600778902E+02  0.41100748318E+02  0.00000000000E+00 0. -1.
</event>
<event>
 7    1  0.2284751E-015  0.9000769E+02  0.7816164E-02  0.1186339E+00
        -11   -1    0    0    0    0  0.00000000000E+00  0.00000000000E+00  0.45593999997E+02  0.45594000000E+02  0.51100000000E-03 0. -1.
         11   -1    0    0    0    0 -0.00000000000E+00 -0.00000000000E+00 -0.45593999997E+02  0.45594000000E+02  0.51100000000E-03 0.  1.
    9900012    2    1    2    0    0  0.13749328470E+00  0.71622129932E+00 -0.92804340771E+00  0.90007685669E+02  0.89999946320E+02 0.  0.
         12    1    1    2    0    0 -0.13749328470E+00 -0.71622129932E+00  0.92804340771E+00  0.11803143308E+01  0.00000000000E+00 0. -1.
         11    1    3    3    0    0  0.19207531737E+01 -0.52834953919E+01 -0.51708624593E+01  0.76382219885E+01  0.51100000000E-03 0. -1.
        -11    1    3    3    0    0 -0.33397801842E+02 -0.95114004369E+01 -0.19568678699E+02  0.39859918369E+02  0.51100000000E-03 0.  1.
         12    1    3    3    0    0  0.31614541953E+02  0.15511117128E+02  0.23811497750E+02  0.42509545311E+02  0.00000000000E+00 0. -1.
</event>
<event>
 7    1  0.2284751E-015  0.9000765E+02  0.7816164E-02  0.1186339E+00
        -11   -1    0    0    0    0  0.00000000000E+00  0.00000000000E+00  0.45593999997E+02  0.45594000000E+02  0.51100000000E-03 0. -1.
         11   -1    0    0    0    0 -0.00000000000E+00 -0.00000000000E+00 -0.45593999997E+02  0.45594000000E+02  0.51100000000E-03 0.  1.
    9900012    2    1    2    0    0 -0.10753430278E+01  0.14359968252E+00 -0.46501191913E+00  0.90007652771E+02  0.89999912987E+02 0.  0.
         12    1    1    2    0    0  0.10753430278E+01 -0.14359968252E+00  0.46501191913E+00  0.11803472291E+01  0.00000000000E+00 0. -1.
         11    1    3    3    0    0 -0.17851220843E+02 -0.27446997879E+02  0.26219572729E+02  0.41946034050E+02  0.51100000000E-03 0. -1.
        -11    1    3    3    0    0 -0.47876721078E+00 -0.16166443252E+01 -0.10212372245E+02  0.10350618534E+02  0.51100000000E-03 0.  1.
        -12    1    3    3    0    0  0.17254645026E+02  0.29207241887E+02 -0.16472212404E+02  0.37711000187E+02  0.00000000000E+00 0.  1.
</event>
<event>
 7    1  0.2284751E-015  0.9000764E+02  0.7816164E-02  0.1186339E+00
        -11   -1    0    0    0    0  0.00000000000E+00  0.00000000000E+00  0.45593999997E+02  0.45594000000E+02  0.51100000000E-03 0. -1.
         11   -1    0    0    0    0 -0.00000000000E+00 -0.00000000000E+00 -0.45593999997E+02  0.45594000000E+02  0.51100000000E-03 0.  1.
    9900012    2    1    2    0    0 -0.12808520607E+00 -0.68338524682E+00 -0.95385221706E+00  0.90007637654E+02  0.89999897671E+02 0.  0.
         12    1    1    2    0    0  0.12808520607E+00  0.68338524682E+00  0.95385221706E+00  0.11803623459E+01  0.00000000000E+00 0. -1.
         11    1    3    3    0    0  0.13210307392E+01 -0.32636234517E+01 -0.91277817240E+01  0.97832898204E+01  0.51100000000E-03 0. -1.
        -11    1    3    3    0    0  0.69163415336E+01  0.17254724315E+02 -0.31796240639E+02  0.36831538258E+02  0.51100000000E-03 0.  1.
         12    1    3    3    0    0 -0.83654574789E+01 -0.14674486110E+02  0.39970170146E+02  0.43392809576E+02  0.00000000000E+00 0. -1.
</event>
<event>
 7    1  0.2284751E-015  0.9000775E+02  0.7816164E-02  0.1186339E+00
        -11   -1    0    0    0    0  0.00000000000E+00  0.00000000000E+00  0.45593999997E+02  0.45594000000E+02  0.51100000000E-03 0.  1.
         11   -1    0    0    0    0 -0.00000000000E+00 -0.00000000000E+00 -0.45593999997E+02  0.45594000000E+02  0.51100000000E-03 0. -1.
    9900012    2    1    2    0    0  0.59175473467E+00  0.10030413843E+01 -0.19161957093E+00  0.90007752676E+02  0.90000014212E+02 0.  0.
         12    1    1    2    0    0 -0.59175473467E+00 -0.10030413843E+01  0.19161957093E+00  0.11802473235E+01  0.00000000000E+00 0. -1.
         11    1    3    3    0    0  0.32662585713E+01  0.29555807455E+02  0.22955861057E+02  0.37565752442E+02  0.51100000000E-03 0. -1.
        -11    1    3    3    0    0 -0.17884670280E+01 -0.14626444785E+01  0.96335081719E+01  0.99066857798E+01  0.51100000000E-03 0.  1.
        -12    1    3    3    0    0 -0.88603680860E+00 -0.27090121592E+02 -0.32780988800E+02  0.42535314455E+02  0.00000000000E+00 0.  1.
</event>
<event>
 7    1  0.2284751E-015  0.9000775E+02  0.7816164E-02  0.1186339E+00
        -11   -1    0    0    0    0  0.00000000000E+00  0.00000000000E+00  0.45593999997E+02  0.45594000000E+02  0.51100000000E-03 0.  1.
         11   -1    0    0    0    0 -0.00000000000E+00 -0.00000000000E+00 -0.45593999997E+02  0.45594000000E+02  0.51100000000E-03 0. -1.
    9900012    2    1    2    0    0 -0.98521366158E+00  0.41058672725E+00 -0.50375941862E+00  0.90007745379E+02  0.90000006818E+02 0.  0.
         12    1    1    2    0    0  0.98521366158E+00 -0.41058672725E+00  0.50375941862E+00  0.11802546214E+01  0.00000000000E+00 0. -1.
         11    1    3    3    0    0 -0.25732977752E+01 -0.26101967318E+01  0.52200690327E+01  0.63784096283E+01  0.51100000000E-03 0. -1.
        -11    1    3    3    0    0  0.73803301506E+01  0.16783664053E+02  0.35406678572E+02  0.39872215137E+02  0.51100000000E-03 0.  1.
         12    1    3    3    0    0 -0.57922460370E+01 -0.13762880594E+02 -0.41130507023E+02  0.43757120613E+02  0.00000000000E+00 0. -1.
</event>
<event>
 7    1  0.2284751E-015  0.9000780E+02  0.7816164E-02  0.1186339E+00
        -11   -1    0    0    0    0  0.00000000000E+00  0.00000000000E+00  0.45593999997E+02  0.45594000000E+02  0.51100000000E-03 0. -1.
         11   -1    0    0    0    0 -0.00000000000E+00 -0.00000000000E+00 -0.45593999997E+02  0.45594000000E+02  0.51100000000E-03 0.  1.
    9900012    2    1    2    0    0  0.15480823968E+00 -0.11570574520E+00  0.11642716885E+01  0.90007795791E+02  0.90000057895E+02 0.  0.
         12    1    1    2    0    0 -0.15480823968E+00  0.11570574520E+00 -0.11642716885E+01  0.11802042091E+01  0.00000000000E+00 0. -1.
         11    1    3    3    0    0 -0.17074749902E+02 -0.28960784028E+02  0.12432320113E+02  0.35844618555E+02  0.51100000000E-03 0. -1.
        -11    1    3    3    0    0 -0.85958514637E+01 -0.52740401746E+01 -0.83915675816E+00  0.10119700908E+02  0.51100000000E-03 0.  1.
        -12    1    3    3    0    0  0.25825409605E+02  0.34119118458E+02 -0.10428891666E+02  0.44043476327E+02  0.00000000000E+00 0.  1.
</event>
<event>
 7    1  0.2284751E-015  0.9000771E+02  0.7816164E-02  0.1186339E+00
        -11   -1    0    0    0    0  0.00000000000E+00  0.00000000000E+00  0.45593999997E+02  0.45594000000E+02  0.51100000000E-03 0.  1.
         11   -1    0    0    0    0 -0.00000000000E+00 -0.00000000000E+00 -0.45593999997E+02  0.45594000000E+02  0.51100000000E-03 0. -1.
    9900012    2    1    2    0    0 -0.97776248051E+00  0.53833373227E+00 -0.38374246011E+00  0.90007711497E+02  0.89999972488E+02 0.  0.
         12    1    1    2    0    0  0.97776248051E+00 -0.53833373227E+00  0.38374246011E+00  0.11802885034E+01  0.00000000000E+00 0. -1.
         11    1    3    3    0    0  0.71275660903E+01  0.81030883313E+01 -0.46053822067E+01  0.11733362025E+02  0.51100000000E-03 0. -1.
        -11    1    3    3    0    0 -0.99228832088E+01  0.28030985185E+02  0.23364675881E+02  0.37816766399E+02  0.51100000000E-03 0.  1.
         12    1    3    3    0    0  0.18175546380E+01 -0.35595739784E+02 -0.19143036134E+02  0.40457583072E+02  0.00000000000E+00 0. -1.
</event>
<event>
 7    1  0.2284751E-015  0.9000770E+02  0.7816164E-02  0.1186339E+00
        -11   -1    0    0    0    0  0.00000000000E+00  0.00000000000E+00  0.45593999997E+02  0.45594000000E+02  0.51100000000E-03 0. -1.
         11   -1    0    0    0    0 -0.00000000000E+00 -0.00000000000E+00 -0.45593999997E+02  0.45594000000E+02  0.51100000000E-03 0.  1.
    9900012    2    1    2    0    0  0.11446058587E+01  0.15439471822E+00  0.24321264520E+00  0.90007698051E+02  0.89999958865E+02 0.  0.
         12    1    1    2    0    0 -0.11446058587E+01 -0.15439471822E+00 -0.24321264520E+00  0.11803019494E+01  0.00000000000E+00 0. -1.
         11    1    3    3    0    0  0.63832974275E+01  0.63203122766E+01  0.63930179471E+01  0.11025584431E+02  0.51100000000E-03 0. -1.
        -11    1    3    3    0    0  0.33787192552E+02 -0.17478635602E+02 -0.13170647827E+01  0.38063259752E+02  0.51100000000E-03 0.  1.
         12    1    3    3    0    0 -0.39025884120E+02  0.11312718043E+02 -0.48327405191E+01  0.40918853868E+02  0.00000000000E+00 0. -1.
</event>
<event>
 7    1  0.2284751E-015  0.9000772E+02  0.7816164E-02  0.1186339E+00
        -11   -1    0    0    0    0  0.00000000000E+00  0.00000000000E+00  0.45593999997E+02  0.45594000000E+02  0.51100000000E-03 0.  1.
         11   -1    0    0    0    0 -0.00000000000E+00 -0.00000000000E+00 -0.45593999997E+02  0.45594000000E+02  0.51100000000E-03 0. -1.
    9900012    2    1    2    0    0  0.28547106253E+00  0.96381385919E+00  0.61856457354E+00  0.90007723331E+02  0.89999984479E+02 0.  0.
         12    1    1    2    0    0 -0.28547106253E+00 -0.96381385919E+00 -0.61856457354E+00  0.11802766686E+01  0.00000000000E+00 0. -1.
         11    1    3    3    0    0 -0.65335343803E+01  0.62509965669E+01 -0.49274946503E+01  0.10297680970E+02  0.51100000000E-03 0. -1.
        -11    1    3    3    0    0 -0.30844951001E+02  0.17171880741E+01  0.22092783829E+02  0.37979610777E+02  0.51100000000E-03 0.  1.
         12    1    3    3    0    0  0.37663956444E+02 -0.70043707818E+01 -0.16546724605E+02  0.41730431585E+02  0.00000000000E+00 0. -1.
</event>
<event>
 7    1  0.2284751E-015  0.9000780E+02  0.7816164E-02  0.1186339E+00
        -11   -1    0    0    0    0  0.00000000000E+00  0.00000000000E+00  0.45593999997E+02  0.45594000000E+02  0.51100000000E-03 0.  1.
         11   -1    0    0    0    0 -0.00000000000E+00 -0.00000000000E+00 -0.45593999997E+02  0.45594000000E+02  0.51100000000E-03 0. -1.
    9900012    2    1    2    0    0  0.54406988084E+00 -0.70205952595E+00  0.77716387344E+00  0.90007795230E+02  0.90000057327E+02 0.  0.
         12    1    1    2    0    0 -0.54406988084E+00  0.70205952595E+00 -0.77716387344E+00  0.11802047701E+01  0.00000000000E+00 0. -1.
         11    1    3    3    0    0 -0.77625864115E+01 -0.91757706240E+01 -0.31755075682E+02  0.33953458530E+02  0.51100000000E-03 0. -1.
        -11    1    3    3    0    0 -0.17081897898E+02  0.92817556390E+01  0.89813437787E+01  0.21415105881E+02  0.51100000000E-03 0.  1.
        -12    1    3    3    0    0  0.25388554191E+02 -0.80804454092E+00  0.23550895776E+02  0.34639230819E+02  0.00000000000E+00 0.  1.
</event>
<event>
 7    1  0.2284751E-015  0.9000771E+02  0.7816164E-02  0.1186339E+00
        -11   -1    0    0    0    0  0.00000000000E+00  0.00000000000E+00  0.45593999997E+02  0.45594000000E+02  0.51100000000E-03 0.  1.
         11   -1    0    0    0    0 -0.00000000000E+00 -0.00000000000E+00 -0.45593999997E+02  0.45594000000E+02  0.51100000000E-03 0. -1.
    9900012    2    1    2    0    0 -0.52050411901E+00  0.40958678867E+00  0.97693733520E+00  0.90007706633E+02  0.89999967561E+02 0.  0.
         12    1    1    2    0    0  0.52050411901E+00 -0.40958678867E+00 -0.97693733520E+00  0.11802933670E+01  0.00000000000E+00 0. -1.
         11    1    3    3    0    0  0.86841186085E+01  0.34794628365E+01 -0.75804947998E+01  0.12040950100E+02  0.51100000000E-03 0. -1.
        -11    1    3    3    0    0  0.16849261328E+02  0.30539032160E+02  0.19667011530E+01  0.34934195371E+02  0.51100000000E-03 0.  1.
         12    1    3    3    0    0 -0.26053884055E+02 -0.33608908208E+02  0.65907309820E+01  0.43032561162E+02  0.00000000000E+00 0. -1.
</event>
<event>
 7    1  0.2284751E-015  0.9000769E+02  0.7816164E-02  0.1186339E+00
        -11   -1    0    0    0    0  0.00000000000E+00  0.00000000000E+00  0.45593999997E+02  0.45594000000E+02  0.51100000000E-03 0. -1.
         11   -1    0    0    0    0 -0.00000000000E+00 -0.00000000000E+00 -0.45593999997E+02  0.45594000000E+02  0.51100000000E-03 0.  1.
    9900012    2    1    2    0    0 -0.55177864207E+00  0.61357591991E-02 -0.10433812467E+01  0.90007685744E+02  0.89999946396E+02 0.  0.
         12    1    1    2    0    0  0.55177864207E+00 -0.61357591991E-02  0.10433812467E+01  0.11803142562E+01  0.00000000000E+00 0. -1.
         11    1    3    3    0    0  0.18197825747E+02 -0.24989777465E+02  0.30241808707E+02  0.43246003674E+02  0.51100000000E-03 0. -1.
        -11    1    3    3    0    0  0.23012151340E+01  0.44538830160E+01 -0.70491257754E+01  0.86500196226E+01  0.51100000000E-03 0.  1.
        -12    1    3    3    0    0 -0.21050819523E+02  0.20542030208E+02 -0.24236064178E+02  0.38111662447E+02  0.00000000000E+00 0.  1.
</event>
<event>
 7    1  0.2284751E-015  0.9000782E+02  0.7816164E-02  0.1186339E+00
        -11   -1    0    0    0    0  0.00000000000E+00  0.00000000000E+00  0.45593999997E+02  0.45594000000E+02  0.51100000000E-03 0.  1.
         11   -1    0    0    0    0 -0.00000000000E+00 -0.00000000000E+00 -0.45593999997E+02  0.45594000000E+02  0.51100000000E-03 0. -1.
    9900012    2    1    2    0    0  0.56554277530E+00 -0.21010435185E+00  0.10143149930E+01  0.90007823160E+02  0.90000085625E+02 0.  0.
         12    1    1    2    0    0 -0.56554277530E+00  0.21010435185E+00 -0.10143149930E+01  0.11801768403E+01  0.00000000000E+00 0. -1.
         11    1    3    3    0    0  0.11415870570E+02 -0.11176688667E+02 -0.38270908429E+02  0.41471712078E+02  0.51100000000E-03 0. -1.
        -11    1    3    3    0    0  0.27838211435E+01  0.39085795828E+01 -0.14425516018E+01  0.50107494349E+01  0.51100000000E-03 0.  1.
        -12    1    3    3    0    0 -0.13634148938E+02  0.70580047321E+01  0.40727775024E+02  0.43525361647E+02  0.00000000000E+00 0.  1.
</event>
<event>
 7    1  0.2284751E-015  0.9000790E+02  0.7816164E-02  0.1186339E+00
        -11   -1    0    0    0    0  0.00000000000E+00  0.00000000000E+00  0.45593999997E+02  0.45594000000E+02  0.51100000000E-03 0.  1.
         11   -1    0    0    0    0 -0.00000000000E+00 -0.00000000000E+00 -0.45593999997E+02  0.45594000000E+02  0.51100000000E-03 0. -1.
    9900012    2    1    2    0    0 -0.99005367203E+00 -0.57062056081E+00 -0.29464003865E+00  0.90007903881E+02  0.90000167412E+02 0.  0.
         12    1    1    2    0    0  0.99005367203E+00  0.57062056081E+00  0.29464003865E+00  0.11800961191E+01  0.00000000000E+00 0. -1.
         11    1    3    3    0    0  0.18778133075E+02 -0.15338948690E+02 -0.29053938400E+02  0.37842211425E+02  0.51100000000E-03 0. -1.
        -11    1    3    3    0    0  0.16341655088E+01  0.51773904441E+01 -0.73321511595E+01  0.91233935357E+01  0.51100000000E-03 0.  1.
        -12    1    3    3    0    0 -0.21402352256E+02  0.95909376852E+01  0.36091449521E+02  0.43042298920E+02  0.00000000000E+00 0.  1.
</event>
<event>
 7    1  0.2284751E-015  0.9000764E+02  0.7816164E-02  0.1186339E+00
        -11   -1    0    0    0    0  0.00000000000E+00  0.00000000000E+00  0.45593999997E+02  0.45594000000E+02  0.51100000000E-03 0.  1.
         11   -1    0    0    0    0 -0.00000000000E+00 -0.00000000000E+00 -0.45593999997E+02  0.45594000000E+02  0.51100000000E-03 0. -1.
    9900012    2    1    2    0    0  0.97773581738E+00 -0.30520095807E+00 -0.58663187092E+00  0.90007639078E+02  0.89999899114E+02 0.  0.
         12    1    1    2    0    0 -0.97773581738E+00  0.30520095807E+00  0.58663187092E+00  0.11803609217E+01  0.00000000000E+00 0. -1.
         11    1    3    3    0    0  0.34212540734E+02 -0.17586121787E+02 -0.89581228038E+01  0.39497057959E+02  0.51100000000E-03 0. -1.
        -11    1    3    3    0    0  0.24486008682E+01 -0.18128647938E+01  0.95484894676E+01  0.10022762910E+02  0.51100000000E-03 0.  1.
        -12    1    3    3    0    0 -0.35683405785E+02  0.19093785623E+02 -0.11769985347E+01  0.40487818209E+02  0.00000000000E+00 0.  1.
</event>
<event>
 7    1  0.2284751E-015  0.9000780E+02  0.7816164E-02  0.1186339E+00
        -11   -1    0    0    0    0  0.00000000000E+00  0.00000000000E+00  0.45593999997E+02  0.45594000000E+02  0.51100000000E-03 0.  1.
         11   -1    0    0    0    0 -0.00000000000E+00 -0.00000000000E+00 -0.45593999997E+02  0.45594000000E+02  0.51100000000E-03 0. -1.
    9900012    2    1    2    0    0  0.70181067799E+00  0.53104433719E+00  0.78633043491E+00  0.90007804309E+02  0.90000066526E+02 0.  0.
         12    1    1    2    0    0 -0.70181067799E+00 -0.53104433719E+00 -0.78633043491E+00  0.11801956908E+01  0.00000000000E+00 0. -1.
         11    1    3    3    0    0 -0.38503423944E+02  0.98335946262E+00  0.13035637202E+02  0.40662125974E+02  0.51100000000E-03 0. -1.
        -11    1    3    3    0    0  0.63245791682E+01 -0.98051357653E+01  0.27929362160E+01  0.11997561502E+02  0.51100000000E-03 0.  1.
        -12    1    3    3    0    0  0.32880655454E+02  0.93528206399E+01 -0.15042242983E+02  0.37348116833E+02  0.00000000000E+00 0.  1.
</event>
<event>
 7    1  0.2284751E-015  0.9000772E+02  0.7816164E-02  0.1186339E+00
        -11   -1    0    0    0    0  0.00000000000E+00  0.00000000000E+00  0.45593999997E+02  0.45594000000E+02  0.51100000000E-03 0.  1.
         11   -1    0    0    0    0 -0.00000000000E+00 -0.00000000000E+00 -0.45593999997E+02  0.45594000000E+02  0.51100000000E-03 0. -1.
    9900012    2    1    2    0    0  0.68952479553E+00  0.80345477779E+00  0.52161678373E+00  0.90007716944E+02  0.89999978007E+02 0.  0.
         12    1    1    2    0    0 -0.68952479553E+00 -0.80345477779E+00 -0.52161678373E+00  0.11802830562E+01  0.00000000000E+00 0. -1.
         11    1    3    3    0    0 -0.36127254184E+02 -0.19942432044E+01  0.47197635986E+01  0.36488788271E+02  0.51100000000E-03 0. -1.
        -11    1    3    3    0    0 -0.64610831902E+01  0.19466578998E+01  0.60200242544E+01  0.90429953696E+01  0.51100000000E-03 0.  1.
        -12    1    3    3    0    0  0.43277862169E+02  0.85104008235E+00 -0.10218171069E+02  0.44475933303E+02  0.00000000000E+00 0.  1.
</event>
<event>
 7    1  0.2284751E-015  0.9000769E+02  0.7816164E-02  0.1186339E+00
        -11   -1    0    0    0    0  0.00000000000E+00  0.00000000000E+00  0.45593999997E+02  0.45594000000E+02  0.51100000000E-03 0.  1.
         11   -1    0    0    0    0 -0.00000000000E+00 -0.00000000000E+00 -0.45593999997E+02  0.45594000000E+02  0.51100000000E-03 0. -1.
    9900012    2    1    2    0    0  0.53425337844E+00  0.74907789340E+00  0.73931994659E+00  0.90007687183E+02  0.89999947854E+02 0.  0.
         12    1    1    2    0    0 -0.53425337844E+00 -0.74907789340E+00 -0.73931994659E+00  0.11803128171E+01  0.00000000000E+00 0. -1.
         11    1    3    3    0    0  0.42636813401E+01  0.35969198205E+02 -0.19671959659E+02  0.41218299276E+02  0.51100000000E-03 0. -1.
        -11    1    3    3    0    0 -0.13198152549E+01 -0.41085827485E+01 -0.63523256259E+01  0.76794795153E+01  0.51100000000E-03 0.  1.
        -12    1    3    3    0    0 -0.24096127067E+01 -0.31111537564E+02  0.26763605232E+02  0.41109908392E+02  0.00000000000E+00 0.  1.
</event>
<event>
 7    1  0.2284751E-015  0.9000763E+02  0.7816164E-02  0.1186339E+00
        -11   -1    0    0    0    0  0.00000000000E+00  0.00000000000E+00  0.45593999997E+02  0.45594000000E+02  0.51100000000E-03 0.  1.
         11   -1    0    0    0    0 -0.00000000000E+00 -0.00000000000E+00 -0.45593999997E+02  0.45594000000E+02  0.51100000000E-03 0. -1.
    9900012    2    1    2    0    0 -0.52824907253E+00  0.78445396088E+00  0.70629450681E+00  0.90007632672E+02  0.89999892623E+02 0.  0.
         12    1    1    2    0    0  0.52824907253E+00 -0.78445396088E+00 -0.70629450681E+00  0.11803673283E+01  0.00000000000E+00 0. -1.
         11    1    3    3    0    0 -0.22766571044E+02  0.89598782297E+01 -0.30995776943E+02  0.39488407964E+02  0.51100000000E-03 0. -1.
        -11    1    3    3    0    0 -0.71781044312E+01  0.30819864418E+01  0.70371498984E+01  0.10514052625E+02  0.51100000000E-03 0.  1.
        -12    1    3    3    0    0  0.29416426403E+02 -0.11257410711E+02  0.24664921551E+02  0.40005172082E+02  0.00000000000E+00 0.  1.
</event>
<event>
 7    1  0.2284751E-015  0.9000773E+02  0.7816164E-02  0.1186339E+00
        -11   -1    0    0    0    0  0.00000000000E+00  0.00000000000E+00  0.45593999997E+02  0.45594000000E+02  0.51100000000E-03 0.  1.
         11   -1    0    0    0    0 -0.00000000000E+00 -0.00000000000E+00 -0.45593999997E+02  0.45594000000E+02  0.51100000000E-03 0. -1.
    9900012    2    1    2    0    0  0.11737114223E+01 -0.10133424235E-01  0.12388529324E+00  0.90007725136E+02  0.89999986308E+02 0.  0.
         12    1    1    2    0    0 -0.11737114223E+01  0.10133424235E-01 -0.12388529324E+00  0.11802748641E+01  0.00000000000E+00 0. -1.
         11    1    3    3    0    0  0.49774439277E+01 -0.73020142446E+01  0.69693810071E+01  0.11254627136E+02  0.51100000000E-03 0. -1.
        -11    1    3    3    0    0 -0.38226794885E+02 -0.23017133783E+01  0.95008302571E+01  0.39456957656E+02  0.51100000000E-03 0.  1.
         12    1    3    3    0    0  0.34423062379E+02  0.95935941987E+01 -0.16346325971E+02  0.39296140344E+02  0.00000000000E+00 0. -1.
</event>
<event>
 7    1  0.3213170E-015  0.9000754E+02  0.7816164E-02  0.1186339E+00
        -11   -1    0    0    0    0  0.00000000000E+00  0.00000000000E+00  0.45593999997E+02  0.45594000000E+02  0.51100000000E-03 0. -1.
         11   -1    0    0    0    0 -0.00000000000E+00 -0.00000000000E+00 -0.45593999997E+02  0.45594000000E+02  0.51100000000E-03 0.  1.
    9900012    2    1    2    0    0 -0.44409422719E+00 -0.10457237500E+01 -0.32051924099E+00  0.90007538045E+02  0.89999796747E+02 0.  0.
         12    1    1    2    0    0  0.44409422719E+00  0.10457237500E+01  0.32051924099E+00  0.11804619553E+01  0.00000000000E+00 0. -1.
         11    1    3    3    0    0  0.77851594730E+01  0.39764488484E+02  0.96126318889E+01  0.41644038523E+02  0.51100000000E-03 0. -1.
        -11    1    3    3    0    0 -0.50345591594E+01 -0.60304901080E+01  0.60874236368E+01  0.99383259993E+01  0.51100000000E-03 0.  1.
        -12    1    3    3    0    0 -0.31946945408E+01 -0.34779722126E+02 -0.16020574767E+02  0.38425173522E+02  0.00000000000E+00 0.  1.
</event>
<event>
 7    1  0.2284751E-015  0.9000774E+02  0.7816164E-02  0.1186339E+00
        -11   -1    0    0    0    0  0.00000000000E+00  0.00000000000E+00  0.45593999997E+02  0.45594000000E+02  0.51100000000E-03 0.  1.
         11   -1    0    0    0    0 -0.00000000000E+00 -0.00000000000E+00 -0.45593999997E+02  0.45594000000E+02  0.51100000000E-03 0. -1.
    9900012    2    1    2    0    0  0.99759094771E+00 -0.14170050792E+00  0.61461530053E+00  0.90007737868E+02  0.89999999208E+02 0.  0.
         12    1    1    2    0    0 -0.99759094771E+00  0.14170050792E+00 -0.61461530053E+00  0.11802621321E+01  0.00000000000E+00 0. -1.
         11    1    3    3    0    0  0.27870377882E+02 -0.72492657994E+01 -0.27879755896E+02  0.40082297926E+02  0.51100000000E-03 0. -1.
        -11    1    3    3    0    0  0.61659934433E+01 -0.13223956494E+01  0.16212461431E+01  0.65112705914E+01  0.51100000000E-03 0.  1.
        -12    1    3    3    0    0 -0.33038780378E+02  0.84299609409E+01  0.26873125053E+02  0.43414169351E+02  0.00000000000E+00 0.  1.
</event>
<event>
 7    1  0.2284751E-015  0.9000768E+02  0.7816164E-02  0.1186339E+00
        -11   -1    0    0    0    0  0.00000000000E+00  0.00000000000E+00  0.45593999997E+02  0.45594000000E+02  0.51100000000E-03 0. -1.
         11   -1    0    0    0    0 -0.00000000000E+00 -0.00000000000E+00 -0.45593999997E+02  0.45594000000E+02  0.51100000000E-03 0.  1.
    9900012    2    1    2    0    0  0.34844751288E+00  0.26427337452E+00 -0.10963109525E+01  0.90007680641E+02  0.89999941225E+02 0.  0.
         12    1    1    2    0    0 -0.34844751288E+00 -0.26427337452E+00  0.10963109525E+01  0.11803193595E+01  0.00000000000E+00 0. -1.
         11    1    3    3    0    0 -0.55162585862E+01  0.39568987082E+02 -0.82224303526E+01  0.40788996171E+02  0.51100000000E-03 0. -1.
        -11    1    3    3    0    0 -0.85877662854E+01 -0.11319866269E+02 -0.55674468794E+01  0.15260588689E+02  0.51100000000E-03 0.  1.
        -12    1    3    3    0    0  0.14452472385E+02 -0.27984847438E+02  0.12693566279E+02  0.33958095780E+02  0.00000000000E+00 0.  1.
</event>
<event>
 7    1  0.2284751E-015  0.9000786E+02  0.7816164E-02  0.1186339E+00
        -11   -1    0    0    0    0  0.00000000000E+00  0.00000000000E+00  0.45593999997E+02  0.45594000000E+02  0.51100000000E-03 0.  1.
         11   -1    0    0    0    0 -0.00000000000E+00 -0.00000000000E+00 -0.45593999997E+02  0.45594000000E+02  0.51100000000E-03 0. -1.
    9900012    2    1    2    0    0 -0.37139565222E+00  0.30348458917E+00  0.10782860559E+01  0.90007856600E+02  0.90000119507E+02 0.  0.
         12    1    1    2    0    0  0.37139565222E+00 -0.30348458917E+00 -0.10782860559E+01  0.11801434001E+01  0.00000000000E+00 0. -1.
         11    1    3    3    0    0 -0.40684827950E+01  0.22540534778E+01  0.78219789506E+01  0.91003661629E+01  0.51100000000E-03 0. -1.
        -11    1    3    3    0    0  0.10363166106E+02  0.89277294628E+01  0.34830294717E+02  0.37419901061E+02  0.51100000000E-03 0.  1.
         12    1    3    3    0    0 -0.66660789635E+01 -0.10878298351E+02 -0.41573987612E+02  0.43487589376E+02  0.00000000000E+00 0. -1.
</event>
<event>
 7    1  0.2284751E-015  0.9000779E+02  0.7816164E-02  0.1186339E+00
        -11   -1    0    0    0    0  0.00000000000E+00  0.00000000000E+00  0.45593999997E+02  0.45594000000E+02  0.51100000000E-03 0.  1.
         11   -1    0    0    0    0 -0.00000000000E+00 -0.00000000000E+00 -0.45593999997E+02  0.45594000000E+02  0.51100000000E-03 0. -1.
    9900012    2    1    2    0    0  0.83025069980E+00  0.47063910568E+00  0.69432526126E+00  0.90007786053E+02  0.90000048029E+02 0.  0.
         12    1    1    2    0    0 -0.83025069980E+00 -0.47063910568E+00 -0.69432526126E+00  0.11802139470E+01  0.00000000000E+00 0. -1.
         11    1    3    3    0    0  0.91900835307E+01 -0.78269420539E+00  0.28635389763E+01  0.96576447051E+01  0.51100000000E-03 0. -1.
        -11    1    3    3    0    0 -0.26352175746E+02  0.30462141810E+01  0.32076105844E+02  0.41624429771E+02  0.51100000000E-03 0.  1.
         12    1    3    3    0    0  0.17992342915E+02 -0.17928808699E+01 -0.34245319559E+02  0.38725711577E+02  0.00000000000E+00 0. -1.
</event>
<event>
 7    1  0.2284751E-015  0.9000777E+02  0.7816164E-02  0.1186339E+00
        -11   -1    0    0    0    0  0.00000000000E+00  0.00000000000E+00  0.45593999997E+02  0.45594000000E+02  0.51100000000E-03 0. -1.
         11   -1    0    0    0    0 -0.00000000000E+00 -0.00000000000E+00 -0.45593999997E+02  0.45594000000E+02  0.51100000000E-03 0.  1.
    9900012    2    1    2    0    0  0.85514174114E+00 -0.71341407164E+00 -0.39080375210E+00  0.90007765020E+02  0.90000026718E+02 0.  0.
         12    1    1    2    0    0 -0.85514174114E+00  0.71341407164E+00  0.39080375210E+00  0.11802349799E+01  0.00000000000E+00 0. -1.
         11    1    3    3    0    0  0.36749406666E+02 -0.43008799486E+01  0.93642262848E+01  0.38166807474E+02  0.51100000000E-03 0. -1.
        -11    1    3    3    0    0  0.62187041242E+01  0.61115419989E+01 -0.13431939787E+01  0.88219837290E+01  0.51100000000E-03 0.  1.
        -12    1    3    3    0    0 -0.42112969049E+02 -0.25240761220E+01 -0.84118360583E+01  0.43018973817E+02  0.00000000000E+00 0.  1.
</event>
<event>
 7    1  0.2284751E-015  0.9000773E+02  0.7816164E-02  0.1186339E+00
        -11   -1    0    0    0    0  0.00000000000E+00  0.00000000000E+00  0.45593999997E+02  0.45594000000E+02  0.51100000000E-03 0.  1.
         11   -1    0    0    0    0 -0.00000000000E+00 -0.00000000000E+00 -0.45593999997E+02  0.45594000000E+02  0.51100000000E-03 0. -1.
    9900012    2    1    2    0    0  0.10687279972E+01  0.38774602381E+00  0.31702638168E+00  0.90007732133E+02  0.89999993397E+02 0.  0.
         12    1    1    2    0    0 -0.10687279972E+01 -0.38774602381E+00 -0.31702638168E+00  0.11802678669E+01  0.00000000000E+00 0. -1.
         11    1    3    3    0    0  0.38104564196E+02  0.94115420455E+01  0.66695446440E+01  0.39812281551E+02  0.51100000000E-03 0. -1.
        -11    1    3    3    0    0  0.16823930972E+01 -0.83866014356E+01  0.49159957494E+01  0.98657257534E+01  0.51100000000E-03 0.  1.
        -12    1    3    3    0    0 -0.38718229296E+02 -0.63719458613E+00 -0.11268514012E+02  0.40329724829E+02  0.00000000000E+00 0.  1.
</event>
<event>
 7    1  0.2284751E-015  0.9000781E+02  0.7816164E-02  0.1186339E+00
        -11   -1    0    0    0    0  0.00000000000E+00  0.00000000000E+00  0.45593999997E+02  0.45594000000E+02  0.51100000000E-03 0.  1.
         11   -1    0    0    0    0 -0.00000000000E+00 -0.00000000000E+00 -0.45593999997E+02  0.45594000000E+02  0.51100000000E-03 0. -1.
    9900012    2    1    2    0    0 -0.32808257205E+00 -0.43839614573E+00  0.10454722620E+01  0.90007812894E+02  0.90000075224E+02 0.  0.
         12    1    1    2    0    0  0.32808257205E+00  0.43839614573E+00 -0.10454722620E+01  0.11801871060E+01  0.00000000000E+00 0. -1.
         11    1    3    3    0    0  0.12120982281E+02 -0.18551655708E+02 -0.26478412888E+02  0.34528082633E+02  0.51100000000E-03 0. -1.
        -11    1    3    3    0    0  0.41056821864E+00 -0.13369870869E+02  0.34525708473E+01  0.13814566914E+02  0.51100000000E-03 0.  1.
        -12    1    3    3    0    0 -0.12859633072E+02  0.31483130431E+02  0.24071314303E+02  0.41665163347E+02  0.00000000000E+00 0.  1.
</event>
<event>
 7    1  0.2284751E-015  0.9000676E+02  0.7816164E-02  0.1186341E+00
        -11   -1    0    0    0    0  0.00000000000E+00  0.00000000000E+00  0.45593999997E+02  0.45594000000E+02  0.51100000000E-03 0.  1.
         11   -1    0    0    0    0 -0.00000000000E+00 -0.00000000000E+00 -0.45593999997E+02  0.45594000000E+02  0.51100000000E-03 0. -1.
    9900012    2    1    2    0    0 -0.10230676942E+01  0.55145395107E+00 -0.21106422588E+00  0.90006764598E+02  0.89999013085E+02 0.  0.
         12    1    1    2    0    0  0.10230676942E+01 -0.55145395107E+00  0.21106422588E+00  0.11812354018E+01  0.00000000000E+00 0. -1.
         11    1    3    3    0    0 -0.16892958401E+02  0.59810419322E+01 -0.38592801073E+02  0.42550548775E+02  0.51100000000E-03 0. -1.
        -11    1    3    3    0    0  0.94437620740E+01  0.15173754854E+01  0.18802534775E+01  0.97479445974E+01  0.51100000000E-03 0.  1.
        -12    1    3    3    0    0  0.64261286326E+01 -0.69469634665E+01  0.36501483370E+02  0.37708271226E+02  0.00000000000E+00 0.  1.
</event>
<event>
 7    1  0.2284751E-015  0.9000770E+02  0.7816164E-02  0.1186339E+00
        -11   -1    0    0    0    0  0.00000000000E+00  0.00000000000E+00  0.45593999997E+02  0.45594000000E+02  0.51100000000E-03 0.  1.
         11   -1    0    0    0    0 -0.00000000000E+00 -0.00000000000E+00 -0.45593999997E+02  0.45594000000E+02  0.51100000000E-03 0. -1.
    9900012    2    1    2    0    0 -0.42495608546E+00 -0.94254677458E+00  0.56932993457E+00  0.90007695518E+02  0.89999956298E+02 0.  0.
         12    1    1    2    0    0  0.42495608546E+00  0.94254677458E+00 -0.56932993457E+00  0.11803044824E+01  0.00000000000E+00 0. -1.
         11    1    3    3    0    0 -0.21243135842E+02 -0.13734897849E+02 -0.27928769974E+02  0.37682017354E+02  0.51100000000E-03 0. -1.
        -11    1    3    3    0    0 -0.80979845849E+00 -0.10547488229E+02  0.16788907706E+01  0.10710926942E+02  0.51100000000E-03 0.  1.
        -12    1    3    3    0    0  0.21627978215E+02  0.23339839304E+02  0.26819209138E+02  0.41614751221E+02  0.00000000000E+00 0.  1.
</event>
<event>
 7    1  0.2284751E-015  0.9000762E+02  0.7816164E-02  0.1186339E+00
        -11   -1    0    0    0    0  0.00000000000E+00  0.00000000000E+00  0.45593999997E+02  0.45594000000E+02  0.51100000000E-03 0.  1.
         11   -1    0    0    0    0 -0.00000000000E+00 -0.00000000000E+00 -0.45593999997E+02  0.45594000000E+02  0.51100000000E-03 0. -1.
    9900012    2    1    2    0    0  0.35721987578E+00 -0.84877763284E+00  0.73841611981E+00  0.90007623841E+02  0.89999883676E+02 0.  0.
         12    1    1    2    0    0 -0.35721987578E+00  0.84877763284E+00 -0.73841611981E+00  0.11803761585E+01  0.00000000000E+00 0. -1.
         11    1    3    3    0    0  0.20453227794E+01  0.10006523190E+02  0.19963200919E+01  0.10406687552E+02  0.51100000000E-03 0.  1.
        -11    1    3    3    0    0  0.29601152468E+02 -0.24446685244E+02  0.15733502669E+02  0.41489899413E+02  0.51100000000E-03 0. -1.
         12    1    3    3    0    0 -0.31289255371E+02  0.13591384421E+02 -0.16991406641E+02  0.38111036876E+02  0.00000000000E+00 0. -1.
</event>
<event>
 7    1  0.2284751E-015  0.9000772E+02  0.7816164E-02  0.1186339E+00
        -11   -1    0    0    0    0  0.00000000000E+00  0.00000000000E+00  0.45593999997E+02  0.45594000000E+02  0.51100000000E-03 0.  1.
         11   -1    0    0    0    0 -0.00000000000E+00 -0.00000000000E+00 -0.45593999997E+02  0.45594000000E+02  0.51100000000E-03 0. -1.
    9900012    2    1    2    0    0  0.33911446618E+00  0.10805317037E+01  0.33245171024E+00  0.90007715490E+02  0.89999976535E+02 0.  0.
         12    1    1    2    0    0 -0.33911446618E+00 -0.10805317037E+01 -0.33245171024E+00  0.11802845096E+01  0.00000000000E+00 0. -1.
         11    1    3    3    0    0 -0.97445410433E+01  0.10690210543E+02 -0.51767707477E+01  0.15363451345E+02  0.51100000000E-03 0. -1.
        -11    1    3    3    0    0  0.22573255992E+01  0.18832296490E+02 -0.25542280857E+02  0.31814446744E+02  0.51100000000E-03 0.  1.
        -12    1    3    3    0    0  0.78263299103E+01 -0.28441975329E+02  0.31051503315E+02  0.42829817402E+02  0.00000000000E+00 0.  1.
</event>
<event>
 7    1  0.2284751E-015  0.9000775E+02  0.7816164E-02  0.1186339E+00
        -11   -1    0    0    0    0  0.00000000000E+00  0.00000000000E+00  0.45593999997E+02  0.45594000000E+02  0.51100000000E-03 0.  1.
         11   -1    0    0    0    0 -0.00000000000E+00 -0.00000000000E+00 -0.45593999997E+02  0.45594000000E+02  0.51100000000E-03 0. -1.
    9900012    2    1    2    0    0  0.16538418582E+00  0.34244178551E+00  0.11173003345E+01  0.90007754965E+02  0.90000016530E+02 0.  0.
         12    1    1    2    0    0 -0.16538418582E+00 -0.34244178551E+00 -0.11173003345E+01  0.11802450351E+01  0.00000000000E+00 0. -1.
         11    1    3    3    0    0  0.86403591011E+01  0.69317934266E+01 -0.35322033450E+02  0.37018260532E+02  0.51100000000E-03 0. -1.
        -11    1    3    3    0    0  0.51960263754E+01 -0.11498370114E+02 -0.11705077228E+01  0.12672067470E+02  0.51100000000E-03 0.  1.
        -12    1    3    3    0    0 -0.13671001291E+02  0.49090184728E+01  0.37609841508E+02  0.40317426963E+02  0.00000000000E+00 0.  1.
</event>
<event>
 7    1  0.2284751E-015  0.9000645E+02  0.7816164E-02  0.1186342E+00
        -11   -1    0    0    0    0  0.00000000000E+00  0.00000000000E+00  0.45593999997E+02  0.45594000000E+02  0.51100000000E-03 0.  1.
         11   -1    0    0    0    0 -0.00000000000E+00 -0.00000000000E+00 -0.45593999997E+02  0.45594000000E+02  0.51100000000E-03 0. -1.
    9900012    2    1    2    0    0  0.18268066233E+00  0.11671600690E+01 -0.20644548527E-01  0.90006449727E+02  0.89998694054E+02 0.  0.
         12    1    1    2    0    0 -0.18268066233E+00 -0.11671600690E+01  0.20644548527E-01  0.11815502733E+01  0.00000000000E+00 0. -1.
         11    1    3    3    0    0  0.90975959274E+01  0.51914076235E+01  0.20185822726E+01  0.10667316412E+02  0.51100000000E-03 0. -1.
        -11    1    3    3    0    0  0.23798529095E+02 -0.24097812483E+02  0.15371532658E+02  0.37193528604E+02  0.51100000000E-03 0.  1.
         12    1    3    3    0    0 -0.32713444360E+02  0.20073564928E+02 -0.17410759479E+02  0.42145604711E+02  0.00000000000E+00 0. -1.
</event>
<event>
 7    1  0.2284751E-015  0.9000774E+02  0.7816164E-02  0.1186339E+00
        -11   -1    0    0    0    0  0.00000000000E+00  0.00000000000E+00  0.45593999997E+02  0.45594000000E+02  0.51100000000E-03 0.  1.
         11   -1    0    0    0    0 -0.00000000000E+00 -0.00000000000E+00 -0.45593999997E+02  0.45594000000E+02  0.51100000000E-03 0. -1.
    9900012    2    1    2    0    0 -0.76271794640E+00  0.89343798455E+00 -0.11421715546E+00  0.90007739157E+02  0.90000000514E+02 0.  0.
         12    1    1    2    0    0  0.76271794640E+00 -0.89343798455E+00  0.11421715546E+00  0.11802608426E+01  0.00000000000E+00 0. -1.
         11    1    3    3    0    0  0.49609455613E+01 -0.34484002287E+02  0.12341578967E+02  0.36960410796E+02  0.51100000000E-03 0. -1.
        -11    1    3    3    0    0 -0.12805818911E+01 -0.37081975247E+01  0.78518579402E+01  0.87773738804E+01  0.51100000000E-03 0.  1.
        -12    1    3    3    0    0 -0.44430816166E+01  0.39085637796E+02 -0.20307654063E+02  0.44269954481E+02  0.00000000000E+00 0.  1.
</event>
<event>
 7    1  0.2284751E-015  0.9000775E+02  0.7816164E-02  0.1186339E+00
        -11   -1    0    0    0    0  0.00000000000E+00  0.00000000000E+00  0.45593999997E+02  0.45594000000E+02  0.51100000000E-03 0.  1.
         11   -1    0    0    0    0 -0.00000000000E+00 -0.00000000000E+00 -0.45593999997E+02  0.45594000000E+02  0.51100000000E-03 0. -1.
    9900012    2    1    2    0    0 -0.90906868663E+00  0.74869328752E+00  0.77685165481E-01  0.90007753203E+02  0.90000014746E+02 0.  0.
         12    1    1    2    0    0  0.90906868663E+00 -0.74869328752E+00 -0.77685165481E-01  0.11802467965E+01  0.00000000000E+00 0. -1.
         11    1    3    3    0    0  0.11403009507E+02 -0.22199306935E+01 -0.32310021572E+01  0.12058030241E+02  0.51100000000E-03 0. -1.
        -11    1    3    3    0    0 -0.84453464408E+01 -0.18015917954E+02  0.34695930097E+02  0.39996309102E+02  0.51100000000E-03 0.  1.
         12    1    3    3    0    0 -0.38667317529E+01  0.20984541935E+02 -0.31387242774E+02  0.37953413860E+02  0.00000000000E+00 0. -1.
</event>
<event>
 7    1  0.2284751E-015  0.9000790E+02  0.7816164E-02  0.1186339E+00
        -11   -1    0    0    0    0  0.00000000000E+00  0.00000000000E+00  0.45593999997E+02  0.45594000000E+02  0.51100000000E-03 0. -1.
         11   -1    0    0    0    0 -0.00000000000E+00 -0.00000000000E+00 -0.45593999997E+02  0.45594000000E+02  0.51100000000E-03 0.  1.
    9900012    2    1    2    0    0 -0.48104703869E+00 -0.10722827208E+01  0.10699179801E+00  0.90007896728E+02  0.90000160165E+02 0.  0.
         12    1    1    2    0    0  0.48104703869E+00  0.10722827208E+01 -0.10699179801E+00  0.11801032716E+01  0.00000000000E+00 0. -1.
         11    1    3    3    0    0 -0.62484833883E+01  0.55465625888E+00  0.75658012192E+01  0.98281502110E+01  0.51100000000E-03 0. -1.
        -11    1    3    3    0    0 -0.13932125753E+01 -0.25535135366E+02 -0.34783597562E+02  0.43172709424E+02  0.51100000000E-03 0.  1.
         12    1    3    3    0    0  0.71606489250E+01  0.23908196387E+02  0.27324788140E+02  0.37007037093E+02  0.00000000000E+00 0. -1.
</event>
<event>
 7    1  0.3376398E-015  0.9000776E+02  0.7816164E-02  0.1186339E+00
        -11   -1    0    0    0    0  0.00000000000E+00  0.00000000000E+00  0.45593999997E+02  0.45594000000E+02  0.51100000000E-03 0. -1.
         11   -1    0    0    0    0 -0.00000000000E+00 -0.00000000000E+00 -0.45593999997E+02  0.45594000000E+02  0.51100000000E-03 0.  1.
    9900012    2    1    2    0    0  0.20811371695E+00  0.11296264947E+01 -0.27127505944E+00  0.90007763797E+02  0.90000025479E+02 0.  0.
         12    1    1    2    0    0 -0.20811371695E+00 -0.11296264947E+01  0.27127505944E+00  0.11802362028E+01  0.00000000000E+00 0. -1.
         11    1    3    3    0    0  0.33519058067E+02  0.10693802166E+02  0.21127699967E+02  0.41039790017E+02  0.51100000000E-03 0. -1.
        -11    1    3    3    0    0  0.30607496274E+01 -0.60892157031E+01 -0.67838840543E+01  0.96160188895E+01  0.51100000000E-03 0.  1.
        -12    1    3    3    0    0 -0.36371693978E+02 -0.34749599682E+01 -0.14615090973E+02  0.39351954891E+02  0.00000000000E+00 0.  1.
</event>
<event>
 7    1  0.2284751E-015  0.9000787E+02  0.7816164E-02  0.1186339E+00
        -11   -1    0    0    0    0  0.00000000000E+00  0.00000000000E+00  0.45593999997E+02  0.45594000000E+02  0.51100000000E-03 0. -1.
         11   -1    0    0    0    0 -0.00000000000E+00 -0.00000000000E+00 -0.45593999997E+02  0.45594000000E+02  0.51100000000E-03 0.  1.
    9900012    2    1    2    0    0 -0.68043666748E+00  0.94429883406E+00 -0.19499438768E+00  0.90007865619E+02  0.90000128645E+02 0.  0.
         12    1    1    2    0    0  0.68043666748E+00 -0.94429883406E+00  0.19499438768E+00  0.11801343812E+01  0.00000000000E+00 0. -1.
         11    1    3    3    0    0 -0.18606560610E+02 -0.11343724255E+01 -0.10528834069E+02  0.21409045884E+02  0.51100000000E-03 0. -1.
        -11    1    3    3    0    0  0.34237923773E+02  0.22967973398E+02  0.46187805745E+01  0.41486098401E+02  0.51100000000E-03 0.  1.
         12    1    3    3    0    0 -0.16311799830E+02 -0.20889302139E+02  0.57150591072E+01  0.27112721334E+02  0.00000000000E+00 0. -1.
</event>
<event>
 7    1  0.2284751E-015  0.9000771E+02  0.7816164E-02  0.1186339E+00
        -11   -1    0    0    0    0  0.00000000000E+00  0.00000000000E+00  0.45593999997E+02  0.45594000000E+02  0.51100000000E-03 0. -1.
         11   -1    0    0    0    0 -0.00000000000E+00 -0.00000000000E+00 -0.45593999997E+02  0.45594000000E+02  0.51100000000E-03 0.  1.
    9900012    2    1    2    0    0  0.99235845266E+00 -0.43489099041E+00 -0.46816123590E+00  0.90007711724E+02  0.89999972719E+02 0.  0.
         12    1    1    2    0    0 -0.99235845266E+00  0.43489099041E+00  0.46816123590E+00  0.11802882762E+01  0.00000000000E+00 0. -1.
         11    1    3    3    0    0  0.76618223216E+01 -0.11770407550E+02 -0.15190491404E+01  0.14126341555E+02  0.51100000000E-03 0. -1.
        -11    1    3    3    0    0  0.33278341659E+02 -0.89291777832E+00 -0.50144225072E+01  0.33665854498E+02  0.51100000000E-03 0.  1.
         12    1    3    3    0    0 -0.39947805528E+02  0.12228434338E+02  0.60653104117E+01  0.42215515670E+02  0.00000000000E+00 0. -1.
</event>
<event>
 7    1  0.2284751E-015  0.9000776E+02  0.7816164E-02  0.1186339E+00
        -11   -1    0    0    0    0  0.00000000000E+00  0.00000000000E+00  0.45593999997E+02  0.45594000000E+02  0.51100000000E-03 0.  1.
         11   -1    0    0    0    0 -0.00000000000E+00 -0.00000000000E+00 -0.45593999997E+02  0.45594000000E+02  0.51100000000E-03 0. -1.
    9900012    2    1    2    0    0 -0.81753668190E+00 -0.22285013521E+00  0.82155055601E+00  0.90007756921E+02  0.90000018513E+02 0.  0.
         12    1    1    2    0    0  0.81753668190E+00  0.22285013521E+00 -0.82155055601E+00  0.11802430788E+01  0.00000000000E+00 0. -1.
         11    1    3    3    0    0  0.36550418296E+02 -0.19377292237E+02 -0.31389760218E+01  0.41488139302E+02  0.51100000000E-03 0. -1.
        -11    1    3    3    0    0 -0.33287179425E+01  0.70365864264E+01  0.91542049827E+01  0.12016379688E+02  0.51100000000E-03 0.  1.
        -12    1    3    3    0    0 -0.34039237035E+02  0.12117855675E+02 -0.51936784048E+01  0.36503237931E+02  0.00000000000E+00 0.  1.
</event>
<event>
 7    1  0.2284751E-015  0.9000773E+02  0.7816164E-02  0.1186339E+00
        -11   -1    0    0    0    0  0.00000000000E+00  0.00000000000E+00  0.45593999997E+02  0.45594000000E+02  0.51100000000E-03 0. -1.
         11   -1    0    0    0    0 -0.00000000000E+00 -0.00000000000E+00 -0.45593999997E+02  0.45594000000E+02  0.51100000000E-03 0.  1.
    9900012    2    1    2    0    0  0.47769008851E+00 -0.16806685403E+00 -0.10661116004E+01  0.90007733830E+02  0.89999995116E+02 0.  0.
         12    1    1    2    0    0 -0.47769008851E+00  0.16806685403E+00  0.10661116004E+01  0.11802661702E+01  0.00000000000E+00 0. -1.
         11    1    3    3    0    0  0.71701882775E+01 -0.17212411404E+01 -0.34884645212E+01  0.81574294955E+01  0.51100000000E-03 0. -1.
        -11    1    3    3    0    0 -0.41346327662E+02  0.64549501266E+01 -0.12688833698E+02  0.43728614123E+02  0.51100000000E-03 0.  1.
         12    1    3    3    0    0  0.34653829473E+02 -0.49017758402E+01  0.15111186619E+02  0.38121690211E+02  0.00000000000E+00 0. -1.
</event>
<event>
 7    1  0.2284751E-015  0.9000785E+02  0.7816164E-02  0.1186339E+00
        -11   -1    0    0    0    0  0.00000000000E+00  0.00000000000E+00  0.45593999997E+02  0.45594000000E+02  0.51100000000E-03 0.  1.
         11   -1    0    0    0    0 -0.00000000000E+00 -0.00000000000E+00 -0.45593999997E+02  0.45594000000E+02  0.51100000000E-03 0. -1.
    9900012    2    1    2    0    0 -0.27275080203E+00 -0.47003010126E+00  0.10475870375E+01  0.90007847511E+02  0.90000110298E+02 0.  0.
         12    1    1    2    0    0  0.27275080203E+00  0.47003010126E+00 -0.10475870375E+01  0.11801524890E+01  0.00000000000E+00 0. -1.
         11    1    3    3    0    0 -0.32397298944E+02 -0.28927679493E+00  0.25536319593E+02  0.41252542692E+02  0.51100000000E-03 0. -1.
        -11    1    3    3    0    0  0.70392890705E+01 -0.48064787614E+00  0.60071928705E+01  0.92665516479E+01  0.51100000000E-03 0.  1.
        -12    1    3    3    0    0  0.25085259071E+02  0.29989456981E+00 -0.30495925426E+02  0.39488753171E+02  0.00000000000E+00 0.  1.
</event>
<event>
 7    1  0.2284751E-015  0.9000775E+02  0.7816164E-02  0.1186339E+00
        -11   -1    0    0    0    0  0.00000000000E+00  0.00000000000E+00  0.45593999997E+02  0.45594000000E+02  0.51100000000E-03 0. -1.
         11   -1    0    0    0    0 -0.00000000000E+00 -0.00000000000E+00 -0.45593999997E+02  0.45594000000E+02  0.51100000000E-03 0.  1.
    9900012    2    1    2    0    0  0.99382566839E+00  0.42612509138E+00 -0.47298436565E+00  0.90007751610E+02  0.90000013131E+02 0.  0.
         12    1    1    2    0    0 -0.99382566839E+00 -0.42612509138E+00  0.47298436565E+00  0.11802483903E+01  0.00000000000E+00 0. -1.
         11    1    3    3    0    0  0.37642290288E+02  0.12665888252E+01  0.57570797569E+01  0.38101052912E+02  0.51100000000E-03 0. -1.
        -11    1    3    3    0    0  0.40530116833E+01  0.69343944597E+01 -0.67108108344E+01  0.10466504314E+02  0.51100000000E-03 0.  1.
        -12    1    3    3    0    0 -0.40701476303E+02 -0.77748581935E+01  0.48074671185E+00  0.41440194384E+02  0.00000000000E+00 0.  1.
</event>
<event>
 7    1  0.2284751E-015  0.9000781E+02  0.7816164E-02  0.1186339E+00
        -11   -1    0    0    0    0  0.00000000000E+00  0.00000000000E+00  0.45593999997E+02  0.45594000000E+02  0.51100000000E-03 0. -1.
         11   -1    0    0    0    0 -0.00000000000E+00 -0.00000000000E+00 -0.45593999997E+02  0.45594000000E+02  0.51100000000E-03 0.  1.
    9900012    2    1    2    0    0 -0.94899325946E+00 -0.69710577104E+00 -0.79323674460E-01  0.90007814884E+02  0.90000077241E+02 0.  0.
         12    1    1    2    0    0  0.94899325946E+00  0.69710577104E+00  0.79323674460E-01  0.11801851159E+01  0.00000000000E+00 0. -1.
         11    1    3    3    0    0  0.22921451251E+02  0.25993265566E+02  0.16018686413E+02  0.38179066213E+02  0.51100000000E-03 0. -1.
        -11    1    3    3    0    0  0.53009533715E+00  0.10449383979E+01  0.77634987603E+01  0.78514209278E+01  0.51100000000E-03 0.  1.
        -12    1    3    3    0    0 -0.24400539848E+02 -0.27735309735E+02 -0.23861508848E+02  0.43977327743E+02  0.00000000000E+00 0.  1.
</event>
<event>
 7    1  0.2284751E-015  0.9000793E+02  0.7816164E-02  0.1186339E+00
        -11   -1    0    0    0    0  0.00000000000E+00  0.00000000000E+00  0.45593999997E+02  0.45594000000E+02  0.51100000000E-03 0.  1.
         11   -1    0    0    0    0 -0.00000000000E+00 -0.00000000000E+00 -0.45593999997E+02  0.45594000000E+02  0.51100000000E-03 0. -1.
    9900012    2    1    2    0    0 -0.38739449909E+00 -0.11011039484E+01  0.17335822720E+00  0.90007933274E+02  0.90000197193E+02 0.  0.
         12    1    1    2    0    0  0.38739449909E+00  0.11011039484E+01 -0.17335822720E+00  0.11800667261E+01  0.00000000000E+00 0. -1.
         11    1    3    3    0    0  0.30042588353E+01 -0.13534400306E+02 -0.36784192602E+02  0.39310079985E+02  0.51100000000E-03 0. -1.
        -11    1    3    3    0    0  0.71006659349E+01  0.46986443747E+01 -0.27164652470E+01  0.89373317819E+01  0.51100000000E-03 0.  1.
        -12    1    3    3    0    0 -0.10492319269E+02  0.77346519828E+01  0.39674016076E+02  0.41760521507E+02  0.00000000000E+00 0.  1.
</event>
<event>
 7    1  0.2284751E-015  0.9000764E+02  0.7816164E-02  0.1186339E+00
        -11   -1    0    0    0    0  0.00000000000E+00  0.00000000000E+00  0.45593999997E+02  0.45594000000E+02  0.51100000000E-03 0.  1.
         11   -1    0    0    0    0 -0.00000000000E+00 -0.00000000000E+00 -0.45593999997E+02  0.45594000000E+02  0.51100000000E-03 0. -1.
    9900012    2    1    2    0    0 -0.66717024234E+00 -0.43256042135E+00 -0.87237253035E+00  0.90007636292E+02  0.89999896291E+02 0.  0.
         12    1    1    2    0    0  0.66717024234E+00  0.43256042135E+00  0.87237253035E+00  0.11803637075E+01  0.00000000000E+00 0. -1.
         11    1    3    3    0    0  0.83852832968E+01 -0.57960492059E+01 -0.16573061204E+01  0.10327333935E+02  0.51100000000E-03 0. -1.
        -11    1    3    3    0    0 -0.50213440390E+01 -0.29841641237E+02  0.22865641765E+02  0.37928551531E+02  0.51100000000E-03 0.  1.
         12    1    3    3    0    0 -0.40311095001E+01  0.35205130021E+02 -0.22080708175E+02  0.41751750827E+02  0.00000000000E+00 0. -1.
</event>
<event>
 7    1  0.2284751E-015  0.9000764E+02  0.7816164E-02  0.1186339E+00
        -11   -1    0    0    0    0  0.00000000000E+00  0.00000000000E+00  0.45593999997E+02  0.45594000000E+02  0.51100000000E-03 0.  1.
         11   -1    0    0    0    0 -0.00000000000E+00 -0.00000000000E+00 -0.45593999997E+02  0.45594000000E+02  0.51100000000E-03 0. -1.
    9900012    2    1    2    0    0  0.98455950188E+00  0.64675860922E+00 -0.74791176716E-01  0.90007640804E+02  0.89999900863E+02 0.  0.
         12    1    1    2    0    0 -0.98455950188E+00 -0.64675860922E+00  0.74791176716E-01  0.11803591959E+01  0.00000000000E+00 0. -1.
         11    1    3    3    0    0 -0.13546507409E+02 -0.27972197729E+02 -0.20223779975E+02  0.37080358487E+02  0.51100000000E-03 0. -1.
        -11    1    3    3    0    0  0.87320667807E+01 -0.54543013926E+01 -0.36937415990E+01  0.10938104096E+02  0.51100000000E-03 0.  1.
        -12    1    3    3    0    0  0.57990001300E+01  0.34073257731E+02  0.23842730397E+02  0.41989178221E+02  0.00000000000E+00 0.  1.
</event>
<event>
 7    1  0.2284751E-015  0.9000780E+02  0.7816164E-02  0.1186339E+00
        -11   -1    0    0    0    0  0.00000000000E+00  0.00000000000E+00  0.45593999997E+02  0.45594000000E+02  0.51100000000E-03 0. -1.
         11   -1    0    0    0    0 -0.00000000000E+00 -0.00000000000E+00 -0.45593999997E+02  0.45594000000E+02  0.51100000000E-03 0.  1.
    9900012    2    1    2    0    0  0.76217255319E+00  0.74748435723E+00  0.50322029394E+00  0.90007800640E+02  0.90000062808E+02 0.  0.
         12    1    1    2    0    0 -0.76217255319E+00 -0.74748435723E+00 -0.50322029394E+00  0.11801993600E+01  0.00000000000E+00 0. -1.
         11    1    3    3    0    0  0.51595199801E+01  0.64298577092E+01  0.38648371233E+02  0.39517848067E+02  0.51100000000E-03 0. -1.
        -11    1    3    3    0    0 -0.15378398308E+01  0.69820750867E+01  0.26913535521E+01  0.76392216923E+01  0.51100000000E-03 0.  1.
        -12    1    3    3    0    0 -0.28595075961E+01 -0.12664448439E+02 -0.40836504491E+02  0.42850730881E+02  0.00000000000E+00 0.  1.
</event>
<event>
 7    1  0.2284751E-015  0.9000785E+02  0.7816164E-02  0.1186339E+00
        -11   -1    0    0    0    0  0.00000000000E+00  0.00000000000E+00  0.45593999997E+02  0.45594000000E+02  0.51100000000E-03 0.  1.
         11   -1    0    0    0    0 -0.00000000000E+00 -0.00000000000E+00 -0.45593999997E+02  0.45594000000E+02  0.51100000000E-03 0. -1.
    9900012    2    1    2    0    0 -0.31728571282E-01  0.11062213515E+01  0.40991385939E+00  0.90007846725E+02  0.90000109501E+02 0.  0.
         12    1    1    2    0    0  0.31728571282E-01 -0.11062213515E+01 -0.40991385939E+00  0.11801532752E+01  0.00000000000E+00 0. -1.
         11    1    3    3    0    0 -0.22249500186E+02 -0.25376133946E+02  0.17210311096E+02  0.37883812386E+02  0.51100000000E-03 0. -1.
        -11    1    3    3    0    0  0.55901625881E+00  0.66817601853E+00  0.93997686197E+01  0.94400534286E+01  0.51100000000E-03 0.  1.
        -12    1    3    3    0    0  0.21658755356E+02  0.25814179279E+02 -0.26200165857E+02  0.42683980910E+02  0.00000000000E+00 0.  1.
</event>
<event>
 7    1  0.2284751E-015  0.9000774E+02  0.7816164E-02  0.1186339E+00
        -11   -1    0    0    0    0  0.00000000000E+00  0.00000000000E+00  0.45593999997E+02  0.45594000000E+02  0.51100000000E-03 0. -1.
         11   -1    0    0    0    0 -0.00000000000E+00 -0.00000000000E+00 -0.45593999997E+02  0.45594000000E+02  0.51100000000E-03 0.  1.
    9900012    2    1    2    0    0  0.95191213930E+00 -0.10702472714E+00  0.68951075448E+00  0.90007738972E+02  0.90000000327E+02 0.  0.
         12    1    1    2    0    0 -0.95191213930E+00  0.10702472714E+00 -0.68951075448E+00  0.11802610278E+01  0.00000000000E+00 0. -1.
         11    1    3    3    0    0 -0.29794485685E+02 -0.28488298893E+02  0.70612106098E+01  0.41822903373E+02  0.51100000000E-03 0. -1.
        -11    1    3    3    0    0  0.13283880119E+01  0.57961063782E+01  0.66095786246E+01  0.88907813894E+01  0.51100000000E-03 0.  1.
        -12    1    3    3    0    0  0.29418009812E+02  0.22585167787E+02 -0.12981278480E+02  0.39294054210E+02  0.00000000000E+00 0.  1.
</event>
<event>
 7    1  0.2284751E-015  0.9000782E+02  0.7816164E-02  0.1186339E+00
        -11   -1    0    0    0    0  0.00000000000E+00  0.00000000000E+00  0.45593999997E+02  0.45594000000E+02  0.51100000000E-03 0. -1.
         11   -1    0    0    0    0 -0.00000000000E+00 -0.00000000000E+00 -0.45593999997E+02  0.45594000000E+02  0.51100000000E-03 0.  1.
    9900012    2    1    2    0    0 -0.90196714379E-01 -0.11407442279E+01 -0.28877770861E+00  0.90007819757E+02  0.90000082178E+02 0.  0.
         12    1    1    2    0    0  0.90196714379E-01  0.11407442279E+01  0.28877770861E+00  0.11801802430E+01  0.00000000000E+00 0. -1.
         11    1    3    3    0    0  0.94729076546E+01  0.13147026423E+01 -0.11551971204E+01  0.96332187309E+01  0.51100000000E-03 0. -1.
        -11    1    3    3    0    0  0.20453906868E+02  0.26445755805E+02  0.14627008138E+02  0.36492323489E+02  0.51100000000E-03 0.  1.
         12    1    3    3    0    0 -0.30017011237E+02 -0.28901202676E+02 -0.13760588727E+02  0.43882277537E+02  0.00000000000E+00 0. -1.
</event>
<event>
 7    1  0.2293959E-015  0.9000751E+02  0.7816164E-02  0.1186340E+00
        -11   -1    0    0    0    0  0.00000000000E+00  0.00000000000E+00  0.45593999997E+02  0.45594000000E+02  0.51100000000E-03 0.  1.
         11   -1    0    0    0    0 -0.00000000000E+00 -0.00000000000E+00 -0.45593999997E+02  0.45594000000E+02  0.51100000000E-03 0. -1.
    9900012    2    1    2    0    0 -0.35479446347E+00 -0.28187120077E+00  0.10900566768E+01  0.90007511100E+02  0.89999769446E+02 0.  0.
         12    1    1    2    0    0  0.35479446347E+00  0.28187120077E+00 -0.10900566768E+01  0.11804889003E+01  0.00000000000E+00 0. -1.
         11    1    3    3    0    0 -0.36702740217E+00  0.11427903855E+02 -0.37329128565E+02  0.39040946906E+02  0.51100000000E-03 0. -1.
        -11    1    3    3    0    0  0.37209851588E+01  0.86882651452E+01  0.29831571220E+01  0.99111507133E+01  0.51100000000E-03 0.  1.
        -12    1    3    3    0    0 -0.37087522201E+01 -0.20398040201E+02  0.35436028120E+02  0.41055413480E+02  0.00000000000E+00 0.  1.
</event>
<event>
 7    1  0.2284751E-015  0.9000745E+02  0.7816164E-02  0.1186340E+00
        -11   -1    0    0    0    0  0.00000000000E+00  0.00000000000E+00  0.45593999997E+02  0.45594000000E+02  0.51100000000E-03 0.  1.
         11   -1    0    0    0    0 -0.00000000000E+00 -0.00000000000E+00 -0.45593999997E+02  0.45594000000E+02  0.51100000000E-03 0. -1.
    9900012    2    1    2    0    0  0.10650947521E+01  0.49326410203E+00 -0.12629919515E+00  0.90007454452E+02  0.89999712050E+02 0.  0.
         12    1    1    2    0    0 -0.10650947521E+01 -0.49326410203E+00  0.12629919515E+00  0.11805455485E+01  0.00000000000E+00 0. -1.
         11    1    3    3    0    0  0.50027196895E+01  0.18028789243E+01  0.80193585189E+01  0.96222496343E+01  0.51100000000E-03 0. -1.
        -11    1    3    3    0    0  0.78709321789E+01 -0.22778841646E+02  0.27857237485E+02  0.36835483988E+02  0.51100000000E-03 0.  1.
         12    1    3    3    0    0 -0.11808557116E+02  0.21469226824E+02 -0.36002895199E+02  0.43549720829E+02  0.00000000000E+00 0. -1.
</event>
<event>
 7    1  0.2284751E-015  0.9000776E+02  0.7816164E-02  0.1186339E+00
        -11   -1    0    0    0    0  0.00000000000E+00  0.00000000000E+00  0.45593999997E+02  0.45594000000E+02  0.51100000000E-03 0. -1.
         11   -1    0    0    0    0 -0.00000000000E+00 -0.00000000000E+00 -0.45593999997E+02  0.45594000000E+02  0.51100000000E-03 0.  1.
    9900012    2    1    2    0    0  0.15137004447E+00 -0.10345388272E+01  0.54752685310E+00  0.90007758868E+02  0.90000020485E+02 0.  0.
         12    1    1    2    0    0 -0.15137004447E+00  0.10345388272E+01 -0.54752685310E+00  0.11802411322E+01  0.00000000000E+00 0. -1.
         11    1    3    3    0    0 -0.16504361609E+02 -0.25014670536E+01  0.78285325769E+01  0.18437386260E+02  0.51100000000E-03 0. -1.
        -11    1    3    3    0    0  0.67223479254E+01  0.33877794182E+02  0.61978886181E+01  0.35090008890E+02  0.51100000000E-03 0.  1.
        -12    1    3    3    0    0  0.99333837280E+01 -0.32410865956E+02 -0.13478894342E+02  0.36480363718E+02  0.00000000000E+00 0.  1.
</event>
<event>
 7    1  0.2284751E-015  0.9000770E+02  0.7816164E-02  0.1186339E+00
        -11   -1    0    0    0    0  0.00000000000E+00  0.00000000000E+00  0.45593999997E+02  0.45594000000E+02  0.51100000000E-03 0. -1.
         11   -1    0    0    0    0 -0.00000000000E+00 -0.00000000000E+00 -0.45593999997E+02  0.45594000000E+02  0.51100000000E-03 0.  1.
    9900012    2    1    2    0    0  0.95459973110E+00  0.67003565243E+00  0.18140509273E+00  0.90007696552E+02  0.89999957346E+02 0.  0.
         12    1    1    2    0    0 -0.95459973110E+00 -0.67003565243E+00 -0.18140509273E+00  0.11803034482E+01  0.00000000000E+00 0. -1.
         11    1    3    3    0    0  0.24389738154E+02 -0.27868403749E+02  0.12584006490E+01  0.37055240213E+02  0.51100000000E-03 0. -1.
        -11    1    3    3    0    0  0.35975742318E+01 -0.53216612106E+01  0.63046620277E+01  0.90006323077E+01  0.51100000000E-03 0.  1.
        -12    1    3    3    0    0 -0.27032712655E+02  0.33860100612E+02 -0.73816575840E+01  0.43951824031E+02  0.00000000000E+00 0.  1.
</event>
<event>
 7    1  0.2284751E-015  0.9000772E+02  0.7816164E-02  0.1186339E+00
        -11   -1    0    0    0    0  0.00000000000E+00  0.00000000000E+00  0.45593999997E+02  0.45594000000E+02  0.51100000000E-03 0.  1.
         11   -1    0    0    0    0 -0.00000000000E+00 -0.00000000000E+00 -0.45593999997E+02  0.45594000000E+02  0.51100000000E-03 0. -1.
    9900012    2    1    2    0    0 -0.50071595159E+00  0.10346202778E+01  0.26813820297E+00  0.90007723050E+02  0.89999984194E+02 0.  0.
         12    1    1    2    0    0  0.50071595159E+00 -0.10346202778E+01 -0.26813820297E+00  0.11802769503E+01  0.00000000000E+00 0. -1.
         11    1    3    3    0    0 -0.59582388281E+01  0.59840627868E+01 -0.44687728641E+01  0.95540331034E+01  0.51100000000E-03 0. -1.
        -11    1    3    3    0    0 -0.33712033463E+02  0.14085769392E+02  0.51783034765E+01  0.36901557240E+02  0.51100000000E-03 0.  1.
         12    1    3    3    0    0  0.39169556340E+02 -0.19035211901E+02 -0.44139240935E+00  0.43552132706E+02  0.00000000000E+00 0. -1.
</event>
<event>
 7    1  0.2284751E-015  0.9000777E+02  0.7816164E-02  0.1186339E+00
        -11   -1    0    0    0    0  0.00000000000E+00  0.00000000000E+00  0.45593999997E+02  0.45594000000E+02  0.51100000000E-03 0.  1.
         11   -1    0    0    0    0 -0.00000000000E+00 -0.00000000000E+00 -0.45593999997E+02  0.45594000000E+02  0.51100000000E-03 0. -1.
    9900012    2    1    2    0    0 -0.10329499225E+01  0.52558802225E+00  0.22296457567E+00  0.90007770567E+02  0.90000032339E+02 0.  0.
         12    1    1    2    0    0  0.10329499225E+01 -0.52558802225E+00 -0.22296457567E+00  0.11802294326E+01  0.00000000000E+00 0. -1.
         11    1    3    3    0    0 -0.28915742331E+02 -0.13768116933E+02 -0.27064278608E+02  0.41930375329E+02  0.51100000000E-03 0. -1.
        -11    1    3    3    0    0 -0.24802968259E+01 -0.11923244170E+01  0.89707074764E+01  0.93833417687E+01  0.51100000000E-03 0.  1.
        -12    1    3    3    0    0  0.30363089234E+02  0.15486029372E+02  0.18316535707E+02  0.38694053469E+02  0.00000000000E+00 0.  1.
</event>
<event>
 7    1  0.2284751E-015  0.9000772E+02  0.7816164E-02  0.1186339E+00
        -11   -1    0    0    0    0  0.00000000000E+00  0.00000000000E+00  0.45593999997E+02  0.45594000000E+02  0.51100000000E-03 0.  1.
         11   -1    0    0    0    0 -0.00000000000E+00 -0.00000000000E+00 -0.45593999997E+02  0.45594000000E+02  0.51100000000E-03 0. -1.
    9900012    2    1    2    0    0  0.10505051176E+01  0.53393764653E+00 -0.66446197355E-01  0.90007718038E+02  0.89999979116E+02 0.  0.
         12    1    1    2    0    0 -0.10505051176E+01 -0.53393764653E+00  0.66446197355E-01  0.11802819619E+01  0.00000000000E+00 0. -1.
         11    1    3    3    0    0 -0.15213228778E+01 -0.43644753002E+01  0.72665654293E+01  0.86119708165E+01  0.51100000000E-03 0. -1.
        -11    1    3    3    0    0  0.14317529844E+02 -0.26923352052E+02  0.21143714084E+02  0.37106807894E+02  0.51100000000E-03 0.  1.
         12    1    3    3    0    0 -0.11745701849E+02  0.31821764999E+02 -0.28476725711E+02  0.44288939328E+02  0.00000000000E+00 0. -1.
</event>
<event>
 7    1  0.2284751E-015  0.9000770E+02  0.7816164E-02  0.1186339E+00
        -11   -1    0    0    0    0  0.00000000000E+00  0.00000000000E+00  0.45593999997E+02  0.45594000000E+02  0.51100000000E-03 0.  1.
         11   -1    0    0    0    0 -0.00000000000E+00 -0.00000000000E+00 -0.45593999997E+02  0.45594000000E+02  0.51100000000E-03 0. -1.
    9900012    2    1    2    0    0 -0.72839277949E+00 -0.17306396126E+00  0.91246373765E+00  0.90007704593E+02  0.89999965493E+02 0.  0.
         12    1    1    2    0    0  0.72839277949E+00  0.17306396126E+00 -0.91246373765E+00  0.11802954073E+01  0.00000000000E+00 0. -1.
         11    1    3    3    0    0 -0.67523772991E+01 -0.50362413998E+01  0.49876483194E+01  0.97895333211E+01  0.51100000000E-03 0. -1.
        -11    1    3    3    0    0 -0.23047456140E+02  0.10971614663E+01  0.28319336527E+02  0.36529081831E+02  0.51100000000E-03 0.  1.
         12    1    3    3    0    0  0.29071440660E+02  0.37660159722E+01 -0.32394521108E+02  0.43689089441E+02  0.00000000000E+00 0. -1.
</event>
<event>
 7    1  0.2284751E-015  0.9000773E+02  0.7816164E-02  0.1186339E+00
        -11   -1    0    0    0    0  0.00000000000E+00  0.00000000000E+00  0.45593999997E+02  0.45594000000E+02  0.51100000000E-03 0.  1.
         11   -1    0    0    0    0 -0.00000000000E+00 -0.00000000000E+00 -0.45593999997E+02  0.45594000000E+02  0.51100000000E-03 0. -1.
    9900012    2    1    2    0    0  0.70196201266E+00  0.18184132276E+00  0.93124506374E+00  0.90007731258E+02  0.89999992511E+02 0.  0.
         12    1    1    2    0    0 -0.70196201266E+00 -0.18184132276E+00 -0.93124506374E+00  0.11802687417E+01  0.00000000000E+00 0. -1.
         11    1    3    3    0    0  0.93765066501E+00  0.89848916193E+01  0.61308083935E+01  0.10917613201E+02  0.51100000000E-03 0. -1.
        -11    1    3    3    0    0  0.22331147134E+02  0.22371149399E+02  0.15703096756E+02  0.35294981311E+02  0.51100000000E-03 0.  1.
         12    1    3    3    0    0 -0.22566835786E+02 -0.31174199695E+02 -0.20902660086E+02  0.43795136747E+02  0.00000000000E+00 0. -1.
</event>
<event>
 7    1  0.2284751E-015  0.9000767E+02  0.7816164E-02  0.1186339E+00
        -11   -1    0    0    0    0  0.00000000000E+00  0.00000000000E+00  0.45593999997E+02  0.45594000000E+02  0.51100000000E-03 0. -1.
         11   -1    0    0    0    0 -0.00000000000E+00 -0.00000000000E+00 -0.45593999997E+02  0.45594000000E+02  0.51100000000E-03 0.  1.
    9900012    2    1    2    0    0 -0.92383291272E+00  0.48817354897E+00 -0.54900322131E+00  0.90007667334E+02  0.89999927743E+02 0.  0.
         12    1    1    2    0    0  0.92383291272E+00 -0.48817354897E+00  0.54900322131E+00  0.11803326656E+01  0.00000000000E+00 0. -1.
         11    1    3    3    0    0 -0.89684895813E+01  0.26717463834E+01  0.94445906145E+00  0.94055322703E+01  0.51100000000E-03 0. -1.
        -11    1    3    3    0    0  0.10107905580E+02 -0.22597783124E+02 -0.34062966357E+02  0.42108374875E+02  0.51100000000E-03 0.  1.
         12    1    3    3    0    0 -0.20632489111E+01  0.20414210290E+02  0.32569504074E+02  0.38493760189E+02  0.00000000000E+00 0. -1.
</event>
<event>
 7    1  0.2284751E-015  0.9000775E+02  0.7816164E-02  0.1186339E+00
        -11   -1    0    0    0    0  0.00000000000E+00  0.00000000000E+00  0.45593999997E+02  0.45594000000E+02  0.51100000000E-03 0.  1.
         11   -1    0    0    0    0 -0.00000000000E+00 -0.00000000000E+00 -0.45593999997E+02  0.45594000000E+02  0.51100000000E-03 0. -1.
    9900012    2    1    2    0    0  0.10393587970E+01  0.45531440015E+00  0.32467155747E+00  0.90007750225E+02  0.90000011728E+02 0.  0.
         12    1    1    2    0    0 -0.10393587970E+01 -0.45531440015E+00 -0.32467155747E+00  0.11802497753E+01  0.00000000000E+00 0. -1.
         11    1    3    3    0    0  0.39488541705E+01 -0.24566652581E+01  0.13857993749E+02  0.14617545774E+02  0.51100000000E-03 0. -1.
        -11    1    3    3    0    0 -0.12307928734E+02 -0.13036150427E+02  0.26089886801E+02  0.31656097695E+02  0.51100000000E-03 0.  1.
         12    1    3    3    0    0  0.93984333605E+01  0.15948130086E+02 -0.39623208993E+02  0.43734106756E+02  0.00000000000E+00 0. -1.
</event>
<event>
 7    1  0.2284751E-015  0.9000758E+02  0.7816164E-02  0.1186339E+00
        -11   -1    0    0    0    0  0.00000000000E+00  0.00000000000E+00  0.45593999997E+02  0.45594000000E+02  0.51100000000E-03 0. -1.
         11   -1    0    0    0    0 -0.00000000000E+00 -0.00000000000E+00 -0.45593999997E+02  0.45594000000E+02  0.51100000000E-03 0.  1.
    9900012    2    1    2    0    0 -0.50754896151E-01 -0.20068781285E+00 -0.11621274827E+01  0.90007579760E+02  0.89999839012E+02 0.  0.
         12    1    1    2    0    0  0.50754896151E-01  0.20068781285E+00  0.11621274827E+01  0.11804202403E+01  0.00000000000E+00 0. -1.
         11    1    3    3    0    0 -0.11171496885E+02 -0.66842778985E+01 -0.47479685864E+00  0.13027177207E+02  0.51100000000E-03 0. -1.
        -11    1    3    3    0    0  0.30176539086E+02 -0.94458345366E+01 -0.26428515984E+02  0.41210602503E+02  0.51100000000E-03 0.  1.
         12    1    3    3    0    0 -0.19055797097E+02  0.15929424622E+02  0.25741185360E+02  0.35769800049E+02  0.00000000000E+00 0. -1.
</event>
<event>
 7    1  0.2284751E-015  0.9000773E+02  0.7816164E-02  0.1186339E+00
        -11   -1    0    0    0    0  0.00000000000E+00  0.00000000000E+00  0.45593999997E+02  0.45594000000E+02  0.51100000000E-03 0.  1.
         11   -1    0    0    0    0 -0.00000000000E+00 -0.00000000000E+00 -0.45593999997E+02  0.45594000000E+02  0.51100000000E-03 0. -1.
    9900012    2    1    2    0    0 -0.50240605527E+00  0.98836453164E+00 -0.40466804707E+00  0.90007732013E+02  0.89999993276E+02 0.  0.
         12    1    1    2    0    0  0.50240605527E+00 -0.98836453164E+00  0.40466804707E+00  0.11802679866E+01  0.00000000000E+00 0. -1.
         11    1    3    3    0    0 -0.31474610238E+02 -0.25657915291E+02 -0.11693150784E+02  0.42257655901E+02  0.51100000000E-03 0. -1.
        -11    1    3    3    0    0  0.13922033824E+02 -0.87103966488E+00  0.21544444718E+01  0.14114650798E+02  0.51100000000E-03 0.  1.
        -12    1    3    3    0    0  0.17050170359E+02  0.27517319488E+02  0.91340382649E+01  0.33635425314E+02  0.00000000000E+00 0.  1.
</event>
<event>
 7    1  0.2284751E-015  0.9000765E+02  0.7816164E-02  0.1186339E+00
        -11   -1    0    0    0    0  0.00000000000E+00  0.00000000000E+00  0.45593999997E+02  0.45594000000E+02  0.51100000000E-03 0. -1.
         11   -1    0    0    0    0 -0.00000000000E+00 -0.00000000000E+00 -0.45593999997E+02  0.45594000000E+02  0.51100000000E-03 0.  1.
    9900012    2    1    2    0    0  0.89298166625E+00  0.77188102643E+00  0.20743144004E-04  0.90007654044E+02  0.89999914277E+02 0.  0.
         12    1    1    2    0    0 -0.89298166625E+00 -0.77188102643E+00 -0.20743143999E-04  0.11803459559E+01  0.00000000000E+00 0. -1.
         11    1    3    3    0    0 -0.12486785595E+00  0.95440494713E+01  0.79446083637E+00  0.95778724451E+01  0.51100000000E-03 0. -1.
        -11    1    3    3    0    0  0.22839183588E+02 -0.34995363071E+02  0.12801235610E+02  0.43705553158E+02  0.51100000000E-03 0.  1.
         12    1    3    3    0    0 -0.21821334066E+02  0.26223194626E+02 -0.13595675703E+02  0.36724228441E+02  0.00000000000E+00 0. -1.
</event>
<event>
 7    1  0.2284751E-015  0.9000773E+02  0.7816164E-02  0.1186339E+00
        -11   -1    0    0    0    0  0.00000000000E+00  0.00000000000E+00  0.45593999997E+02  0.45594000000E+02  0.51100000000E-03 0. -1.
         11   -1    0    0    0    0 -0.00000000000E+00 -0.00000000000E+00 -0.45593999997E+02  0.45594000000E+02  0.51100000000E-03 0.  1.
    9900012    2    1    2    0    0 -0.87157696683E+00  0.58765181382E+00 -0.53670672510E+00  0.90007730890E+02  0.89999992138E+02 0.  0.
         12    1    1    2    0    0  0.87157696683E+00 -0.58765181382E+00  0.53670672510E+00  0.11802691101E+01  0.00000000000E+00 0. -1.
         11    1    3    3    0    0  0.10744042468E+01  0.74760264164E+01 -0.21553711434E+01  0.78543580572E+01  0.51100000000E-03 0. -1.
        -11    1    3    3    0    0 -0.26668538977E+02 -0.50202427118E+01 -0.30988433713E+02  0.41190979987E+02  0.51100000000E-03 0.  1.
         12    1    3    3    0    0  0.24722557764E+02 -0.18681318907E+01  0.32607098131E+02  0.40962392846E+02  0.00000000000E+00 0. -1.
</event>
<event>
 7    1  0.2780906E-015  0.9000770E+02  0.7816164E-02  0.1186339E+00
        -11   -1    0    0    0    0  0.00000000000E+00  0.00000000000E+00  0.45593999997E+02  0.45594000000E+02  0.51100000000E-03 0.  1.
         11   -1    0    0    0    0 -0.00000000000E+00 -0.00000000000E+00 -0.45593999997E+02  0.45594000000E+02  0.51100000000E-03 0. -1.
    9900012    2    1    2    0    0 -0.51530293618E+00 -0.10529207089E+01 -0.13759938708E+00  0.90007698036E+02  0.89999958850E+02 0.  0.
         12    1    1    2    0    0  0.51530293618E+00  0.10529207089E+01  0.13759938708E+00  0.11803019642E+01  0.00000000000E+00 0. -1.
         11    1    3    3    0    0  0.19135939967E+02 -0.25229615003E+02 -0.18351974637E+02  0.36599353067E+02  0.51100000000E-03 0. -1.
        -11    1    3    3    0    0  0.91779792444E+01 -0.16711458265E+01 -0.22737446782E+01  0.96019761771E+01  0.51100000000E-03 0.  1.
        -12    1    3    3    0    0 -0.28829222147E+02  0.25847840120E+02  0.20488119928E+02  0.43806368791E+02  0.00000000000E+00 0.  1.
</event>
<event>
 7    1  0.2284751E-015  0.9000763E+02  0.7816164E-02  0.1186339E+00
        -11   -1    0    0    0    0  0.00000000000E+00  0.00000000000E+00  0.45593999997E+02  0.45594000000E+02  0.51100000000E-03 0.  1.
         11   -1    0    0    0    0 -0.00000000000E+00 -0.00000000000E+00 -0.45593999997E+02  0.45594000000E+02  0.51100000000E-03 0. -1.
    9900012    2    1    2    0    0  0.10707778576E+01  0.44199273423E+00 -0.22658528206E+00  0.90007634087E+02  0.89999894057E+02 0.  0.
         12    1    1    2    0    0 -0.10707778576E+01 -0.44199273423E+00  0.22658528206E+00  0.11803659126E+01  0.00000000000E+00 0. -1.
         11    1    3    3    0    0 -0.37539711929E+01 -0.29910567467E+02  0.52249107870E+01  0.30594673375E+02  0.51100000000E-03 0. -1.
        -11    1    3    3    0    0 -0.12879746638E+01 -0.67318214224E+01 -0.18419903516E+02  0.19653731051E+02  0.51100000000E-03 0.  1.
        -12    1    3    3    0    0  0.61127237144E+01  0.37084381624E+02  0.12968407447E+02  0.39759229662E+02  0.00000000000E+00 0.  1.
</event>
<event>
 7    1  0.2284751E-015  0.9000748E+02  0.7816164E-02  0.1186340E+00
        -11   -1    0    0    0    0  0.00000000000E+00  0.00000000000E+00  0.45593999997E+02  0.45594000000E+02  0.51100000000E-03 0. -1.
         11   -1    0    0    0    0 -0.00000000000E+00 -0.00000000000E+00 -0.45593999997E+02  0.45594000000E+02  0.51100000000E-03 0.  1.
    9900012    2    1    2    0    0  0.28135612041E-01  0.38317463165E+00 -0.11162498563E+01  0.90007479711E+02  0.89999737643E+02 0.  0.
         12    1    1    2    0    0 -0.28135612041E-01 -0.38317463165E+00  0.11162498563E+01  0.11805202890E+01  0.00000000000E+00 0. -1.
         11    1    3    3    0    0  0.72641769791E+01  0.46335401720E+01  0.12852697026E+01  0.87114797927E+01  0.51100000000E-03 0. -1.
        -11    1    3    3    0    0  0.19964330187E+02 -0.86059345298E+01 -0.33383666446E+02  0.39838496139E+02  0.51100000000E-03 0.  1.
         12    1    3    3    0    0 -0.27200371554E+02  0.43555689894E+01  0.30982146887E+02  0.41457503780E+02  0.00000000000E+00 0. -1.
</event>
<event>
 7    1  0.2284751E-015  0.9000678E+02  0.7816164E-02  0.1186341E+00
        -11   -1    0    0    0    0  0.00000000000E+00  0.00000000000E+00  0.45593999997E+02  0.45594000000E+02  0.51100000000E-03 0.  1.
         11   -1    0    0    0    0 -0.00000000000E+00 -0.00000000000E+00 -0.45593999997E+02  0.45594000000E+02  0.51100000000E-03 0. -1.
    9900012    2    1    2    0    0  0.79957645881E+00  0.85885498426E+00  0.13539211693E+00  0.90006777996E+02  0.89999026660E+02 0.  0.
         12    1    1    2    0    0 -0.79957645881E+00 -0.85885498426E+00 -0.13539211693E+00  0.11812220040E+01  0.00000000000E+00 0. -1.
         11    1    3    3    0    0  0.69900080159E+01  0.27664117698E+01  0.46797757438E+01  0.88551424278E+01  0.51100000000E-03 0. -1.
        -11    1    3    3    0    0  0.24295534954E+02 -0.22219475171E+02  0.18605338016E+02  0.37817148208E+02  0.51100000000E-03 0.  1.
         12    1    3    3    0    0 -0.30485966511E+02  0.20311918386E+02 -0.23149721643E+02  0.43334487360E+02  0.00000000000E+00 0. -1.
</event>
<event>
 7    1  0.4920298E-015  0.9000769E+02  0.7816164E-02  0.1186339E+00
        -11   -1    0    0    0    0  0.00000000000E+00  0.00000000000E+00  0.45593999997E+02  0.45594000000E+02  0.51100000000E-03 0.  1.
         11   -1    0    0    0    0 -0.00000000000E+00 -0.00000000000E+00 -0.45593999997E+02  0.45594000000E+02  0.51100000000E-03 0. -1.
    9900012    2    1    2    0    0  0.19653315504E+00  0.10110236870E+01  0.57648066855E+00  0.90007693202E+02  0.89999953952E+02 0.  0.
         12    1    1    2    0    0 -0.19653315504E+00 -0.10110236870E+01 -0.57648066855E+00  0.11803067982E+01  0.00000000000E+00 0. -1.
         11    1    3    3    0    0  0.21137168349E+02 -0.17540312288E+02 -0.22452250046E+02  0.35475991507E+02  0.51100000000E-03 0. -1.
        -11    1    3    3    0    0  0.86914612636E+00 -0.76477680984E+01 -0.59986020480E+01  0.97584321829E+01  0.51100000000E-03 0.  1.
        -12    1    3    3    0    0 -0.21809781320E+02  0.26199104074E+02  0.29027332763E+02  0.44773269512E+02  0.00000000000E+00 0.  1.
</event>
<event>
 7    1  0.2284751E-015  0.9000768E+02  0.7816164E-02  0.1186339E+00
        -11   -1    0    0    0    0  0.00000000000E+00  0.00000000000E+00  0.45593999997E+02  0.45594000000E+02  0.51100000000E-03 0.  1.
         11   -1    0    0    0    0 -0.00000000000E+00 -0.00000000000E+00 -0.45593999997E+02  0.45594000000E+02  0.51100000000E-03 0. -1.
    9900012    2    1    2    0    0 -0.63429730562E+00  0.84327252001E+00  0.52887170559E+00  0.90007683561E+02  0.89999944184E+02 0.  0.
         12    1    1    2    0    0  0.63429730562E+00 -0.84327252001E+00 -0.52887170559E+00  0.11803164389E+01  0.00000000000E+00 0. -1.
         11    1    3    3    0    0 -0.16934579421E+02 -0.30497359672E+02 -0.80353255982E+01  0.35797142133E+02  0.51100000000E-03 0. -1.
        -11    1    3    3    0    0  0.38746794234E+01 -0.75849610358E+01 -0.64444122289E+01  0.10680600348E+02  0.51100000000E-03 0.  1.
        -12    1    3    3    0    0  0.12425602692E+02  0.38925593228E+02  0.15008609533E+02  0.43529941081E+02  0.00000000000E+00 0.  1.
</event>
<event>
 7    1  0.2284751E-015  0.9000767E+02  0.7816164E-02  0.1186339E+00
        -11   -1    0    0    0    0  0.00000000000E+00  0.00000000000E+00  0.45593999997E+02  0.45594000000E+02  0.51100000000E-03 0. -1.
         11   -1    0    0    0    0 -0.00000000000E+00 -0.00000000000E+00 -0.45593999997E+02  0.45594000000E+02  0.51100000000E-03 0.  1.
    9900012    2    1    2    0    0  0.10351774205E+01 -0.30318289669E+00 -0.47923579990E+00  0.90007669914E+02  0.89999930356E+02 0.  0.
         12    1    1    2    0    0 -0.10351774205E+01  0.30318289669E+00  0.47923579990E+00  0.11803300863E+01  0.00000000000E+00 0. -1.
         11    1    3    3    0    0  0.23637294662E+02  0.31278237078E+02  0.17307291118E+02  0.42855479693E+02  0.51100000000E-03 0. -1.
        -11    1    3    3    0    0 -0.37083018374E+00 -0.13392683579E+01 -0.83298870309E+01  0.84450087607E+01  0.51100000000E-03 0.  1.
        -12    1    3    3    0    0 -0.22231287057E+02 -0.30242151616E+02 -0.94566398870E+01  0.38707181460E+02  0.00000000000E+00 0.  1.
</event>
<event>
 7    1  0.2284751E-015  0.9000772E+02  0.7816164E-02  0.1186339E+00
        -11   -1    0    0    0    0  0.00000000000E+00  0.00000000000E+00  0.45593999997E+02  0.45594000000E+02  0.51100000000E-03 0. -1.
         11   -1    0    0    0    0 -0.00000000000E+00 -0.00000000000E+00 -0.45593999997E+02  0.45594000000E+02  0.51100000000E-03 0.  1.
    9900012    2    1    2    0    0  0.90283122768E-01 -0.10266132389E+01 -0.57531133964E+00  0.90007716592E+02  0.89999977651E+02 0.  0.
         12    1    1    2    0    0 -0.90283122768E-01  0.10266132389E+01  0.57531133964E+00  0.11802834075E+01  0.00000000000E+00 0. -1.
         11    1    3    3    0    0  0.70682714968E+01 -0.98679679773E+00  0.36622451902E+02  0.37311368421E+02  0.51100000000E-03 0. -1.
        -11    1    3    3    0    0 -0.34997796182E+01  0.47679627170E+01  0.63896439471E+01  0.87068637223E+01  0.51100000000E-03 0.  1.
        -12    1    3    3    0    0 -0.34782087558E+01 -0.48077791582E+01 -0.43587407189E+02  0.43989484449E+02  0.00000000000E+00 0.  1.
</event>
<event>
 7    1  0.2284751E-015  0.9000773E+02  0.7816164E-02  0.1186339E+00
        -11   -1    0    0    0    0  0.00000000000E+00  0.00000000000E+00  0.45593999997E+02  0.45594000000E+02  0.51100000000E-03 0. -1.
         11   -1    0    0    0    0 -0.00000000000E+00 -0.00000000000E+00 -0.45593999997E+02  0.45594000000E+02  0.51100000000E-03 0.  1.
    9900012    2    1    2    0    0 -0.10823642740E+01 -0.22848540375E+00 -0.41149257241E+00  0.90007727092E+02  0.89999988289E+02 0.  0.
         12    1    1    2    0    0  0.10823642740E+01  0.22848540375E+00  0.41149257241E+00  0.11802729085E+01  0.00000000000E+00 0. -1.
         11    1    3    3    0    0  0.34805948524E+02  0.56867628009E+01 -0.10057242382E+02  0.36673443367E+02  0.51100000000E-03 0. -1.
        -11    1    3    3    0    0  0.76453436874E+01  0.13539623330E+01  0.42995605991E+01  0.88752867956E+01  0.51100000000E-03 0.  1.
        -12    1    3    3    0    0 -0.43533656485E+02 -0.72692105377E+01  0.53461892105E+01  0.44458996929E+02  0.00000000000E+00 0.  1.
</event>
<event>
 7    1  0.2284751E-015  0.9000771E+02  0.7816164E-02  0.1186339E+00
        -11   -1    0    0    0    0  0.00000000000E+00  0.00000000000E+00  0.45593999997E+02  0.45594000000E+02  0.51100000000E-03 0.  1.
         11   -1    0    0    0    0 -0.00000000000E+00 -0.00000000000E+00 -0.45593999997E+02  0.45594000000E+02  0.51100000000E-03 0. -1.
    9900012    2    1    2    0    0  0.83771198622E+00  0.81251477298E+00 -0.17644122392E+00  0.90007714808E+02  0.89999975844E+02 0.  0.
         12    1    1    2    0    0 -0.83771198622E+00 -0.81251477298E+00  0.17644122392E+00  0.11802851917E+01  0.00000000000E+00 0. -1.
         11    1    3    3    0    0  0.17451582170E+01  0.59289527645E+01 -0.35896623961E+02  0.36424794717E+02  0.51100000000E-03 0. -1.
        -11    1    3    3    0    0 -0.74005414632E+01  0.36090657891E+01 -0.61794791709E+01  0.10294626409E+02  0.51100000000E-03 0.  1.
        -12    1    3    3    0    0  0.64930952324E+01 -0.87255037806E+01  0.41899661908E+02  0.43288293682E+02  0.00000000000E+00 0.  1.
</event>
<event>
 7    1  0.2284751E-015  0.9000771E+02  0.7816164E-02  0.1186339E+00
        -11   -1    0    0    0    0  0.00000000000E+00  0.00000000000E+00  0.45593999997E+02  0.45594000000E+02  0.51100000000E-03 0.  1.
         11   -1    0    0    0    0 -0.00000000000E+00 -0.00000000000E+00 -0.45593999997E+02  0.45594000000E+02  0.51100000000E-03 0. -1.
    9900012    2    1    2    0    0  0.42437174341E+00 -0.71683412049E+00  0.83615372539E+00  0.90007705297E+02  0.89999966207E+02 0.  0.
         12    1    1    2    0    0 -0.42437174341E+00  0.71683412049E+00 -0.83615372539E+00  0.11802947028E+01  0.00000000000E+00 0. -1.
         11    1    3    3    0    0  0.39399694388E+01 -0.14740002663E+02  0.11440751321E+02  0.19070443853E+02  0.51100000000E-03 0. -1.
        -11    1    3    3    0    0  0.18142656663E+02 -0.18374334463E+02  0.89591491122E+01  0.27332005247E+02  0.51100000000E-03 0.  1.
         12    1    3    3    0    0 -0.21658254358E+02  0.32397503006E+02 -0.19563746708E+02  0.43605256198E+02  0.00000000000E+00 0. -1.
</event>
<event>
 7    1  0.2284751E-015  0.9000774E+02  0.7816164E-02  0.1186339E+00
        -11   -1    0    0    0    0  0.00000000000E+00  0.00000000000E+00  0.45593999997E+02  0.45594000000E+02  0.51100000000E-03 0.  1.
         11   -1    0    0    0    0 -0.00000000000E+00 -0.00000000000E+00 -0.45593999997E+02  0.45594000000E+02  0.51100000000E-03 0. -1.
    9900012    2    1    2    0    0 -0.11000132512E+01 -0.42145505541E+00  0.73176925794E-01  0.90007742240E+02  0.90000003638E+02 0.  0.
         12    1    1    2    0    0  0.11000132512E+01  0.42145505541E+00 -0.73176925794E-01  0.11802577595E+01  0.00000000000E+00 0. -1.
         11    1    3    3    0    0 -0.30377529805E+02 -0.11396646167E+02 -0.18859592538E+02  0.37528150659E+02  0.51100000000E-03 0. -1.
        -11    1    3    3    0    0 -0.59877983940E+01 -0.65494077548E+01  0.21192458179E+00  0.88765637403E+01  0.51100000000E-03 0.  1.
        -12    1    3    3    0    0  0.35265314948E+02  0.17524598866E+02  0.18720844882E+02  0.43603027841E+02  0.00000000000E+00 0.  1.
</event>
<event>
 7    1  0.2284751E-015  0.9000779E+02  0.7816164E-02  0.1186339E+00
        -11   -1    0    0    0    0  0.00000000000E+00  0.00000000000E+00  0.45593999997E+02  0.45594000000E+02  0.51100000000E-03 0. -1.
         11   -1    0    0    0    0 -0.00000000000E+00 -0.00000000000E+00 -0.45593999997E+02  0.45594000000E+02  0.51100000000E-03 0.  1.
    9900012    2    1    2    0    0 -0.58905568608E+00 -0.23800474573E+00 -0.99461137456E+00  0.90007794659E+02  0.90000056749E+02 0.  0.
         12    1    1    2    0    0  0.58905568608E+00  0.23800474573E+00  0.99461137456E+00  0.11802053409E+01  0.00000000000E+00 0. -1.
         11    1    3    3    0    0 -0.25027236554E+01 -0.80278246414E+01 -0.49448343061E+01  0.97550489873E+01  0.51100000000E-03 0. -1.
        -11    1    3    3    0    0 -0.44808231319E+01 -0.35548234955E+02  0.63146408006E+01  0.36381718940E+02  0.51100000000E-03 0.  1.
         12    1    3    3    0    0  0.63944911011E+01  0.43338054850E+02 -0.23644178691E+01  0.43871026732E+02  0.00000000000E+00 0. -1.
</event>
<event>
 7    1  0.2284751E-015  0.9000812E+02  0.7816164E-02  0.1186338E+00
        -11   -1    0    0    0    0  0.00000000000E+00  0.00000000000E+00  0.45593999997E+02  0.45594000000E+02  0.51100000000E-03 0.  1.
         11   -1    0    0    0    0 -0.00000000000E+00 -0.00000000000E+00 -0.45593999997E+02  0.45594000000E+02  0.51100000000E-03 0. -1.
    9900012    2    1    2    0    0  0.71328803148E+00 -0.15180958672E+00  0.92751499425E+00  0.90008122875E+02  0.90000389296E+02 0.  0.
         12    1    1    2    0    0 -0.71328803148E+00  0.15180958672E+00 -0.92751499425E+00  0.11798771254E+01  0.00000000000E+00 0. -1.
         11    1    3    3    0    0  0.21624780699E+02  0.38069417368E+02  0.61674674199E+01  0.44214808986E+02  0.51100000000E-03 0. -1.
        -11    1    3    3    0    0  0.63148252238E+00 -0.92245537760E+01 -0.24332022092E+01  0.95609432481E+01  0.51100000000E-03 0.  1.
        -12    1    3    3    0    0 -0.21542975190E+02 -0.28996673178E+02 -0.28067502165E+01  0.36232370641E+02  0.00000000000E+00 0.  1.
</event>
<event>
 7    1  0.2284751E-015  0.9000764E+02  0.7816164E-02  0.1186339E+00
        -11   -1    0    0    0    0  0.00000000000E+00  0.00000000000E+00  0.45593999997E+02  0.45594000000E+02  0.51100000000E-03 0.  1.
         11   -1    0    0    0    0 -0.00000000000E+00 -0.00000000000E+00 -0.45593999997E+02  0.45594000000E+02  0.51100000000E-03 0. -1.
    9900012    2    1    2    0    0 -0.74264091318E+00  0.55064263955E+00  0.73384748921E+00  0.90007637776E+02  0.89999897795E+02 0.  0.
         12    1    1    2    0    0  0.74264091318E+00 -0.55064263955E+00 -0.73384748921E+00  0.11803622240E+01  0.00000000000E+00 0. -1.
         11    1    3    3    0    0 -0.31057061068E+02 -0.21473669795E+02 -0.77725099802E+01  0.38549597252E+02  0.51100000000E-03 0. -1.
        -11    1    3    3    0    0  0.51305062365E+01 -0.43764471523E+01 -0.87909186494E+01  0.11079514199E+02  0.51100000000E-03 0.  1.
        -12    1    3    3    0    0  0.25183913918E+02  0.26400759587E+02  0.17297276119E+02  0.40378526325E+02  0.00000000000E+00 0.  1.
</event>
<event>
 7    1  0.2284751E-015  0.9000772E+02  0.7816164E-02  0.1186339E+00
        -11   -1    0    0    0    0  0.00000000000E+00  0.00000000000E+00  0.45593999997E+02  0.45594000000E+02  0.51100000000E-03 0.  1.
         11   -1    0    0    0    0 -0.00000000000E+00 -0.00000000000E+00 -0.45593999997E+02  0.45594000000E+02  0.51100000000E-03 0. -1.
    9900012    2    1    2    0    0 -0.11586291757E+01 -0.22495160372E+00 -0.51228601639E-02  0.90007724170E+02  0.89999985329E+02 0.  0.
         12    1    1    2    0    0  0.11586291757E+01  0.22495160372E+00  0.51228601639E-02  0.11802758299E+01  0.00000000000E+00 0. -1.
         11    1    3    3    0    0  0.22945849320E+02  0.23690455648E+02 -0.16132328922E+02  0.36715143014E+02  0.51100000000E-03 0. -1.
        -11    1    3    3    0    0  0.65232906051E+01  0.33147072962E+00 -0.55907050799E+01  0.85976262256E+01  0.51100000000E-03 0.  1.
        -12    1    3    3    0    0 -0.30627769101E+02 -0.24246877981E+02  0.21717911142E+02  0.44694954931E+02  0.00000000000E+00 0.  1.
</event>
<event>
 7    1  0.2284751E-015  0.9000779E+02  0.7816164E-02  0.1186339E+00
        -11   -1    0    0    0    0  0.00000000000E+00  0.00000000000E+00  0.45593999997E+02  0.45594000000E+02  0.51100000000E-03 0. -1.
         11   -1    0    0    0    0 -0.00000000000E+00 -0.00000000000E+00 -0.45593999997E+02  0.45594000000E+02  0.51100000000E-03 0.  1.
    9900012    2    1    2    0    0  0.10896912526E+01 -0.41555006697E+00  0.18105244289E+00  0.90007792869E+02  0.90000054935E+02 0.  0.
         12    1    1    2    0    0 -0.10896912526E+01  0.41555006697E+00 -0.18105244289E+00  0.11802071307E+01  0.00000000000E+00 0. -1.
         11    1    3    3    0    0  0.48527850855E+01  0.52925017398E+01 -0.60240414006E+01  0.93727889557E+01  0.51100000000E-03 0. -1.
        -11    1    3    3    0    0 -0.19014778618E+02  0.14541897650E+02 -0.28777661367E+02  0.37432370847E+02  0.51100000000E-03 0.  1.
         12    1    3    3    0    0  0.15251684785E+02 -0.20249949457E+02  0.34982755211E+02  0.43202633067E+02  0.00000000000E+00 0. -1.
</event>
<event>
 7    1  0.2284751E-015  0.9000775E+02  0.7816164E-02  0.1186339E+00
        -11   -1    0    0    0    0  0.00000000000E+00  0.00000000000E+00  0.45593999997E+02  0.45594000000E+02  0.51100000000E-03 0.  1.
         11   -1    0    0    0    0 -0.00000000000E+00 -0.00000000000E+00 -0.45593999997E+02  0.45594000000E+02  0.51100000000E-03 0. -1.
    9900012    2    1    2    0    0  0.49346266600E+00  0.15309067813E+00  0.10611592918E+01  0.90007745281E+02  0.90000006719E+02 0.  0.
         12    1    1    2    0    0 -0.49346266600E+00 -0.15309067813E+00 -0.10611592918E+01  0.11802547187E+01  0.00000000000E+00 0. -1.
         11    1    3    3    0    0 -0.25746920443E+01 -0.24691788125E+02 -0.83356000039E+01  0.26187700694E+02  0.51100000000E-03 0. -1.
        -11    1    3    3    0    0 -0.34812426414E+01 -0.12082260188E+02  0.21074579733E+02  0.24540537336E+02  0.51100000000E-03 0.  1.
        -12    1    3    3    0    0  0.65493973517E+01  0.36927138991E+02 -0.11677820437E+02  0.39279507251E+02  0.00000000000E+00 0.  1.
</event>
<event>
 7    1  0.2284751E-015  0.9000763E+02  0.7816164E-02  0.1186339E+00
        -11   -1    0    0    0    0  0.00000000000E+00  0.00000000000E+00  0.45593999997E+02  0.45594000000E+02  0.51100000000E-03 0. -1.
         11   -1    0    0    0    0 -0.00000000000E+00 -0.00000000000E+00 -0.45593999997E+02  0.45594000000E+02  0.51100000000E-03 0.  1.
    9900012    2    1    2    0    0  0.74670564745E+00 -0.88221307074E+00 -0.23959621110E+00  0.90007629054E+02  0.89999888957E+02 0.  0.
         12    1    1    2    0    0 -0.74670564745E+00  0.88221307074E+00  0.23959621110E+00  0.11803709461E+01  0.00000000000E+00 0. -1.
         11    1    3    3    0    0  0.61173604812E+01 -0.73699608301E+01 -0.87989664538E+01  0.13006161340E+02  0.51100000000E-03 0. -1.
        -11    1    3    3    0    0 -0.73993777180E+01  0.75755225652E+01 -0.33369493247E+02  0.35009461758E+02  0.51100000000E-03 0.  1.
         12    1    3    3    0    0  0.20287228843E+01 -0.10877748058E+01  0.41928863490E+02  0.41992005955E+02  0.00000000000E+00 0. -1.
</event>
<event>
 7    1  0.2284751E-015  0.9000776E+02  0.7816164E-02  0.1186339E+00
        -11   -1    0    0    0    0  0.00000000000E+00  0.00000000000E+00  0.45593999997E+02  0.45594000000E+02  0.51100000000E-03 0. -1.
         11   -1    0    0    0    0 -0.00000000000E+00 -0.00000000000E+00 -0.45593999997E+02  0.45594000000E+02  0.51100000000E-03 0.  1.
    9900012    2    1    2    0    0  0.60386254878E-01 -0.29843372693E+00 -0.11402885593E+01  0.90007759691E+02  0.90000021319E+02 0.  0.
         12    1    1    2    0    0 -0.60386254878E-01  0.29843372693E+00  0.11402885593E+01  0.11802403093E+01  0.00000000000E+00 0. -1.
         11    1    3    3    0    0  0.99535760032E+01 -0.29654518626E+01 -0.10163136314E+02  0.14531239452E+02  0.51100000000E-03 0. -1.
        -11    1    3    3    0    0  0.34934389093E+01  0.75584509536E+01 -0.31467764152E+02  0.32550798412E+02  0.51100000000E-03 0.  1.
         12    1    3    3    0    0 -0.13386628658E+02 -0.48914328179E+01  0.40490611907E+02  0.42925721828E+02  0.00000000000E+00 0. -1.
</event>
<event>
 7    1  0.2284751E-015  0.9000770E+02  0.7816164E-02  0.1186339E+00
        -11   -1    0    0    0    0  0.00000000000E+00  0.00000000000E+00  0.45593999997E+02  0.45594000000E+02  0.51100000000E-03 0.  1.
         11   -1    0    0    0    0 -0.00000000000E+00 -0.00000000000E+00 -0.45593999997E+02  0.45594000000E+02  0.51100000000E-03 0. -1.
    9900012    2    1    2    0    0  0.10299367546E+01  0.24572661995E+00  0.52148734134E+00  0.90007703284E+02  0.89999964168E+02 0.  0.
         12    1    1    2    0    0 -0.10299367546E+01 -0.24572661995E+00 -0.52148734134E+00  0.11802967158E+01  0.00000000000E+00 0. -1.
         11    1    3    3    0    0  0.55654099752E+01  0.37072109341E-01 -0.30695086803E+01  0.63558670795E+01  0.51100000000E-03 0. -1.
        -11    1    3    3    0    0  0.32025608368E+02 -0.23720215762E+02  0.67463508018E+00  0.39859043640E+02  0.51100000000E-03 0.  1.
         12    1    3    3    0    0 -0.36561081589E+02  0.23928870272E+02  0.29163609414E+01  0.43792792565E+02  0.00000000000E+00 0. -1.
</event>
<event>
 7    1  0.2284751E-015  0.9000766E+02  0.7816164E-02  0.1186339E+00
        -11   -1    0    0    0    0  0.00000000000E+00  0.00000000000E+00  0.45593999997E+02  0.45594000000E+02  0.51100000000E-03 0. -1.
         11   -1    0    0    0    0 -0.00000000000E+00 -0.00000000000E+00 -0.45593999997E+02  0.45594000000E+02  0.51100000000E-03 0.  1.
    9900012    2    1    2    0    0  0.84795634726E+00 -0.51325396150E+00  0.64088876428E+00  0.90007661911E+02  0.89999922248E+02 0.  0.
         12    1    1    2    0    0 -0.84795634726E+00  0.51325396150E+00 -0.64088876428E+00  0.11803380889E+01  0.00000000000E+00 0. -1.
         11    1    3    3    0    0  0.21296287812E+02 -0.20731670874E+02  0.23213538475E+02  0.37712099127E+02  0.51100000000E-03 0. -1.
        -11    1    3    3    0    0  0.29468966395E+01 -0.28109622367E+00  0.80918259029E+01  0.86163136894E+01  0.51100000000E-03 0.  1.
        -12    1    3    3    0    0 -0.23395228104E+02  0.20499513136E+02 -0.30664475613E+02  0.43679249095E+02  0.00000000000E+00 0.  1.
</event>
<event>
 7    1  0.2284751E-015  0.9000772E+02  0.7816164E-02  0.1186339E+00
        -11   -1    0    0    0    0  0.00000000000E+00  0.00000000000E+00  0.45593999997E+02  0.45594000000E+02  0.51100000000E-03 0. -1.
         11   -1    0    0    0    0 -0.00000000000E+00 -0.00000000000E+00 -0.45593999997E+02  0.45594000000E+02  0.51100000000E-03 0.  1.
    9900012    2    1    2    0    0 -0.14768016090E+00 -0.74817456213E+00 -0.90082941839E+00  0.90007716879E+02  0.89999977942E+02 0.  0.
         12    1    1    2    0    0  0.14768016090E+00  0.74817456213E+00  0.90082941839E+00  0.11802831213E+01  0.00000000000E+00 0. -1.
         11    1    3    3    0    0 -0.20707300872E+01 -0.37638875595E+02  0.27990294118E+01  0.37799569377E+02  0.51100000000E-03 0. -1.
        -11    1    3    3    0    0  0.38385645329E+01 -0.61046212341E+01  0.43531605989E+01  0.84232407983E+01  0.51100000000E-03 0.  1.
        -12    1    3    3    0    0 -0.19155146066E+01  0.42995322267E+02 -0.80530194291E+01  0.43784906703E+02  0.00000000000E+00 0.  1.
</event>
<event>
 7    1  0.2284751E-015  0.9000751E+02  0.7816164E-02  0.1186339E+00
        -11   -1    0    0    0    0  0.00000000000E+00  0.00000000000E+00  0.45593999997E+02  0.45594000000E+02  0.51100000000E-03 0. -1.
         11   -1    0    0    0    0 -0.00000000000E+00 -0.00000000000E+00 -0.45593999997E+02  0.45594000000E+02  0.51100000000E-03 0.  1.
    9900012    2    1    2    0    0 -0.82739866053E+00 -0.64926943107E+00 -0.53610770951E+00  0.90007512468E+02  0.89999770832E+02 0.  0.
         12    1    1    2    0    0  0.82739866053E+00  0.64926943107E+00  0.53610770951E+00  0.11804875322E+01  0.00000000000E+00 0. -1.
         11    1    3    3    0    0  0.55739459429E+01  0.41788406728E+01  0.49174826695E+01  0.85272046304E+01  0.51100000000E-03 0. -1.
        -11    1    3    3    0    0  0.35534988553E+01 -0.91230381019E+01 -0.42120849933E+02  0.43243764610E+02  0.51100000000E-03 0.  1.
         12    1    3    3    0    0 -0.99548434587E+01  0.42949279980E+01  0.36667259554E+02  0.38236543227E+02  0.00000000000E+00 0. -1.
</event>
<event>
 7    1  0.2284751E-015  0.9000779E+02  0.7816164E-02  0.1186339E+00
        -11   -1    0    0    0    0  0.00000000000E+00  0.00000000000E+00  0.45593999997E+02  0.45594000000E+02  0.51100000000E-03 0.  1.
         11   -1    0    0    0    0 -0.00000000000E+00 -0.00000000000E+00 -0.45593999997E+02  0.45594000000E+02  0.51100000000E-03 0. -1.
    9900012    2    1    2    0    0 -0.19280198050E+00 -0.70778455773E+00  0.92453327733E+00  0.90007790966E+02  0.90000053006E+02 0.  0.
         12    1    1    2    0    0  0.19280198050E+00  0.70778455773E+00 -0.92453327733E+00  0.11802090343E+01  0.00000000000E+00 0. -1.
         11    1    3    3    0    0  0.20940095384E+02 -0.32062788150E+01 -0.31553606394E+02  0.38005235103E+02  0.51100000000E-03 0. -1.
        -11    1    3    3    0    0 -0.11743041723E+00 -0.81479421203E+01 -0.36043208706E+01  0.89103243431E+01  0.51100000000E-03 0.  1.
        -12    1    3    3    0    0 -0.21015466947E+02  0.10646436378E+02  0.36082460542E+02  0.43092231519E+02  0.00000000000E+00 0.  1.
</event>
<event>
 7    1  0.2284751E-015  0.9000785E+02  0.7816164E-02  0.1186339E+00
        -11   -1    0    0    0    0  0.00000000000E+00  0.00000000000E+00  0.45593999997E+02  0.45594000000E+02  0.51100000000E-03 0.  1.
         11   -1    0    0    0    0 -0.00000000000E+00 -0.00000000000E+00 -0.45593999997E+02  0.45594000000E+02  0.51100000000E-03 0. -1.
    9900012    2    1    2    0    0  0.88062015568E-01  0.11716691454E+01  0.11045337342E+00  0.90007846005E+02  0.90000108772E+02 0.  0.
         12    1    1    2    0    0 -0.88062015568E-01 -0.11716691454E+01 -0.11045337342E+00  0.11801539953E+01  0.00000000000E+00 0. -1.
         11    1    3    3    0    0 -0.30652866838E+02  0.13427848355E+02 -0.22359580001E+02  0.40247436873E+02  0.51100000000E-03 0. -1.
        -11    1    3    3    0    0 -0.34782940277E+01 -0.62099192550E+00  0.11437566699E+02  0.11970885204E+02  0.51100000000E-03 0.  1.
        -12    1    3    3    0    0  0.34219222881E+02 -0.11635187284E+02  0.11032466675E+02  0.37789523927E+02  0.00000000000E+00 0.  1.
</event>
<event>
 7    1  0.2284751E-015  0.9000778E+02  0.7816164E-02  0.1186339E+00
        -11   -1    0    0    0    0  0.00000000000E+00  0.00000000000E+00  0.45593999997E+02  0.45594000000E+02  0.51100000000E-03 0.  1.
         11   -1    0    0    0    0 -0.00000000000E+00 -0.00000000000E+00 -0.45593999997E+02  0.45594000000E+02  0.51100000000E-03 0. -1.
    9900012    2    1    2    0    0  0.58811044382E-01 -0.63943471087E+00  0.99024730849E+00  0.90007777470E+02  0.90000039333E+02 0.  0.
         12    1    1    2    0    0 -0.58811044382E-01  0.63943471087E+00 -0.99024730849E+00  0.11802225300E+01  0.00000000000E+00 0. -1.
         11    1    3    3    0    0  0.83962114586E+00  0.78437729713E+01  0.68237155778E+01  0.10430380273E+02  0.51100000000E-03 0. -1.
        -11    1    3    3    0    0 -0.19826142520E+02  0.14989998884E+02  0.25799189934E+02  0.35824212417E+02  0.51100000000E-03 0.  1.
         12    1    3    3    0    0  0.19045332418E+02 -0.23473206566E+02 -0.31632658203E+02  0.43753184780E+02  0.00000000000E+00 0. -1.
</event>
<event>
 7    1  0.2284751E-015  0.9000833E+02  0.7816164E-02  0.1186338E+00
        -11   -1    0    0    0    0  0.00000000000E+00  0.00000000000E+00  0.45593999997E+02  0.45594000000E+02  0.51100000000E-03 0.  1.
         11   -1    0    0    0    0 -0.00000000000E+00 -0.00000000000E+00 -0.45593999997E+02  0.45594000000E+02  0.51100000000E-03 0. -1.
    9900012    2    1    2    0    0  0.51309511675E+00  0.50040057058E+00  0.93699091757E+00  0.90008330847E+02  0.90000600013E+02 0.  0.
         12    1    1    2    0    0 -0.51309511675E+00 -0.50040057058E+00 -0.93699091757E+00  0.11796691526E+01  0.00000000000E+00 0. -1.
         11    1    3    3    0    0  0.29491567304E+02 -0.24496959175E+01 -0.19992791615E+02  0.35713656617E+02  0.51100000000E-03 0. -1.
        -11    1    3    3    0    0  0.94246925153E+00  0.10430784222E+02 -0.70720892319E+01  0.12637402982E+02  0.51100000000E-03 0.  1.
        -12    1    3    3    0    0 -0.29920941438E+02 -0.74806877336E+01  0.28001871765E+02  0.41657271248E+02  0.00000000000E+00 0.  1.
</event>
<event>
 7    1  0.2284751E-015  0.9000755E+02  0.7816164E-02  0.1186339E+00
        -11   -1    0    0    0    0  0.00000000000E+00  0.00000000000E+00  0.45593999997E+02  0.45594000000E+02  0.51100000000E-03 0.  1.
         11   -1    0    0    0    0 -0.00000000000E+00 -0.00000000000E+00 -0.45593999997E+02  0.45594000000E+02  0.51100000000E-03 0. -1.
    9900012    2    1    2    0    0 -0.11051740650E+01 -0.89175976464E-01  0.40508430021E+00  0.90007552899E+02  0.89999811797E+02 0.  0.
         12    1    1    2    0    0  0.11051740650E+01  0.89175976464E-01 -0.40508430021E+00  0.11804471013E+01  0.00000000000E+00 0. -1.
         11    1    3    3    0    0 -0.15386111036E+02 -0.14783948677E+02 -0.33847172428E+02  0.40011606228E+02  0.51100000000E-03 0. -1.
        -11    1    3    3    0    0 -0.39803882298E+01  0.11972336112E+02  0.19179444841E+01  0.12761615640E+02  0.51100000000E-03 0.  1.
        -12    1    3    3    0    0  0.18261325201E+02  0.27224365891E+01  0.32334312244E+02  0.37234331031E+02  0.00000000000E+00 0.  1.
</event>
<event>
 7    1  0.2284751E-015  0.9000803E+02  0.7816164E-02  0.1186338E+00
        -11   -1    0    0    0    0  0.00000000000E+00  0.00000000000E+00  0.45593999997E+02  0.45594000000E+02  0.51100000000E-03 0.  1.
         11   -1    0    0    0    0 -0.00000000000E+00 -0.00000000000E+00 -0.45593999997E+02  0.45594000000E+02  0.51100000000E-03 0. -1.
    9900012    2    1    2    0    0  0.69648155745E+00 -0.49425927406E+00 -0.81421661593E+00  0.90008030726E+02  0.90000295931E+02 0.  0.
         12    1    1    2    0    0 -0.69648155745E+00  0.49425927406E+00  0.81421661593E+00  0.11799692740E+01  0.00000000000E+00 0. -1.
         11    1    3    3    0    0  0.25135064195E+01  0.16141459513E+01 -0.23102740469E+01  0.37763140900E+01  0.51100000000E-03 0. -1.
        -11    1    3    3    0    0  0.37034254276E+02 -0.14859812022E+02  0.15790400536E+02  0.42914877985E+02  0.51100000000E-03 0.  1.
         12    1    3    3    0    0 -0.38851279138E+02  0.12751406797E+02 -0.14294343105E+02  0.43316838651E+02  0.00000000000E+00 0. -1.
</event>
<event>
 7    1  0.2284751E-015  0.9000706E+02  0.7816164E-02  0.1186340E+00
        -11   -1    0    0    0    0  0.00000000000E+00  0.00000000000E+00  0.45593999997E+02  0.45594000000E+02  0.51100000000E-03 0. -1.
         11   -1    0    0    0    0 -0.00000000000E+00 -0.00000000000E+00 -0.45593999997E+02  0.45594000000E+02  0.51100000000E-03 0.  1.
    9900012    2    1    2    0    0 -0.80436330713E+00 -0.56542346973E+00 -0.65415242422E+00  0.90007059941E+02  0.89999312329E+02 0.  0.
         12    1    1    2    0    0  0.80436330713E+00  0.56542346973E+00  0.65415242422E+00  0.11809400595E+01  0.00000000000E+00 0. -1.
         11    1    3    3    0    0  0.10565884612E+02 -0.31281033898E+01 -0.84187031871E+01  0.13867137847E+02  0.51100000000E-03 0. -1.
        -11    1    3    3    0    0 -0.14135255108E+02 -0.10713301985E+02 -0.30644549470E+02  0.35407184142E+02  0.51100000000E-03 0.  1.
         12    1    3    3    0    0  0.27650071887E+01  0.13275981905E+02  0.38409100233E+02  0.40732737951E+02  0.00000000000E+00 0. -1.
</event>
<event>
 7    1  0.2629071E-015  0.9000774E+02  0.7816164E-02  0.1186339E+00
        -11   -1    0    0    0    0  0.00000000000E+00  0.00000000000E+00  0.45593999997E+02  0.45594000000E+02  0.51100000000E-03 0.  1.
         11   -1    0    0    0    0 -0.00000000000E+00 -0.00000000000E+00 -0.45593999997E+02  0.45594000000E+02  0.51100000000E-03 0. -1.
    9900012    2    1    2    0    0 -0.68587550473E+00  0.40005881701E+00  0.87323638468E+00  0.90007739839E+02  0.90000001204E+02 0.  0.
         12    1    1    2    0    0  0.68587550473E+00 -0.40005881701E+00 -0.87323638468E+00  0.11802601614E+01  0.00000000000E+00 0. -1.
         11    1    3    3    0    0  0.10728516921E+02  0.14319096963E+01 -0.35852753008E+02  0.37450919071E+02  0.51100000000E-03 0. -1.
        -11    1    3    3    0    0  0.92398935896E+01  0.67499585150E+00 -0.11958026455E+01  0.93413701979E+01  0.51100000000E-03 0.  1.
        -12    1    3    3    0    0 -0.20654286015E+02 -0.17068467308E+01  0.37921792039E+02  0.43215450570E+02  0.00000000000E+00 0.  1.
</event>
<event>
 7    1  0.2284751E-015  0.9000770E+02  0.7816164E-02  0.1186339E+00
        -11   -1    0    0    0    0  0.00000000000E+00  0.00000000000E+00  0.45593999997E+02  0.45594000000E+02  0.51100000000E-03 0.  1.
         11   -1    0    0    0    0 -0.00000000000E+00 -0.00000000000E+00 -0.45593999997E+02  0.45594000000E+02  0.51100000000E-03 0. -1.
    9900012    2    1    2    0    0 -0.15417480435E-01 -0.26643168932E+00  0.11497347881E+01  0.90007697655E+02  0.89999958464E+02 0.  0.
         12    1    1    2    0    0  0.15417480435E-01  0.26643168932E+00 -0.11497347881E+01  0.11803023454E+01  0.00000000000E+00 0. -1.
         11    1    3    3    0    0 -0.65704745508E+01  0.12180167611E+02 -0.38186746188E+02  0.40617178675E+02  0.51100000000E-03 0.  1.
        -11    1    3    3    0    0  0.53166112467E+01 -0.97424662996E+01  0.12283579021E+01  0.11166506533E+02  0.51100000000E-03 0. -1.
        -12    1    3    3    0    0  0.12384458237E+01 -0.27041330007E+01  0.38108123074E+02  0.38224012447E+02  0.00000000000E+00 0.  1.
</event>
<event>
 7    1  0.2284751E-015  0.9000770E+02  0.7816164E-02  0.1186339E+00
        -11   -1    0    0    0    0  0.00000000000E+00  0.00000000000E+00  0.45593999997E+02  0.45594000000E+02  0.51100000000E-03 0.  1.
         11   -1    0    0    0    0 -0.00000000000E+00 -0.00000000000E+00 -0.45593999997E+02  0.45594000000E+02  0.51100000000E-03 0. -1.
    9900012    2    1    2    0    0 -0.10633837308E+01 -0.78461825281E-01  0.50613802677E+00  0.90007696260E+02  0.89999957050E+02 0.  0.
         12    1    1    2    0    0  0.10633837308E+01  0.78461825281E-01 -0.50613802677E+00  0.11803037402E+01  0.00000000000E+00 0. -1.
         11    1    3    3    0    0 -0.36043398375E+02  0.62378360840E+01  0.58252234913E+01  0.37040118715E+02  0.51100000000E-03 0. -1.
        -11    1    3    3    0    0 -0.66109835197E+01  0.16063344279E+01 -0.80510964170E+01  0.10540662558E+02  0.51100000000E-03 0.  1.
        -12    1    3    3    0    0  0.41590998164E+02 -0.79226323372E+01  0.27320109525E+01  0.42426914986E+02  0.00000000000E+00 0.  1.
</event>
<event>
 7    1  0.2284751E-015  0.9000766E+02  0.7816164E-02  0.1186339E+00
        -11   -1    0    0    0    0  0.00000000000E+00  0.00000000000E+00  0.45593999997E+02  0.45594000000E+02  0.51100000000E-03 0. -1.
         11   -1    0    0    0    0 -0.00000000000E+00 -0.00000000000E+00 -0.45593999997E+02  0.45594000000E+02  0.51100000000E-03 0.  1.
    9900012    2    1    2    0    0 -0.10932869942E+01  0.29712584667E-01  0.44389488419E+00  0.90007660236E+02  0.89999920551E+02 0.  0.
         12    1    1    2    0    0  0.10932869942E+01 -0.29712584667E-01 -0.44389488419E+00  0.11803397636E+01  0.00000000000E+00 0. -1.
         11    1    3    3    0    0  0.38368274080E+01  0.84241913496E+01  0.95711600969E+01  0.13315230014E+02  0.51100000000E-03 0. -1.
        -11    1    3    3    0    0  0.32920349496E+02  0.26800355781E+01 -0.15934267869E+02  0.36671963329E+02  0.51100000000E-03 0.  1.
         12    1    3    3    0    0 -0.37850463898E+02 -0.11074514343E+02  0.68070026568E+01  0.40020466894E+02  0.00000000000E+00 0. -1.
</event>
<event>
 7    1  0.2284751E-015  0.9000771E+02  0.7816164E-02  0.1186339E+00
        -11   -1    0    0    0    0  0.00000000000E+00  0.00000000000E+00  0.45593999997E+02  0.45594000000E+02  0.51100000000E-03 0.  1.
         11   -1    0    0    0    0 -0.00000000000E+00 -0.00000000000E+00 -0.45593999997E+02  0.45594000000E+02  0.51100000000E-03 0. -1.
    9900012    2    1    2    0    0  0.22480150231E+00 -0.73780007203E+00  0.89341370231E+00  0.90007714990E+02  0.89999976028E+02 0.  0.
         12    1    1    2    0    0 -0.22480150231E+00  0.73780007203E+00 -0.89341370231E+00  0.11802850102E+01  0.00000000000E+00 0. -1.
         11    1    3    3    0    0 -0.27121841200E+01 -0.36723286603E+02  0.27433222630E+01  0.36925350898E+02  0.51100000000E-03 0. -1.
        -11    1    3    3    0    0 -0.60434479166E+01 -0.65423126930E+01 -0.35392327185E+01  0.95839076890E+01  0.51100000000E-03 0.  1.
        -12    1    3    3    0    0  0.89804335389E+01  0.42527799224E+02  0.16893241579E+01  0.43498456403E+02  0.00000000000E+00 0.  1.
</event>
<event>
 7    1  0.2284751E-015  0.9000785E+02  0.7816164E-02  0.1186339E+00
        -11   -1    0    0    0    0  0.00000000000E+00  0.00000000000E+00  0.45593999997E+02  0.45594000000E+02  0.51100000000E-03 0. -1.
         11   -1    0    0    0    0 -0.00000000000E+00 -0.00000000000E+00 -0.45593999997E+02  0.45594000000E+02  0.51100000000E-03 0.  1.
    9900012    2    1    2    0    0 -0.17833791461E+00 -0.11611727357E+01  0.11235062936E+00  0.90007852044E+02  0.90000114891E+02 0.  0.
         12    1    1    2    0    0  0.17833791461E+00  0.11611727357E+01 -0.11235062936E+00  0.11801479559E+01  0.00000000000E+00 0. -1.
         11    1    3    3    0    0  0.69096321556E+01 -0.56343384053E+01 -0.20790772968E+01  0.91548538196E+01  0.51100000000E-03 0. -1.
        -11    1    3    3    0    0  0.33663217786E+02  0.11929672932E+02 -0.11009309465E+02  0.37372907609E+02  0.51100000000E-03 0.  1.
         12    1    3    3    0    0 -0.40751187857E+02 -0.74565072623E+01  0.13200737391E+02  0.43480090616E+02  0.00000000000E+00 0. -1.
</event>
<event>
 7    1  0.2284751E-015  0.9000774E+02  0.7816164E-02  0.1186339E+00
        -11   -1    0    0    0    0  0.00000000000E+00  0.00000000000E+00  0.45593999997E+02  0.45594000000E+02  0.51100000000E-03 0.  1.
         11   -1    0    0    0    0 -0.00000000000E+00 -0.00000000000E+00 -0.45593999997E+02  0.45594000000E+02  0.51100000000E-03 0. -1.
    9900012    2    1    2    0    0  0.73078511913E+00 -0.47728276220E+00 -0.79446192422E+00  0.90007739235E+02  0.90000000592E+02 0.  0.
         12    1    1    2    0    0 -0.73078511913E+00  0.47728276220E+00  0.79446192422E+00  0.11802607655E+01  0.00000000000E+00 0. -1.
         11    1    3    3    0    0 -0.54720706011E+01  0.12090883057E+02 -0.18940581223E+02  0.23127443159E+02  0.51100000000E-03 0. -1.
        -11    1    3    3    0    0 -0.26375431074E+02 -0.78055212137E+01 -0.31236478761E+01  0.27682967725E+02  0.51100000000E-03 0.  1.
         12    1    3    3    0    0  0.32578286795E+02 -0.47626446057E+01  0.21269767175E+02  0.39197328350E+02  0.00000000000E+00 0. -1.
</event>
<event>
 7    1  0.2284751E-015  0.9000757E+02  0.7816164E-02  0.1186339E+00
        -11   -1    0    0    0    0  0.00000000000E+00  0.00000000000E+00  0.45593999997E+02  0.45594000000E+02  0.51100000000E-03 0.  1.
         11   -1    0    0    0    0 -0.00000000000E+00 -0.00000000000E+00 -0.45593999997E+02  0.45594000000E+02  0.51100000000E-03 0. -1.
    9900012    2    1    2    0    0 -0.11577942156E+01 -0.19194176897E+00  0.12687225768E+00  0.90007565479E+02  0.89999824543E+02 0.  0.
         12    1    1    2    0    0  0.11577942156E+01  0.19194176897E+00 -0.12687225768E+00  0.11804345209E+01  0.00000000000E+00 0. -1.
         11    1    3    3    0    0 -0.92726494511E+01  0.22786245171E+02  0.55411941121E+01  0.25217054334E+02  0.51100000000E-03 0. -1.
        -11    1    3    3    0    0  0.22096585436E+02  0.16489122798E+01  0.17601220731E+02  0.28298073629E+02  0.51100000000E-03 0.  1.
         12    1    3    3    0    0 -0.13981730200E+02 -0.24627099219E+02 -0.23015542586E+02  0.36492437516E+02  0.00000000000E+00 0. -1.
</event>
<event>
 7    1  0.2284751E-015  0.9000785E+02  0.7816164E-02  0.1186339E+00
        -11   -1    0    0    0    0  0.00000000000E+00  0.00000000000E+00  0.45593999997E+02  0.45594000000E+02  0.51100000000E-03 0. -1.
         11   -1    0    0    0    0 -0.00000000000E+00 -0.00000000000E+00 -0.45593999997E+02  0.45594000000E+02  0.51100000000E-03 0.  1.
    9900012    2    1    2    0    0  0.10862801071E+01 -0.24789662975E+00 -0.38896921903E+00  0.90007849898E+02  0.90000112717E+02 0.  0.
         12    1    1    2    0    0 -0.10862801071E+01  0.24789662975E+00  0.38896921903E+00  0.11801501021E+01  0.00000000000E+00 0. -1.
         11    1    3    3    0    0 -0.30344242706E+01 -0.47753039306E+01 -0.59501163832E+01  0.82106725375E+01  0.51100000000E-03 0. -1.
        -11    1    3    3    0    0  0.36246871053E+02  0.15889309487E+02 -0.14623178967E+02  0.42191743037E+02  0.51100000000E-03 0.  1.
         12    1    3    3    0    0 -0.32126166676E+02 -0.11361902187E+02  0.20184326131E+02  0.39605434323E+02  0.00000000000E+00 0. -1.
</event>
<event>
 7    1  0.2284751E-015  0.9000777E+02  0.7816164E-02  0.1186339E+00
        -11   -1    0    0    0    0  0.00000000000E+00  0.00000000000E+00  0.45593999997E+02  0.45594000000E+02  0.51100000000E-03 0.  1.
         11   -1    0    0    0    0 -0.00000000000E+00 -0.00000000000E+00 -0.45593999997E+02  0.45594000000E+02  0.51100000000E-03 0. -1.
    9900012    2    1    2    0    0  0.58555316897E+00  0.31201209377E+00  0.97607776395E+00  0.90007766183E+02  0.90000027897E+02 0.  0.
         12    1    1    2    0    0 -0.58555316897E+00 -0.31201209377E+00 -0.97607776395E+00  0.11802338165E+01  0.00000000000E+00 0. -1.
         11    1    3    3    0    0  0.23613793383E+02  0.27255349192E+01 -0.34019131362E+02  0.41501097304E+02  0.51100000000E-03 0. -1.
        -11    1    3    3    0    0  0.38328544210E+01 -0.16396632947E+01 -0.26101775367E+00  0.41770084105E+01  0.51100000000E-03 0.  1.
        -12    1    3    3    0    0 -0.26861094635E+02 -0.77385953071E+00  0.35256226880E+02  0.44329660469E+02  0.00000000000E+00 0.  1.
</event>
<event>
 7    1  0.2284751E-015  0.9000782E+02  0.7816164E-02  0.1186339E+00
        -11   -1    0    0    0    0  0.00000000000E+00  0.00000000000E+00  0.45593999997E+02  0.45594000000E+02  0.51100000000E-03 0.  1.
         11   -1    0    0    0    0 -0.00000000000E+00 -0.00000000000E+00 -0.45593999997E+02  0.45594000000E+02  0.51100000000E-03 0. -1.
    9900012    2    1    2    0    0  0.81539207659E+00 -0.15772584750E+00  0.83849863832E+00  0.90007821349E+02  0.90000083791E+02 0.  0.
         12    1    1    2    0    0 -0.81539207659E+00  0.15772584750E+00 -0.83849863832E+00  0.11801786509E+01  0.00000000000E+00 0. -1.
         11    1    3    3    0    0  0.75281413636E+01 -0.97741658546E+01 -0.10827911726E+02  0.16414959736E+02  0.51100000000E-03 0. -1.
        -11    1    3    3    0    0  0.25952140737E+02 -0.12629039257E+02  0.17335682961E+02  0.33667969130E+02  0.51100000000E-03 0.  1.
         12    1    3    3    0    0 -0.32664890024E+02  0.22245479264E+02 -0.56692725970E+01  0.39924892483E+02  0.00000000000E+00 0. -1.
</event>
<event>
 7    1  0.2284751E-015  0.9000759E+02  0.7816164E-02  0.1186339E+00
        -11   -1    0    0    0    0  0.00000000000E+00  0.00000000000E+00  0.45593999997E+02  0.45594000000E+02  0.51100000000E-03 0. -1.
         11   -1    0    0    0    0 -0.00000000000E+00 -0.00000000000E+00 -0.45593999997E+02  0.45594000000E+02  0.51100000000E-03 0.  1.
    9900012    2    1    2    0    0 -0.67921165842E+00  0.93950695184E+00 -0.22216135431E+00  0.90007594368E+02  0.89999853813E+02 0.  0.
         12    1    1    2    0    0  0.67921165842E+00 -0.93950695184E+00  0.22216135431E+00  0.11804056323E+01  0.00000000000E+00 0. -1.
         11    1    3    3    0    0 -0.57250209871E+01 -0.41157459375E+01  0.66594441632E+01  0.96986301480E+01  0.51100000000E-03 0. -1.
        -11    1    3    3    0    0 -0.25042709979E+02 -0.23862593455E+02 -0.15153708156E+02  0.37765004444E+02  0.51100000000E-03 0.  1.
         12    1    3    3    0    0  0.30088519308E+02  0.28917846345E+02  0.82721026380E+01  0.42543959776E+02  0.00000000000E+00 0. -1.
</event>
<event>
 7    1  0.2284751E-015  0.9000772E+02  0.7816164E-02  0.1186339E+00
        -11   -1    0    0    0    0  0.00000000000E+00  0.00000000000E+00  0.45593999997E+02  0.45594000000E+02  0.51100000000E-03 0.  1.
         11   -1    0    0    0    0 -0.00000000000E+00 -0.00000000000E+00 -0.45593999997E+02  0.45594000000E+02  0.51100000000E-03 0. -1.
    9900012    2    1    2    0    0 -0.10123971463E+01 -0.23064501135E+00 -0.56116857414E+00  0.90007722375E+02  0.89999983510E+02 0.  0.
         12    1    1    2    0    0  0.10123971463E+01  0.23064501135E+00  0.56116857414E+00  0.11802776249E+01  0.00000000000E+00 0. -1.
         11    1    3    3    0    0 -0.25982521641E+01 -0.14367795744E+02 -0.36536932315E+02  0.39346307223E+02  0.51100000000E-03 0. -1.
        -11    1    3    3    0    0  0.93017789714E+01 -0.25945904776E+01 -0.63282157304E+00  0.96775748607E+01  0.51100000000E-03 0.  1.
        -12    1    3    3    0    0 -0.77159239537E+01  0.16731741210E+02  0.36608585314E+02  0.40983840292E+02  0.00000000000E+00 0.  1.
</event>
<event>
 7    1  0.2284751E-015  0.9000779E+02  0.7816164E-02  0.1186339E+00
        -11   -1    0    0    0    0  0.00000000000E+00  0.00000000000E+00  0.45593999997E+02  0.45594000000E+02  0.51100000000E-03 0. -1.
         11   -1    0    0    0    0 -0.00000000000E+00 -0.00000000000E+00 -0.45593999997E+02  0.45594000000E+02  0.51100000000E-03 0.  1.
    9900012    2    1    2    0    0 -0.11625134492E+01 -0.20217145567E+00 -0.24119986522E-01  0.90007791294E+02  0.90000053339E+02 0.  0.
         12    1    1    2    0    0  0.11625134492E+01  0.20217145567E+00  0.24119986522E-01  0.11802087064E+01  0.00000000000E+00 0. -1.
         11    1    3    3    0    0 -0.65123978928E+01  0.55470417116E+01  0.40592284674E+01  0.94688084824E+01  0.51100000000E-03 0. -1.
        -11    1    3    3    0    0 -0.20176815010E+02 -0.23338148923E+02 -0.27783523616E+02  0.41517433012E+02  0.51100000000E-03 0.  1.
         12    1    3    3    0    0  0.25526699454E+02  0.17588935756E+02  0.23700175162E+02  0.39021549799E+02  0.00000000000E+00 0. -1.
</event>
<event>
 7    1  0.2284751E-015  0.9000773E+02  0.7816164E-02  0.1186339E+00
        -11   -1    0    0    0    0  0.00000000000E+00  0.00000000000E+00  0.45593999997E+02  0.45594000000E+02  0.51100000000E-03 0. -1.
         11   -1    0    0    0    0 -0.00000000000E+00 -0.00000000000E+00 -0.45593999997E+02  0.45594000000E+02  0.51100000000E-03 0.  1.
    9900012    2    1    2    0    0  0.91431086666E+00 -0.60796449636E+00 -0.43295198849E+00  0.90007731974E+02  0.89999993236E+02 0.  0.
         12    1    1    2    0    0 -0.91431086666E+00  0.60796449636E+00  0.43295198849E+00  0.11802680264E+01  0.00000000000E+00 0. -1.
         11    1    3    3    0    0 -0.18987620541E+02 -0.35277813719E+02  0.11625674978E+02  0.41715826655E+02  0.51100000000E-03 0. -1.
        -11    1    3    3    0    0  0.33190637575E+01  0.59332275277E+01  0.72219012634E+01  0.99184288696E+01  0.51100000000E-03 0.  1.
        -12    1    3    3    0    0  0.16582867650E+02  0.28736621695E+02 -0.19280528229E+02  0.38373476449E+02  0.00000000000E+00 0.  1.
</event>
<event>
 7    1  0.2284751E-015  0.9000774E+02  0.7816164E-02  0.1186339E+00
        -11   -1    0    0    0    0  0.00000000000E+00  0.00000000000E+00  0.45593999997E+02  0.45594000000E+02  0.51100000000E-03 0. -1.
         11   -1    0    0    0    0 -0.00000000000E+00 -0.00000000000E+00 -0.45593999997E+02  0.45594000000E+02  0.51100000000E-03 0.  1.
    9900012    2    1    2    0    0  0.89548550680E+00 -0.66627676394E+00  0.38365230238E+00  0.90007742355E+02  0.90000003754E+02 0.  0.
         12    1    1    2    0    0 -0.89548550680E+00  0.66627676394E+00 -0.38365230238E+00  0.11802576448E+01  0.00000000000E+00 0. -1.
         11    1    3    3    0    0  0.63726440654E+01 -0.17189601068E+02  0.37213482821E+02  0.41484169043E+02  0.51100000000E-03 0. -1.
        -11    1    3    3    0    0 -0.73586829971E+01 -0.16963763569E+01 -0.18263035341E+00  0.75538905409E+01  0.51100000000E-03 0.  1.
        -12    1    3    3    0    0  0.18815244385E+01  0.18219700661E+02 -0.36647200165E+02  0.40969682771E+02  0.00000000000E+00 0.  1.
</event>
<event>
 7    1  0.2284751E-015  0.9000768E+02  0.7816164E-02  0.1186339E+00
        -11   -1    0    0    0    0  0.00000000000E+00  0.00000000000E+00  0.45593999997E+02  0.45594000000E+02  0.51100000000E-03 0.  1.
         11   -1    0    0    0    0 -0.00000000000E+00 -0.00000000000E+00 -0.45593999997E+02  0.45594000000E+02  0.51100000000E-03 0. -1.
    9900012    2    1    2    0    0 -0.78629834727E+00 -0.18262884480E+00  0.86112714006E+00  0.90007678714E+02  0.89999939273E+02 0.  0.
         12    1    1    2    0    0  0.78629834727E+00  0.18262884480E+00 -0.86112714006E+00  0.11803212856E+01  0.00000000000E+00 0. -1.
         11    1    3    3    0    0 -0.10021919654E+02  0.28602274559E+02 -0.15164206128E+02  0.33889262773E+02  0.51100000000E-03 0. -1.
        -11    1    3    3    0    0 -0.20546194670E+01  0.11624658885E+02  0.28938693703E+01  0.12154366933E+02  0.51100000000E-03 0.  1.
        -12    1    3    3    0    0  0.11290240774E+02 -0.40409562289E+02  0.13131463898E+02  0.43964049009E+02  0.00000000000E+00 0.  1.
</event>
<event>
 7    1  0.2284751E-015  0.9000769E+02  0.7816164E-02  0.1186339E+00
        -11   -1    0    0    0    0  0.00000000000E+00  0.00000000000E+00  0.45593999997E+02  0.45594000000E+02  0.51100000000E-03 0.  1.
         11   -1    0    0    0    0 -0.00000000000E+00 -0.00000000000E+00 -0.45593999997E+02  0.45594000000E+02  0.51100000000E-03 0. -1.
    9900012    2    1    2    0    0  0.88234980481E+00  0.69460817140E+00 -0.36345713012E+00  0.90007693779E+02  0.89999954537E+02 0.  0.
         12    1    1    2    0    0 -0.88234980481E+00 -0.69460817140E+00  0.36345713012E+00  0.11803062210E+01  0.00000000000E+00 0. -1.
         11    1    3    3    0    0  0.26246221696E+00  0.43317321928E+02 -0.10508183856E+02  0.44574445523E+02  0.51100000000E-03 0. -1.
        -11    1    3    3    0    0 -0.45402999057E+01 -0.99572237837E+01  0.37564024862E+00  0.10949965049E+02  0.51100000000E-03 0.  1.
        -12    1    3    3    0    0  0.51601874935E+01 -0.32665489973E+02  0.97690864774E+01  0.34483283207E+02  0.00000000000E+00 0.  1.
</event>
<event>
 7    1  0.2284751E-015  0.9000769E+02  0.7816164E-02  0.1186339E+00
        -11   -1    0    0    0    0  0.00000000000E+00  0.00000000000E+00  0.45593999997E+02  0.45594000000E+02  0.51100000000E-03 0.  1.
         11   -1    0    0    0    0 -0.00000000000E+00 -0.00000000000E+00 -0.45593999997E+02  0.45594000000E+02  0.51100000000E-03 0. -1.
    9900012    2    1    2    0    0  0.10406660056E+01 -0.50528824214E+00  0.23416550657E+00  0.90007688419E+02  0.89999949106E+02 0.  0.
         12    1    1    2    0    0 -0.10406660056E+01  0.50528824214E+00 -0.23416550657E+00  0.11803115806E+01  0.00000000000E+00 0. -1.
         11    1    3    3    0    0 -0.15012322894E+01 -0.95084493804E+01 -0.90775204655E+00  0.96689359314E+01  0.51100000000E-03 0. -1.
        -11    1    3    3    0    0 -0.82705435073E+01 -0.21888643890E+02  0.29067205706E+02  0.37315105106E+02  0.51100000000E-03 0.  1.
         12    1    3    3    0    0  0.10812441802E+02  0.30891805028E+02 -0.27925288153E+02  0.43023647382E+02  0.00000000000E+00 0. -1.
</event>
<event>
 7    1  0.2284751E-015  0.9000776E+02  0.7816164E-02  0.1186339E+00
        -11   -1    0    0    0    0  0.00000000000E+00  0.00000000000E+00  0.45593999997E+02  0.45594000000E+02  0.51100000000E-03 0. -1.
         11   -1    0    0    0    0 -0.00000000000E+00 -0.00000000000E+00 -0.45593999997E+02  0.45594000000E+02  0.51100000000E-03 0.  1.
    9900012    2    1    2    0    0 -0.10579889126E+01 -0.25709015400E-01  0.52245152828E+00  0.90007763968E+02  0.90000025652E+02 0.  0.
         12    1    1    2    0    0  0.10579889126E+01  0.25709015400E-01 -0.52245152828E+00  0.11802360323E+01  0.00000000000E+00 0. -1.
         11    1    3    3    0    0 -0.58452220891E+01 -0.49760169143E+01  0.79327444672E+01  0.11038831489E+02  0.51100000000E-03 0. -1.
        -11    1    3    3    0    0  0.20090430940E+02 -0.28888631735E+02  0.11854846833E+02  0.37131063176E+02  0.51100000000E-03 0.  1.
         12    1    3    3    0    0 -0.15303197763E+02  0.33838939634E+02 -0.19265139772E+02  0.41837869303E+02  0.00000000000E+00 0. -1.
</event>
<event>
 7    1  0.2284751E-015  0.9000772E+02  0.7816164E-02  0.1186339E+00
        -11   -1    0    0    0    0  0.00000000000E+00  0.00000000000E+00  0.45593999997E+02  0.45594000000E+02  0.51100000000E-03 0. -1.
         11   -1    0    0    0    0 -0.00000000000E+00 -0.00000000000E+00 -0.45593999997E+02  0.45594000000E+02  0.51100000000E-03 0.  1.
    9900012    2    1    2    0    0  0.67348309041E+00  0.60633899647E+00  0.75619160015E+00  0.90007723682E+02  0.89999984834E+02 0.  0.
         12    1    1    2    0    0 -0.67348309041E+00 -0.60633899647E+00 -0.75619160015E+00  0.11802763184E+01  0.00000000000E+00 0. -1.
         11    1    3    3    0    0 -0.71896820050E+01 -0.86200168196E+01  0.17565821251E+01  0.11361417091E+02  0.51100000000E-03 0. -1.
        -11    1    3    3    0    0 -0.14287915676E+02  0.89072274798E+01 -0.34554785476E+02  0.38438475975E+02  0.51100000000E-03 0.  1.
         12    1    3    3    0    0  0.22151080771E+02  0.31912833628E+00  0.33554394951E+02  0.40207830615E+02  0.00000000000E+00 0. -1.
</event>
<event>
 7    1  0.2284751E-015  0.9000774E+02  0.7816164E-02  0.1186339E+00
        -11   -1    0    0    0    0  0.00000000000E+00  0.00000000000E+00  0.45593999997E+02  0.45594000000E+02  0.51100000000E-03 0.  1.
         11   -1    0    0    0    0 -0.00000000000E+00 -0.00000000000E+00 -0.45593999997E+02  0.45594000000E+02  0.51100000000E-03 0. -1.
    9900012    2    1    2    0    0  0.13755160489E+00  0.70527643195E+00  0.93631380755E+00  0.90007737811E+02  0.89999999150E+02 0.  0.
         12    1    1    2    0    0 -0.13755160489E+00 -0.70527643195E+00 -0.93631380755E+00  0.11802621894E+01  0.00000000000E+00 0. -1.
         11    1    3    3    0    0  0.66183361645E+01  0.35211094095E+01 -0.61370196551E+01  0.96883226396E+01  0.51100000000E-03 0. -1.
        -11    1    3    3    0    0 -0.31722072242E+02  0.13964751484E+01  0.31654382183E+02  0.44835699190E+02  0.51100000000E-03 0.  1.
         12    1    3    3    0    0  0.25241287683E+02 -0.42123081260E+01 -0.24581048721E+02  0.35483715981E+02  0.00000000000E+00 0. -1.
</event>
<event>
 7    1  0.2284751E-015  0.9000776E+02  0.7816164E-02  0.1186339E+00
        -11   -1    0    0    0    0  0.00000000000E+00  0.00000000000E+00  0.45593999997E+02  0.45594000000E+02  0.51100000000E-03 0. -1.
         11   -1    0    0    0    0 -0.00000000000E+00 -0.00000000000E+00 -0.45593999997E+02  0.45594000000E+02  0.51100000000E-03 0.  1.
    9900012    2    1    2    0    0 -0.61200849937E-01 -0.57555562685E+00 -0.10285722189E+01  0.90007758231E+02  0.90000019840E+02 0.  0.
         12    1    1    2    0    0  0.61200849937E-01  0.57555562685E+00  0.10285722189E+01  0.11802417689E+01  0.00000000000E+00 0. -1.
         11    1    3    3    0    0  0.31162306665E+02  0.60089445975E+01  0.15373764796E+02  0.35263996032E+02  0.51100000000E-03 0. -1.
        -11    1    3    3    0    0  0.20840436145E+01 -0.14033549472E+02  0.43008988778E+01  0.14825028836E+02  0.51100000000E-03 0.  1.
        -12    1    3    3    0    0 -0.33307551129E+02  0.74490492475E+01 -0.20703235893E+02  0.39918733364E+02  0.00000000000E+00 0.  1.
</event>
<event>
 7    1  0.2284751E-015  0.9000773E+02  0.7816164E-02  0.1186339E+00
        -11   -1    0    0    0    0  0.00000000000E+00  0.00000000000E+00  0.45593999997E+02  0.45594000000E+02  0.51100000000E-03 0.  1.
         11   -1    0    0    0    0 -0.00000000000E+00 -0.00000000000E+00 -0.45593999997E+02  0.45594000000E+02  0.51100000000E-03 0. -1.
    9900012    2    1    2    0    0 -0.85242695735E+00 -0.73391434214E+00  0.35745215234E+00  0.90007731378E+02  0.89999992632E+02 0.  0.
         12    1    1    2    0    0  0.85242695735E+00  0.73391434214E+00 -0.35745215234E+00  0.11802686222E+01  0.00000000000E+00 0. -1.
         11    1    3    3    0    0  0.97384635988E+01 -0.44055100826E+01 -0.42164383857E+00  0.10696914328E+02  0.51100000000E-03 0. -1.
        -11    1    3    3    0    0  0.16149049515E+02  0.22934262413E+02  0.25661298471E+02  0.38016765146E+02  0.51100000000E-03 0.  1.
         12    1    3    3    0    0 -0.26739940071E+02 -0.19262666673E+02 -0.24882202481E+02  0.41294051904E+02  0.00000000000E+00 0. -1.
</event>
<event>
 7    1  0.2444667E-015  0.9000784E+02  0.7816164E-02  0.1186339E+00
        -11   -1    0    0    0    0  0.00000000000E+00  0.00000000000E+00  0.45593999997E+02  0.45594000000E+02  0.51100000000E-03 0.  1.
         11   -1    0    0    0    0 -0.00000000000E+00 -0.00000000000E+00 -0.45593999997E+02  0.45594000000E+02  0.51100000000E-03 0. -1.
    9900012    2    1    2    0    0  0.58254486813E+00  0.91761396026E+00 -0.45979274802E+00  0.90007837607E+02  0.90000100263E+02 0.  0.
         12    1    1    2    0    0 -0.58254486813E+00 -0.91761396026E+00  0.45979274802E+00  0.11801623933E+01  0.00000000000E+00 0. -1.
         11    1    3    3    0    0  0.23331579880E+02 -0.25300835382E+02 -0.11398117739E+02  0.36254820079E+02  0.51100000000E-03 0. -1.
        -11    1    3    3    0    0  0.77529428723E+01 -0.18350327587E+01 -0.49396616242E+01  0.93742053333E+01  0.51100000000E-03 0.  1.
        -12    1    3    3    0    0 -0.30501977884E+02  0.28053482101E+02  0.15877986615E+02  0.44378812194E+02  0.00000000000E+00 0.  1.
</event>
<event>
 7    1  0.2284751E-015  0.9000772E+02  0.7816164E-02  0.1186339E+00
        -11   -1    0    0    0    0  0.00000000000E+00  0.00000000000E+00  0.45593999997E+02  0.45594000000E+02  0.51100000000E-03 0.  1.
         11   -1    0    0    0    0 -0.00000000000E+00 -0.00000000000E+00 -0.45593999997E+02  0.45594000000E+02  0.51100000000E-03 0. -1.
    9900012    2    1    2    0    0  0.50710906793E+00  0.66720277652E+00  0.83110536976E+00  0.90007722369E+02  0.89999983504E+02 0.  0.
         12    1    1    2    0    0 -0.50710906793E+00 -0.66720277652E+00 -0.83110536976E+00  0.11802776315E+01  0.00000000000E+00 0. -1.
         11    1    3    3    0    0 -0.26827052568E+02  0.20134443802E+02 -0.32340990325E+00  0.33543869349E+02  0.51100000000E-03 0. -1.
        -11    1    3    3    0    0 -0.64017759871E+01  0.94246974269E+01 -0.31996624614E+01  0.11834082031E+02  0.51100000000E-03 0.  1.
        -12    1    3    3    0    0  0.33735937623E+02 -0.28891938452E+02  0.43541777344E+01  0.44629770989E+02  0.00000000000E+00 0.  1.
</event>
<event>
 7    1  0.2284751E-015  0.9000783E+02  0.7816164E-02  0.1186339E+00
        -11   -1    0    0    0    0  0.00000000000E+00  0.00000000000E+00  0.45593999997E+02  0.45594000000E+02  0.51100000000E-03 0.  1.
         11   -1    0    0    0    0 -0.00000000000E+00 -0.00000000000E+00 -0.45593999997E+02  0.45594000000E+02  0.51100000000E-03 0. -1.
    9900012    2    1    2    0    0  0.88861366405E+00  0.50466166460E+00  0.59032464890E+00  0.90007830169E+02  0.90000092727E+02 0.  0.
         12    1    1    2    0    0 -0.88861366405E+00 -0.50466166460E+00 -0.59032464890E+00  0.11801698313E+01  0.00000000000E+00 0. -1.
         11    1    3    3    0    0  0.68810991916E+01 -0.28739872611E+02 -0.15979999840E+01  0.29595327469E+02  0.51100000000E-03 0. -1.
        -11    1    3    3    0    0  0.10717177352E+02 -0.33504520763E+01 -0.15976096767E+02  0.19527393264E+02  0.51100000000E-03 0.  1.
        -12    1    3    3    0    0 -0.16709662879E+02  0.32594986352E+02  0.18164421400E+02  0.40885109436E+02  0.00000000000E+00 0.  1.
</event>
<event>
 7    1  0.2284751E-015  0.9000789E+02  0.7816164E-02  0.1186339E+00
        -11   -1    0    0    0    0  0.00000000000E+00  0.00000000000E+00  0.45593999997E+02  0.45594000000E+02  0.51100000000E-03 0. -1.
         11   -1    0    0    0    0 -0.00000000000E+00 -0.00000000000E+00 -0.45593999997E+02  0.45594000000E+02  0.51100000000E-03 0.  1.
    9900012    2    1    2    0    0  0.90276054730E+00  0.74355352295E+00 -0.15749542186E+00  0.90007892693E+02  0.90000156077E+02 0.  0.
         12    1    1    2    0    0 -0.90276054730E+00 -0.74355352295E+00  0.15749542186E+00  0.11801073066E+01  0.00000000000E+00 0. -1.
         11    1    3    3    0    0  0.61775712932E+01  0.72275263402E+01  0.54923064267E+01  0.10980207385E+02  0.51100000000E-03 0. -1.
        -11    1    3    3    0    0 -0.36706424160E+02  0.12561591556E+02  0.83767666678E+01  0.39690368820E+02  0.51100000000E-03 0.  1.
         12    1    3    3    0    0  0.31431613414E+02 -0.19045564373E+02 -0.14026568516E+02  0.39337316488E+02  0.00000000000E+00 0. -1.
</event>
<event>
 7    1  0.2284751E-015  0.9000783E+02  0.7816164E-02  0.1186339E+00
        -11   -1    0    0    0    0  0.00000000000E+00  0.00000000000E+00  0.45593999997E+02  0.45594000000E+02  0.51100000000E-03 0.  1.
         11   -1    0    0    0    0 -0.00000000000E+00 -0.00000000000E+00 -0.45593999997E+02  0.45594000000E+02  0.51100000000E-03 0. -1.
    9900012    2    1    2    0    0 -0.96637392368E+00 -0.54107065515E+00  0.40763296534E+00  0.90007830246E+02  0.90000092805E+02 0.  0.
         12    1    1    2    0    0  0.96637392368E+00  0.54107065515E+00 -0.40763296534E+00  0.11801697542E+01  0.00000000000E+00 0. -1.
         11    1    3    3    0    0 -0.44618751566E+01  0.39067453120E+02 -0.65866436826E+01  0.39869262578E+02  0.51100000000E-03 0. -1.
        -11    1    3    3    0    0 -0.39308626195E+01 -0.45695525963E+01 -0.90647652564E+01  0.10885883578E+02  0.51100000000E-03 0.  1.
        -12    1    3    3    0    0  0.74263638525E+01 -0.35038971179E+02  0.16059041904E+02  0.39252684090E+02  0.00000000000E+00 0.  1.
</event>
<event>
 7    1  0.2284751E-015  0.9000783E+02  0.7816164E-02  0.1186339E+00
        -11   -1    0    0    0    0  0.00000000000E+00  0.00000000000E+00  0.45593999997E+02  0.45594000000E+02  0.51100000000E-03 0. -1.
         11   -1    0    0    0    0 -0.00000000000E+00 -0.00000000000E+00 -0.45593999997E+02  0.45594000000E+02  0.51100000000E-03 0.  1.
    9900012    2    1    2    0    0 -0.57371238817E-01 -0.79999932374E+00 -0.86573969303E+00  0.90007832388E+02  0.90000094975E+02 0.  0.
         12    1    1    2    0    0  0.57371238817E-01  0.79999932374E+00  0.86573969303E+00  0.11801676123E+01  0.00000000000E+00 0. -1.
         11    1    3    3    0    0 -0.16172953524E+02 -0.35057858204E+02  0.88502314902E+01  0.39609903373E+02  0.51100000000E-03 0. -1.
        -11    1    3    3    0    0  0.17716851336E+01 -0.23661034379E+01 -0.10651558032E+02  0.11054094375E+02  0.51100000000E-03 0.  1.
        -12    1    3    3    0    0  0.14343897152E+02  0.36623962318E+02  0.93558684885E+00  0.39343834639E+02  0.00000000000E+00 0.  1.
</event>
<event>
 7    1  0.2284751E-015  0.9000780E+02  0.7816164E-02  0.1186339E+00
        -11   -1    0    0    0    0  0.00000000000E+00  0.00000000000E+00  0.45593999997E+02  0.45594000000E+02  0.51100000000E-03 0.  1.
         11   -1    0    0    0    0 -0.00000000000E+00 -0.00000000000E+00 -0.45593999997E+02  0.45594000000E+02  0.51100000000E-03 0. -1.
    9900012    2    1    2    0    0  0.90046480649E+00  0.71463911212E+00 -0.26704800999E+00  0.90007804860E+02  0.90000067084E+02 0.  0.
         12    1    1    2    0    0 -0.90046480649E+00 -0.71463911212E+00  0.26704800999E+00  0.11801951398E+01  0.00000000000E+00 0. -1.
         11    1    3    3    0    0  0.75809893169E+00 -0.87796082065E+01  0.60398793186E+01  0.10683462767E+02  0.51100000000E-03 0. -1.
        -11    1    3    3    0    0 -0.30354700895E+01  0.38288100543E+02  0.17136781292E+02  0.42057841066E+02  0.51100000000E-03 0.  1.
         12    1    3    3    0    0  0.31778359643E+01 -0.28793853224E+02 -0.23443708621E+02  0.37266501027E+02  0.00000000000E+00 0. -1.
</event>
<event>
 7    1  0.2284751E-015  0.9000804E+02  0.7816164E-02  0.1186338E+00
        -11   -1    0    0    0    0  0.00000000000E+00  0.00000000000E+00  0.45593999997E+02  0.45594000000E+02  0.51100000000E-03 0.  1.
         11   -1    0    0    0    0 -0.00000000000E+00 -0.00000000000E+00 -0.45593999997E+02  0.45594000000E+02  0.51100000000E-03 0. -1.
    9900012    2    1    2    0    0 -0.82052542905E+00 -0.51630036599E+00  0.67266998889E+00  0.90008036881E+02  0.90000302168E+02 0.  0.
         12    1    1    2    0    0  0.82052542905E+00  0.51630036599E+00 -0.67266998889E+00  0.11799631187E+01  0.00000000000E+00 0. -1.
         11    1    3    3    0    0  0.73428444913E-01 -0.43203996158E+02  0.85066431610E+01  0.44033551457E+02  0.51100000000E-03 0. -1.
        -11    1    3    3    0    0 -0.47895400492E+00  0.68948134072E+01  0.43453311287E+01  0.81639299200E+01  0.51100000000E-03 0.  1.
        -12    1    3    3    0    0 -0.41499986904E+00  0.35792882385E+02 -0.12179304301E+02  0.37810555505E+02  0.00000000000E+00 0.  1.
</event>
<event>
 7    1  0.2284751E-015  0.9000825E+02  0.7816164E-02  0.1186338E+00
        -11   -1    0    0    0    0  0.00000000000E+00  0.00000000000E+00  0.45593999997E+02  0.45594000000E+02  0.51100000000E-03 0.  1.
         11   -1    0    0    0    0 -0.00000000000E+00 -0.00000000000E+00 -0.45593999997E+02  0.45594000000E+02  0.51100000000E-03 0. -1.
    9900012    2    1    2    0    0 -0.77086680163E+00 -0.43500258444E+00  0.77996164660E+00  0.90008252974E+02  0.90000521112E+02 0.  0.
         12    1    1    2    0    0  0.77086680163E+00  0.43500258444E+00 -0.77996164660E+00  0.11797470256E+01  0.00000000000E+00 0. -1.
         11    1    3    3    0    0  0.13263928186E+02  0.10127820694E+02 -0.34689099307E+02  0.38494650978E+02  0.51100000000E-03 0. -1.
        -11    1    3    3    0    0 -0.96754299446E+01 -0.19053829957E+00 -0.40006082566E+01  0.10471633881E+02  0.51100000000E-03 0.  1.
        -12    1    3    3    0    0 -0.43593650432E+01 -0.10372284979E+02  0.39469669210E+02  0.41041968115E+02  0.00000000000E+00 0.  1.
</event>
<event>
 7    1  0.2284751E-015  0.9000777E+02  0.7816164E-02  0.1186339E+00
        -11   -1    0    0    0    0  0.00000000000E+00  0.00000000000E+00  0.45593999997E+02  0.45594000000E+02  0.51100000000E-03 0. -1.
         11   -1    0    0    0    0 -0.00000000000E+00 -0.00000000000E+00 -0.45593999997E+02  0.45594000000E+02  0.51100000000E-03 0.  1.
    9900012    2    1    2    0    0 -0.11742113882E+01  0.11384423158E+00  0.34914428563E-01  0.90007766163E+02  0.90000027876E+02 0.  0.
         12    1    1    2    0    0  0.11742113882E+01 -0.11384423158E+00 -0.34914428563E-01  0.11802338373E+01  0.00000000000E+00 0. -1.
         11    1    3    3    0    0  0.74477936886E+01 -0.42435293377E+00 -0.60502003674E+01  0.96049274326E+01  0.51100000000E-03 0. -1.
        -11    1    3    3    0    0  0.23102395474E+02 -0.21357258000E+02 -0.16706217677E+02  0.35622336465E+02  0.51100000000E-03 0.  1.
         12    1    3    3    0    0 -0.31724400551E+02  0.21895455165E+02  0.22791332473E+02  0.44780502265E+02  0.00000000000E+00 0. -1.
</event>
<event>
 7    1  0.2284751E-015  0.9000772E+02  0.7816164E-02  0.1186339E+00
        -11   -1    0    0    0    0  0.00000000000E+00  0.00000000000E+00  0.45593999997E+02  0.45594000000E+02  0.51100000000E-03 0.  1.
         11   -1    0    0    0    0 -0.00000000000E+00 -0.00000000000E+00 -0.45593999997E+02  0.45594000000E+02  0.51100000000E-03 0. -1.
    9900012    2    1    2    0    0  0.11326955109E+01 -0.32820084494E+00 -0.48509756132E-01  0.90007716936E+02  0.89999977999E+02 0.  0.
         12    1    1    2    0    0 -0.11326955109E+01  0.32820084494E+00  0.48509756132E-01  0.11802830641E+01  0.00000000000E+00 0. -1.
         11    1    3    3    0    0 -0.26719895579E+02 -0.18610575982E+02 -0.14053839385E+01  0.32592659639E+02  0.51100000000E-03 0. -1.
        -11    1    3    3    0    0 -0.12664362739E+02  0.12639026174E+01 -0.35045741310E+01  0.13200968658E+02  0.51100000000E-03 0.  1.
        -12    1    3    3    0    0  0.40516953828E+02  0.17018472519E+02  0.48614483134E+01  0.44214088638E+02  0.00000000000E+00 0.  1.
</event>
<event>
 7    1  0.2861567E-015  0.9000770E+02  0.7816164E-02  0.1186339E+00
        -11   -1    0    0    0    0  0.00000000000E+00  0.00000000000E+00  0.45593999997E+02  0.45594000000E+02  0.51100000000E-03 0.  1.
         11   -1    0    0    0    0 -0.00000000000E+00 -0.00000000000E+00 -0.45593999997E+02  0.45594000000E+02  0.51100000000E-03 0. -1.
    9900012    2    1    2    0    0 -0.15378435753E-01  0.70765843543E+00 -0.94450855970E+00  0.90007697760E+02  0.89999958571E+02 0.  0.
         12    1    1    2    0    0  0.15378435753E-01 -0.70765843543E+00  0.94450855970E+00  0.11803022396E+01  0.00000000000E+00 0. -1.
         11    1    3    3    0    0  0.34011641683E+02  0.63528738534E+01  0.13422337516E+02  0.37112126332E+02  0.51100000000E-03 0. -1.
        -11    1    3    3    0    0  0.39662550838E+01 -0.55214954386E+01  0.66216792778E+01  0.94902438319E+01  0.51100000000E-03 0.  1.
        -12    1    3    3    0    0 -0.37993275203E+02 -0.12371997930E+00 -0.20988525354E+02  0.43405327597E+02  0.00000000000E+00 0.  1.
</event>
<event>
 7    1  0.2284751E-015  0.9000776E+02  0.7816164E-02  0.1186339E+00
        -11   -1    0    0    0    0  0.00000000000E+00  0.00000000000E+00  0.45593999997E+02  0.45594000000E+02  0.51100000000E-03 0.  1.
         11   -1    0    0    0    0 -0.00000000000E+00 -0.00000000000E+00 -0.45593999997E+02  0.45594000000E+02  0.51100000000E-03 0. -1.
    9900012    2    1    2    0    0 -0.54531702253E+00  0.60793887484E+00  0.85205632634E+00  0.90007762603E+02  0.90000024269E+02 0.  0.
         12    1    1    2    0    0  0.54531702253E+00 -0.60793887484E+00 -0.85205632634E+00  0.11802373972E+01  0.00000000000E+00 0. -1.
         11    1    3    3    0    0 -0.10868872841E+02  0.14655887756E+01 -0.31920954619E+02  0.33752447191E+02  0.51100000000E-03 0. -1.
        -11    1    3    3    0    0  0.14468705409E+02 -0.64318877456E+00 -0.71258805329E+01  0.16141105961E+02  0.51100000000E-03 0.  1.
        -12    1    3    3    0    0 -0.41451495907E+01 -0.21446112623E+00  0.39898891479E+02  0.40114209452E+02  0.00000000000E+00 0.  1.
</event>
<event>
 7    1  0.2284751E-015  0.9000769E+02  0.7816164E-02  0.1186339E+00
        -11   -1    0    0    0    0  0.00000000000E+00  0.00000000000E+00  0.45593999997E+02  0.45594000000E+02  0.51100000000E-03 0.  1.
         11   -1    0    0    0    0 -0.00000000000E+00 -0.00000000000E+00 -0.45593999997E+02  0.45594000000E+02  0.51100000000E-03 0. -1.
    9900012    2    1    2    0    0  0.86453320989E+00  0.87961805040E-01 -0.79873315043E+00  0.90007690890E+02  0.89999951609E+02 0.  0.
         12    1    1    2    0    0 -0.86453320989E+00 -0.87961805040E-01  0.79873315043E+00  0.11803091103E+01  0.00000000000E+00 0. -1.
         11    1    3    3    0    0  0.46410672113E+01 -0.31147504679E+02 -0.21256691358E+02  0.37994124287E+02  0.51100000000E-03 0. -1.
        -11    1    3    3    0    0  0.99765564866E+01 -0.18712307495E+00 -0.30458808990E+01  0.10432836867E+02  0.51100000000E-03 0.  1.
        -12    1    3    3    0    0 -0.13753090488E+02  0.31422589559E+02  0.23503839107E+02  0.41580729736E+02  0.00000000000E+00 0.  1.
</event>
<event>
 7    1  0.2284751E-015  0.9000771E+02  0.7816164E-02  0.1186339E+00
        -11   -1    0    0    0    0  0.00000000000E+00  0.00000000000E+00  0.45593999997E+02  0.45594000000E+02  0.51100000000E-03 0.  1.
         11   -1    0    0    0    0 -0.00000000000E+00 -0.00000000000E+00 -0.45593999997E+02  0.45594000000E+02  0.51100000000E-03 0. -1.
    9900012    2    1    2    0    0  0.80744472680E+00 -0.66982163362E+00  0.54079621295E+00  0.90007708277E+02  0.89999969226E+02 0.  0.
         12    1    1    2    0    0 -0.80744472680E+00  0.66982163362E+00 -0.54079621295E+00  0.11802917231E+01  0.00000000000E+00 0. -1.
         11    1    3    3    0    0  0.38153259567E+01 -0.53690991495E+01 -0.78245442506E+01  0.10227777414E+02  0.51100000000E-03 0. -1.
        -11    1    3    3    0    0  0.28096466959E+02 -0.19563891721E+02 -0.10830430494E+02  0.35908989680E+02  0.51100000000E-03 0.  1.
         12    1    3    3    0    0 -0.31104348189E+02  0.24263169237E+02  0.19195770957E+02  0.43870941184E+02  0.00000000000E+00 0. -1.
</event>
<event>
 7    1  0.2284751E-015  0.9000719E+02  0.7816164E-02  0.1186340E+00
        -11   -1    0    0    0    0  0.00000000000E+00  0.00000000000E+00  0.45593999997E+02  0.45594000000E+02  0.51100000000E-03 0.  1.
         11   -1    0    0    0    0 -0.00000000000E+00 -0.00000000000E+00 -0.45593999997E+02  0.45594000000E+02  0.51100000000E-03 0. -1.
    9900012    2    1    2    0    0  0.18597792645E+00  0.82824021260E-01  0.11631226333E+01  0.90007194399E+02  0.89999448563E+02 0.  0.
         12    1    1    2    0    0 -0.18597792645E+00 -0.82824021260E-01 -0.11631226333E+01  0.11808056011E+01  0.00000000000E+00 0. -1.
         11    1    3    3    0    0 -0.17190129229E+01 -0.77309378850E+01  0.69788574684E+01  0.10555892091E+02  0.51100000000E-03 0. -1.
        -11    1    3    3    0    0 -0.23008420032E+02 -0.27317106043E+02  0.15904561985E+01  0.35751101047E+02  0.51100000000E-03 0.  1.
         12    1    3    3    0    0  0.24913410881E+02  0.35130867949E+02 -0.74061910336E+01  0.43700201261E+02  0.00000000000E+00 0. -1.
</event>
<event>
 7    1  0.2284751E-015  0.9000801E+02  0.7816164E-02  0.1186339E+00
        -11   -1    0    0    0    0  0.00000000000E+00  0.00000000000E+00  0.45593999997E+02  0.45594000000E+02  0.51100000000E-03 0. -1.
         11   -1    0    0    0    0 -0.00000000000E+00 -0.00000000000E+00 -0.45593999997E+02  0.45594000000E+02  0.51100000000E-03 0.  1.
    9900012    2    1    2    0    0  0.78311174883E-01  0.10530657007E+01 -0.52659891536E+00  0.90008005751E+02  0.90000270627E+02 0.  0.
         12    1    1    2    0    0 -0.78311174883E-01 -0.10530657007E+01  0.52659891536E+00  0.11799942490E+01  0.00000000000E+00 0. -1.
         11    1    3    3    0    0  0.52577969627E+01  0.22040383650E+01 -0.66543584378E+01  0.87625738510E+01  0.51100000000E-03 0. -1.
        -11    1    3    3    0    0  0.55738691909E+01 -0.54269045026E+01 -0.36373892687E+02  0.37196496874E+02  0.51100000000E-03 0.  1.
         12    1    3    3    0    0 -0.10753354979E+02  0.42759318383E+01  0.42501652209E+02  0.44048935026E+02  0.00000000000E+00 0. -1.
</event>
<event>
 7    1  0.2284751E-015  0.9000770E+02  0.7816164E-02  0.1186339E+00
        -11   -1    0    0    0    0  0.00000000000E+00  0.00000000000E+00  0.45593999997E+02  0.45594000000E+02  0.51100000000E-03 0. -1.
         11   -1    0    0    0    0 -0.00000000000E+00 -0.00000000000E+00 -0.45593999997E+02  0.45594000000E+02  0.51100000000E-03 0.  1.
    9900012    2    1    2    0    0 -0.45893978143E-01  0.75057394099E+00 -0.90974863286E+00  0.90007699160E+02  0.89999959989E+02 0.  0.
         12    1    1    2    0    0  0.45893978143E-01 -0.75057394099E+00  0.90974863286E+00  0.11803008401E+01  0.00000000000E+00 0. -1.
         11    1    3    3    0    0  0.21383327834E+02 -0.30372341441E+02 -0.81290833266E+01  0.38023779795E+02  0.51100000000E-03 0. -1.
        -11    1    3    3    0    0 -0.30060860162E+01 -0.78001871896E+01  0.20886556327E+01  0.86163771936E+01  0.51100000000E-03 0.  1.
        -12    1    3    3    0    0 -0.18423135796E+02  0.38923102572E+02  0.51306790610E+01  0.43367542172E+02  0.00000000000E+00 0.  1.
</event>
<event>
 7    1  0.2284751E-015  0.9000781E+02  0.7816164E-02  0.1186339E+00
        -11   -1    0    0    0    0  0.00000000000E+00  0.00000000000E+00  0.45593999997E+02  0.45594000000E+02  0.51100000000E-03 0. -1.
         11   -1    0    0    0    0 -0.00000000000E+00 -0.00000000000E+00 -0.45593999997E+02  0.45594000000E+02  0.51100000000E-03 0.  1.
    9900012    2    1    2    0    0 -0.55266015975E+00  0.80811048662E+00 -0.65907382876E+00  0.90007807591E+02  0.90000069851E+02 0.  0.
         12    1    1    2    0    0  0.55266015975E+00 -0.80811048662E+00  0.65907382876E+00  0.11801924091E+01  0.00000000000E+00 0. -1.
         11    1    3    3    0    0  0.20439561127E+01 -0.26331334896E+02 -0.26145369963E+02  0.37163117802E+02  0.51100000000E-03 0. -1.
        -11    1    3    3    0    0  0.57216318373E+00 -0.92325915885E+01  0.20956996812E+01  0.94847285446E+01  0.51100000000E-03 0.  1.
        -12    1    3    3    0    0 -0.31687794562E+01  0.36372036971E+02  0.23390596453E+02  0.43359961244E+02  0.00000000000E+00 0.  1.
</event>
<event>
 7    1  0.2284751E-015  0.9000732E+02  0.7816164E-02  0.1186340E+00
        -11   -1    0    0    0    0  0.00000000000E+00  0.00000000000E+00  0.45593999997E+02  0.45594000000E+02  0.51100000000E-03 0.  1.
         11   -1    0    0    0    0 -0.00000000000E+00 -0.00000000000E+00 -0.45593999997E+02  0.45594000000E+02  0.51100000000E-03 0. -1.
    9900012    2    1    2    0    0 -0.74058934964E-01 -0.36762265129E+00  0.11195405987E+01  0.90007321258E+02  0.89999577098E+02 0.  0.
         12    1    1    2    0    0  0.74058934964E-01  0.36762265129E+00 -0.11195405987E+01  0.11806787420E+01  0.00000000000E+00 0. -1.
         11    1    3    3    0    0 -0.95508944264E+01  0.80297846683E+00 -0.26920012230E+01  0.99554623000E+01  0.51100000000E-03 0. -1.
        -11    1    3    3    0    0 -0.21979854882E+02  0.71565004738E+01 -0.26789157798E+02  0.35383449457E+02  0.51100000000E-03 0.  1.
         12    1    3    3    0    0  0.31456690374E+02 -0.83271015919E+01  0.30600699620E+02  0.44668409501E+02  0.00000000000E+00 0. -1.
</event>
<event>
 7    1  0.2284751E-015  0.9000777E+02  0.7816164E-02  0.1186339E+00
        -11   -1    0    0    0    0  0.00000000000E+00  0.00000000000E+00  0.45593999997E+02  0.45594000000E+02  0.51100000000E-03 0.  1.
         11   -1    0    0    0    0 -0.00000000000E+00 -0.00000000000E+00 -0.45593999997E+02  0.45594000000E+02  0.51100000000E-03 0. -1.
    9900012    2    1    2    0    0 -0.96299457278E+00  0.55872628931E+00 -0.39166653548E+00  0.90007772781E+02  0.90000034582E+02 0.  0.
         12    1    1    2    0    0  0.96299457278E+00 -0.55872628931E+00  0.39166653548E+00  0.11802272191E+01  0.00000000000E+00 0. -1.
         11    1    3    3    0    0 -0.39254687249E+02 -0.22774513587E+01 -0.53111773222E+01  0.39677775397E+02  0.51100000000E-03 0. -1.
        -11    1    3    3    0    0 -0.36384361986E+01 -0.26529924834E+01 -0.51690525024E+01  0.68553403360E+01  0.51100000000E-03 0.  1.
        -12    1    3    3    0    0  0.41930128874E+02  0.54891701314E+01  0.10088563289E+02  0.43474657048E+02  0.00000000000E+00 0.  1.
</event>
<event>
 7    1  0.2284751E-015  0.9000777E+02  0.7816164E-02  0.1186339E+00
        -11   -1    0    0    0    0  0.00000000000E+00  0.00000000000E+00  0.45593999997E+02  0.45594000000E+02  0.51100000000E-03 0.  1.
         11   -1    0    0    0    0 -0.00000000000E+00 -0.00000000000E+00 -0.45593999997E+02  0.45594000000E+02  0.51100000000E-03 0. -1.
    9900012    2    1    2    0    0  0.73984447756E+00 -0.32478122430E+00  0.86029148903E+00  0.90007765218E+02  0.90000026919E+02 0.  0.
         12    1    1    2    0    0 -0.73984447756E+00  0.32478122430E+00 -0.86029148903E+00  0.11802347820E+01  0.00000000000E+00 0. -1.
         11    1    3    3    0    0  0.50649602529E+01  0.91256381049E+01  0.36832316565E+01  0.11067849334E+02  0.51100000000E-03 0. -1.
        -11    1    3    3    0    0  0.10015779317E+02  0.65111063958E+01  0.34156794474E+02  0.36185590376E+02  0.51100000000E-03 0.  1.
         12    1    3    3    0    0 -0.14340895092E+02 -0.15961525725E+02 -0.36979734642E+02  0.42754325508E+02  0.00000000000E+00 0. -1.
</event>
<event>
 7    1  0.2284751E-015  0.9000771E+02  0.7816164E-02  0.1186339E+00
        -11   -1    0    0    0    0  0.00000000000E+00  0.00000000000E+00  0.45593999997E+02  0.45594000000E+02  0.51100000000E-03 0.  1.
         11   -1    0    0    0    0 -0.00000000000E+00 -0.00000000000E+00 -0.45593999997E+02  0.45594000000E+02  0.51100000000E-03 0. -1.
    9900012    2    1    2    0    0 -0.40789089715E+00 -0.48455259859E+00  0.99595492078E+00  0.90007706643E+02  0.89999967571E+02 0.  0.
         12    1    1    2    0    0  0.40789089715E+00  0.48455259859E+00 -0.99595492078E+00  0.11802933572E+01  0.00000000000E+00 0. -1.
         11    1    3    3    0    0  0.37981512543E+02 -0.29128564661E+01 -0.16358924987E+02  0.41457139974E+02  0.51100000000E-03 0. -1.
        -11    1    3    3    0    0 -0.15052903765E+01 -0.57757942871E+01  0.73397411271E+01  0.94603117728E+01  0.51100000000E-03 0.  1.
        -12    1    3    3    0    0 -0.36884113064E+02  0.82040981546E+01  0.10015138780E+02  0.39090254896E+02  0.00000000000E+00 0.  1.
</event>
<event>
 7    1  0.2284751E-015  0.9000769E+02  0.7816164E-02  0.1186339E+00
        -11   -1    0    0    0    0  0.00000000000E+00  0.00000000000E+00  0.45593999997E+02  0.45594000000E+02  0.51100000000E-03 0.  1.
         11   -1    0    0    0    0 -0.00000000000E+00 -0.00000000000E+00 -0.45593999997E+02  0.45594000000E+02  0.51100000000E-03 0. -1.
    9900012    2    1    2    0    0 -0.80218064650E+00  0.84213454291E+00 -0.20110543017E+00  0.90007691662E+02  0.89999952392E+02 0.  0.
         12    1    1    2    0    0  0.80218064650E+00 -0.84213454291E+00  0.20110543017E+00  0.11803083377E+01  0.00000000000E+00 0. -1.
         11    1    3    3    0    0 -0.40170230566E+02  0.84713251619E+01  0.11592568029E+02  0.42659095250E+02  0.51100000000E-03 0. -1.
        -11    1    3    3    0    0  0.46006751533E+01 -0.64172479518E+01  0.43299011102E+01  0.90052943887E+01  0.51100000000E-03 0.  1.
        -12    1    3    3    0    0  0.34767374767E+02 -0.12119426672E+01 -0.16123574570E+02  0.38343302024E+02  0.00000000000E+00 0.  1.
</event>
<event>
 7    1  0.2284751E-015  0.9000768E+02  0.7816164E-02  0.1186339E+00
        -11   -1    0    0    0    0  0.00000000000E+00  0.00000000000E+00  0.45593999997E+02  0.45594000000E+02  0.51100000000E-03 0.  1.
         11   -1    0    0    0    0 -0.00000000000E+00 -0.00000000000E+00 -0.45593999997E+02  0.45594000000E+02  0.51100000000E-03 0. -1.
    9900012    2    1    2    0    0 -0.10566930637E+01  0.21088008621E+00  0.48174500789E+00  0.90007682715E+02  0.89999943326E+02 0.  0.
         12    1    1    2    0    0  0.10566930637E+01 -0.21088008621E+00 -0.48174500789E+00  0.11803172855E+01  0.00000000000E+00 0. -1.
         11    1    3    3    0    0 -0.54504963214E+01  0.33923596749E+01  0.80595846765E+01  0.10304024444E+02  0.51100000000E-03 0. -1.
        -11    1    3    3    0    0  0.20138707453E+02 -0.14827060572E+01  0.31569037443E+02  0.37474926024E+02  0.51100000000E-03 0.  1.
         12    1    3    3    0    0 -0.15744904196E+02 -0.16987735315E+01 -0.39146877111E+02  0.42228732247E+02  0.00000000000E+00 0. -1.
</event>
<event>
 7    1  0.2284751E-015  0.9000776E+02  0.7816164E-02  0.1186339E+00
        -11   -1    0    0    0    0  0.00000000000E+00  0.00000000000E+00  0.45593999997E+02  0.45594000000E+02  0.51100000000E-03 0. -1.
         11   -1    0    0    0    0 -0.00000000000E+00 -0.00000000000E+00 -0.45593999997E+02  0.45594000000E+02  0.51100000000E-03 0.  1.
    9900012    2    1    2    0    0 -0.92643264408E-01 -0.97475787853E+00 -0.65896453504E+00  0.90007758519E+02  0.90000020131E+02 0.  0.
         12    1    1    2    0    0  0.92643264408E-01  0.97475787853E+00  0.65896453504E+00  0.11802414815E+01  0.00000000000E+00 0. -1.
         11    1    3    3    0    0  0.18849062562E+02 -0.63316462301E+01  0.26910920438E+02  0.33460043970E+02  0.51100000000E-03 0. -1.
        -11    1    3    3    0    0  0.11799850428E+02 -0.81547765245E+01 -0.14831885514E+02  0.20633023977E+02  0.51100000000E-03 0.  1.
        -12    1    3    3    0    0 -0.30741556254E+02  0.13511664876E+02 -0.12737999459E+02  0.35914690571E+02  0.00000000000E+00 0.  1.
</event>
<event>
 7    1  0.2284751E-015  0.9000767E+02  0.7816164E-02  0.1186339E+00
        -11   -1    0    0    0    0  0.00000000000E+00  0.00000000000E+00  0.45593999997E+02  0.45594000000E+02  0.51100000000E-03 0.  1.
         11   -1    0    0    0    0 -0.00000000000E+00 -0.00000000000E+00 -0.45593999997E+02  0.45594000000E+02  0.51100000000E-03 0. -1.
    9900012    2    1    2    0    0 -0.23006846284E+00  0.10891935183E+01 -0.39232099896E+00  0.90007665393E+02  0.89999925776E+02 0.  0.
         12    1    1    2    0    0  0.23006846284E+00 -0.10891935183E+01  0.39232099896E+00  0.11803346068E+01  0.00000000000E+00 0. -1.
         11    1    3    3    0    0 -0.17175298348E+02  0.36820203773E+02 -0.92824004954E+01  0.41675907170E+02  0.51100000000E-03 0. -1.
        -11    1    3    3    0    0 -0.25026531535E+01 -0.41425752438E+01  0.10118347014E+02  0.11216289450E+02  0.51100000000E-03 0.  1.
        -12    1    3    3    0    0  0.19447883039E+02 -0.31588435011E+02 -0.12282675176E+01  0.37115468773E+02  0.00000000000E+00 0.  1.
</event>
<event>
 7    1  0.2284751E-015  0.9000765E+02  0.7816164E-02  0.1186339E+00
        -11   -1    0    0    0    0  0.00000000000E+00  0.00000000000E+00  0.45593999997E+02  0.45594000000E+02  0.51100000000E-03 0.  1.
         11   -1    0    0    0    0 -0.00000000000E+00 -0.00000000000E+00 -0.45593999997E+02  0.45594000000E+02  0.51100000000E-03 0. -1.
    9900012    2    1    2    0    0  0.72307498236E+00  0.93248562215E+00  0.29424743315E-01  0.90007647222E+02  0.89999907365E+02 0.  0.
         12    1    1    2    0    0 -0.72307498236E+00 -0.93248562215E+00 -0.29424743315E-01  0.11803527783E+01  0.00000000000E+00 0. -1.
         11    1    3    3    0    0  0.23677065509E+02 -0.33249115864E+02  0.12366931010E+02  0.42650300347E+02  0.51100000000E-03 0. -1.
        -11    1    3    3    0    0 -0.73504258830E+01  0.10619077863E+00 -0.56860887028E+01  0.92936344957E+01  0.51100000000E-03 0.  1.
        -12    1    3    3    0    0 -0.15603564644E+02  0.34075410707E+02 -0.66514175635E+01  0.38063712379E+02  0.00000000000E+00 0.  1.
</event>
<event>
 7    1  0.2284751E-015  0.9000777E+02  0.7816164E-02  0.1186339E+00
        -11   -1    0    0    0    0  0.00000000000E+00  0.00000000000E+00  0.45593999997E+02  0.45594000000E+02  0.51100000000E-03 0. -1.
         11   -1    0    0    0    0 -0.00000000000E+00 -0.00000000000E+00 -0.45593999997E+02  0.45594000000E+02  0.51100000000E-03 0.  1.
    9900012    2    1    2    0    0  0.16300893894E+00 -0.11312965408E+01  0.29418959701E+00  0.90007766423E+02  0.90000028140E+02 0.  0.
         12    1    1    2    0    0 -0.16300893894E+00  0.11312965408E+01 -0.29418959701E+00  0.11802335770E+01  0.00000000000E+00 0. -1.
         11    1    3    3    0    0  0.81261448560E+01  0.25713927163E+01  0.66019044344E+01  0.10781068275E+02  0.51100000000E-03 0. -1.
        -11    1    3    3    0    0  0.23278458259E+02  0.25710260894E+02 -0.10173414496E+02  0.36144190362E+02  0.51100000000E-03 0.  1.
         12    1    3    3    0    0 -0.31241594176E+02 -0.29412950151E+02  0.38656996588E+01  0.43082507786E+02  0.00000000000E+00 0. -1.
</event>
<event>
 7    1  0.2284751E-015  0.9000775E+02  0.7816164E-02  0.1186339E+00
        -11   -1    0    0    0    0  0.00000000000E+00  0.00000000000E+00  0.45593999997E+02  0.45594000000E+02  0.51100000000E-03 0.  1.
         11   -1    0    0    0    0 -0.00000000000E+00 -0.00000000000E+00 -0.45593999997E+02  0.45594000000E+02  0.51100000000E-03 0. -1.
    9900012    2    1    2    0    0 -0.78587014879E+00 -0.44336849413E+00  0.76080997015E+00  0.90007746077E+02  0.90000007525E+02 0.  0.
         12    1    1    2    0    0  0.78587014879E+00  0.44336849413E+00 -0.76080997015E+00  0.11802539231E+01  0.00000000000E+00 0. -1.
         11    1    3    3    0    0  0.49777214150E+01  0.79375094305E+01  0.18115696516E+01  0.95427224265E+01  0.51100000000E-03 0. -1.
        -11    1    3    3    0    0 -0.64709187034E+01  0.35742995216E+02 -0.46255332251E-01  0.36324050376E+02  0.51100000000E-03 0.  1.
         12    1    3    3    0    0  0.70732713952E+00 -0.44123873141E+02 -0.10045043492E+01  0.44140973275E+02  0.00000000000E+00 0. -1.
</event>
<event>
 7    1  0.2284751E-015  0.9000776E+02  0.7816164E-02  0.1186339E+00
        -11   -1    0    0    0    0  0.00000000000E+00  0.00000000000E+00  0.45593999997E+02  0.45594000000E+02  0.51100000000E-03 0.  1.
         11   -1    0    0    0    0 -0.00000000000E+00 -0.00000000000E+00 -0.45593999997E+02  0.45594000000E+02  0.51100000000E-03 0. -1.
    9900012    2    1    2    0    0  0.37959340222E+00 -0.45511690032E+00  0.10206548214E+01  0.90007763241E+02  0.90000024915E+02 0.  0.
         12    1    1    2    0    0 -0.37959340222E+00  0.45511690032E+00 -0.10206548214E+01  0.11802367595E+01  0.00000000000E+00 0. -1.
         11    1    3    3    0    0  0.39911586923E+01 -0.84269121989E+01 -0.67391455875E+01  0.11504706881E+02  0.51100000000E-03 0. -1.
        -11    1    3    3    0    0  0.18987879636E+02  0.36078851948E+02  0.11179944627E+02  0.42275457337E+02  0.51100000000E-03 0.  1.
         12    1    3    3    0    0 -0.22599444926E+02 -0.28107056649E+02 -0.34201442179E+01  0.36227599022E+02  0.00000000000E+00 0. -1.
</event>
<event>
 7    1  0.2284751E-015  0.9000774E+02  0.7816164E-02  0.1186339E+00
        -11   -1    0    0    0    0  0.00000000000E+00  0.00000000000E+00  0.45593999997E+02  0.45594000000E+02  0.51100000000E-03 0.  1.
         11   -1    0    0    0    0 -0.00000000000E+00 -0.00000000000E+00 -0.45593999997E+02  0.45594000000E+02  0.51100000000E-03 0. -1.
    9900012    2    1    2    0    0  0.91399059494E+00 -0.72186881742E+00 -0.19118256485E+00  0.90007735551E+02  0.89999996860E+02 0.  0.
         12    1    1    2    0    0 -0.91399059494E+00  0.72186881742E+00  0.19118256485E+00  0.11802644493E+01  0.00000000000E+00 0. -1.
         11    1    3    3    0    0 -0.23751191525E+01 -0.80726976309E+01 -0.45438422519E+01  0.95632703977E+01  0.51100000000E-03 0. -1.
        -11    1    3    3    0    0 -0.11860806529E+02  0.17372678835E+02 -0.32870796122E+02  0.39025349959E+02  0.51100000000E-03 0.  1.
         12    1    3    3    0    0  0.15149916277E+02 -0.10021850022E+02  0.37223455810E+02  0.41419115194E+02  0.00000000000E+00 0. -1.
</event>
<event>
 7    1  0.2284751E-015  0.9000777E+02  0.7816164E-02  0.1186339E+00
        -11   -1    0    0    0    0  0.00000000000E+00  0.00000000000E+00  0.45593999997E+02  0.45594000000E+02  0.51100000000E-03 0.  1.
         11   -1    0    0    0    0 -0.00000000000E+00 -0.00000000000E+00 -0.45593999997E+02  0.45594000000E+02  0.51100000000E-03 0. -1.
    9900012    2    1    2    0    0  0.11050884449E+01 -0.37044528501E+00 -0.18569274220E+00  0.90007774608E+02  0.90000036433E+02 0.  0.
         12    1    1    2    0    0 -0.11050884449E+01  0.37044528501E+00  0.18569274220E+00  0.11802253915E+01  0.00000000000E+00 0. -1.
         11    1    3    3    0    0  0.62038509402E+01 -0.60892286282E+01 -0.14126701213E+01  0.88069352732E+01  0.51100000000E-03 0. -1.
        -11    1    3    3    0    0 -0.33067516063E+02  0.16944064011E+02  0.23288936104E+02  0.43851299512E+02  0.51100000000E-03 0.  1.
         12    1    3    3    0    0  0.27968753568E+02 -0.11225280668E+02 -0.22061958725E+02  0.37349539823E+02  0.00000000000E+00 0. -1.
</event>
<event>
 7    1  0.2498764E-015  0.9000788E+02  0.7816164E-02  0.1186339E+00
        -11   -1    0    0    0    0  0.00000000000E+00  0.00000000000E+00  0.45593999997E+02  0.45594000000E+02  0.51100000000E-03 0.  1.
         11   -1    0    0    0    0 -0.00000000000E+00 -0.00000000000E+00 -0.45593999997E+02  0.45594000000E+02  0.51100000000E-03 0. -1.
    9900012    2    1    2    0    0  0.41446179099E+00 -0.10684529809E+01  0.28163075382E+00  0.90007878722E+02  0.90000141921E+02 0.  0.
         12    1    1    2    0    0 -0.41446179099E+00  0.10684529809E+01 -0.28163075382E+00  0.11801212777E+01  0.00000000000E+00 0. -1.
         11    1    3    3    0    0  0.40920716892E+01  0.27471143197E+02 -0.31472944038E+02  0.41975647296E+02  0.51100000000E-03 0. -1.
        -11    1    3    3    0    0 -0.18472009265E+01  0.24530363683E+01  0.90852626534E+01  0.95901791656E+01  0.51100000000E-03 0.  1.
        -12    1    3    3    0    0 -0.18304089717E+01 -0.30992632546E+02  0.22669312139E+02  0.38442052260E+02  0.00000000000E+00 0.  1.
</event>
<event>
 7    1  0.2284751E-015  0.9000775E+02  0.7816164E-02  0.1186339E+00
        -11   -1    0    0    0    0  0.00000000000E+00  0.00000000000E+00  0.45593999997E+02  0.45594000000E+02  0.51100000000E-03 0. -1.
         11   -1    0    0    0    0 -0.00000000000E+00 -0.00000000000E+00 -0.45593999997E+02  0.45594000000E+02  0.51100000000E-03 0.  1.
    9900012    2    1    2    0    0 -0.11505694825E+01  0.19389457295E+00 -0.17774461202E+00  0.90007746474E+02  0.90000007927E+02 0.  0.
         12    1    1    2    0    0  0.11505694825E+01 -0.19389457295E+00  0.17774461202E+00  0.11802535264E+01  0.00000000000E+00 0. -1.
         11    1    3    3    0    0  0.25600188307E+02 -0.10320664774E+02  0.21518928354E+02  0.34999286285E+02  0.51100000000E-03 0. -1.
        -11    1    3    3    0    0  0.50773265244E+01 -0.60886520196E+00  0.83865562436E+01  0.98226415672E+01  0.51100000000E-03 0.  1.
        -12    1    3    3    0    0 -0.31828084314E+02  0.11123424549E+02 -0.30083229210E+02  0.45185818621E+02  0.00000000000E+00 0.  1.
</event>
<event>
 7    1  0.2284751E-015  0.9000776E+02  0.7816164E-02  0.1186339E+00
        -11   -1    0    0    0    0  0.00000000000E+00  0.00000000000E+00  0.45593999997E+02  0.45594000000E+02  0.51100000000E-03 0. -1.
         11   -1    0    0    0    0 -0.00000000000E+00 -0.00000000000E+00 -0.45593999997E+02  0.45594000000E+02  0.51100000000E-03 0.  1.
    9900012    2    1    2    0    0 -0.99353332733E+00  0.17087503869E+00  0.61372555455E+00  0.90007760275E+02  0.90000021911E+02 0.  0.
         12    1    1    2    0    0  0.99353332733E+00 -0.17087503869E+00 -0.61372555455E+00  0.11802397247E+01  0.00000000000E+00 0. -1.
         11    1    3    3    0    0 -0.23858363754E+02 -0.80106751492E+00  0.29638506403E+02  0.38056593282E+02  0.51100000000E-03 0. -1.
        -11    1    3    3    0    0 -0.22920635052E+01  0.80569770171E+01  0.44473947441E+01  0.94840789767E+01  0.51100000000E-03 0.  1.
        -12    1    3    3    0    0  0.25156893932E+02 -0.70850344634E+01 -0.33472175593E+02  0.42467088016E+02  0.00000000000E+00 0.  1.
</event>
<event>
 7    1  0.2284751E-015  0.9000771E+02  0.7816164E-02  0.1186339E+00
        -11   -1    0    0    0    0  0.00000000000E+00  0.00000000000E+00  0.45593999997E+02  0.45594000000E+02  0.51100000000E-03 0.  1.
         11   -1    0    0    0    0 -0.00000000000E+00 -0.00000000000E+00 -0.45593999997E+02  0.45594000000E+02  0.51100000000E-03 0. -1.
    9900012    2    1    2    0    0  0.10102150254E+01 -0.56597166360E+00  0.22855584039E+00  0.90007705082E+02  0.89999965989E+02 0.  0.
         12    1    1    2    0    0 -0.10102150254E+01  0.56597166360E+00 -0.22855584039E+00  0.11802949181E+01  0.00000000000E+00 0. -1.
         11    1    3    3    0    0 -0.41319456254E+01 -0.38242298117E+02 -0.90361053238E+01  0.39511992352E+02  0.51100000000E-03 0. -1.
        -11    1    3    3    0    0 -0.96897619213E+01  0.10422781675E+01 -0.58835097576E+00  0.97634003811E+01  0.51100000000E-03 0.  1.
        -12    1    3    3    0    0  0.14831922572E+02  0.36634048286E+02  0.98530121399E+01  0.40732312349E+02  0.00000000000E+00 0.  1.
</event>
<event>
 7    1  0.2284751E-015  0.9000760E+02  0.7816164E-02  0.1186339E+00
        -11   -1    0    0    0    0  0.00000000000E+00  0.00000000000E+00  0.45593999997E+02  0.45594000000E+02  0.51100000000E-03 0.  1.
         11   -1    0    0    0    0 -0.00000000000E+00 -0.00000000000E+00 -0.45593999997E+02  0.45594000000E+02  0.51100000000E-03 0. -1.
    9900012    2    1    2    0    0 -0.37646635319E+00 -0.29001402724E+00  0.10805092508E+01  0.90007603756E+02  0.89999863326E+02 0.  0.
         12    1    1    2    0    0  0.37646635319E+00  0.29001402724E+00 -0.10805092508E+01  0.11803962437E+01  0.00000000000E+00 0. -1.
         11    1    3    3    0    0  0.19888458440E+02  0.18779485322E+02 -0.10000262882E+02  0.29124304387E+02  0.51100000000E-03 0. -1.
        -11    1    3    3    0    0  0.11640021474E+02  0.87094548284E+00 -0.12002799454E+02  0.16742635424E+02  0.51100000000E-03 0.  1.
        -12    1    3    3    0    0 -0.31904946267E+02 -0.19940444832E+02  0.23083571587E+02  0.44140663946E+02  0.00000000000E+00 0.  1.
</event>
<event>
 7    1  0.2284751E-015  0.9000774E+02  0.7816164E-02  0.1186339E+00
        -11   -1    0    0    0    0  0.00000000000E+00  0.00000000000E+00  0.45593999997E+02  0.45594000000E+02  0.51100000000E-03 0.  1.
         11   -1    0    0    0    0 -0.00000000000E+00 -0.00000000000E+00 -0.45593999997E+02  0.45594000000E+02  0.51100000000E-03 0. -1.
    9900012    2    1    2    0    0  0.42450687975E+00 -0.10779946998E+01  0.22523391182E+00  0.90007741986E+02  0.90000003381E+02 0.  0.
         12    1    1    2    0    0 -0.42450687975E+00  0.10779946998E+01 -0.22523391182E+00  0.11802580136E+01  0.00000000000E+00 0. -1.
         11    1    3    3    0    0 -0.93925385089E+00  0.23713390292E+01  0.95515204255E+01  0.98862019647E+01  0.51100000000E-03 0. -1.
        -11    1    3    3    0    0  0.10496310202E+01  0.25823205962E+02  0.24344086919E+02  0.35504566743E+02  0.51100000000E-03 0.  1.
         12    1    3    3    0    0  0.31412971044E+00 -0.29272539691E+02 -0.33670373433E+02  0.44616973279E+02  0.00000000000E+00 0. -1.
</event>
<event>
 7    1  0.2284751E-015  0.9000775E+02  0.7816164E-02  0.1186339E+00
        -11   -1    0    0    0    0  0.00000000000E+00  0.00000000000E+00  0.45593999997E+02  0.45594000000E+02  0.51100000000E-03 0.  1.
         11   -1    0    0    0    0 -0.00000000000E+00 -0.00000000000E+00 -0.45593999997E+02  0.45594000000E+02  0.51100000000E-03 0. -1.
    9900012    2    1    2    0    0  0.68899697940E+00  0.21918159007E-01  0.95801500657E+00  0.90007750028E+02  0.90000011528E+02 0.  0.
         12    1    1    2    0    0 -0.68899697940E+00 -0.21918159007E-01 -0.95801500657E+00  0.11802499719E+01  0.00000000000E+00 0. -1.
         11    1    3    3    0    0  0.15593883308E+01 -0.34981904570E+01  0.74984655806E+01  0.84199771238E+01  0.51100000000E-03 0. -1.
        -11    1    3    3    0    0  0.19552639146E+02 -0.27637431656E+02 -0.22928373271E+02  0.40888184445E+02  0.51100000000E-03 0.  1.
         12    1    3    3    0    0 -0.20423030497E+02  0.31157540272E+02  0.16387922697E+02  0.40699588460E+02  0.00000000000E+00 0. -1.
</event>
<event>
 7    1  0.2284751E-015  0.9000773E+02  0.7816164E-02  0.1186339E+00
        -11   -1    0    0    0    0  0.00000000000E+00  0.00000000000E+00  0.45593999997E+02  0.45594000000E+02  0.51100000000E-03 0.  1.
         11   -1    0    0    0    0 -0.00000000000E+00 -0.00000000000E+00 -0.45593999997E+02  0.45594000000E+02  0.51100000000E-03 0. -1.
    9900012    2    1    2    0    0 -0.16401516926E+00 -0.11316167735E+01 -0.29253862205E+00  0.90007730394E+02  0.89999991635E+02 0.  0.
         12    1    1    2    0    0  0.16401516926E+00  0.11316167735E+01  0.29253862205E+00  0.11802696061E+01  0.00000000000E+00 0. -1.
         11    1    3    3    0    0  0.48735890270E+01  0.11094882097E+02 -0.20244031574E+01  0.12286028128E+02  0.51100000000E-03 0. -1.
        -11    1    3    3    0    0 -0.78430833378E+01 -0.27138331612E+02  0.32714432478E+02  0.43223108305E+02  0.51100000000E-03 0.  1.
         12    1    3    3    0    0  0.28054791415E+01  0.14911832741E+02 -0.30982567943E+02  0.34498593961E+02  0.00000000000E+00 0. -1.
</event>
<event>
 7    1  0.2284751E-015  0.9000789E+02  0.7816164E-02  0.1186339E+00
        -11   -1    0    0    0    0  0.00000000000E+00  0.00000000000E+00  0.45593999997E+02  0.45594000000E+02  0.51100000000E-03 0.  1.
         11   -1    0    0    0    0 -0.00000000000E+00 -0.00000000000E+00 -0.45593999997E+02  0.45594000000E+02  0.51100000000E-03 0. -1.
    9900012    2    1    2    0    0  0.62414061112E+00 -0.58266299524E+00  0.81462858706E+00  0.90007886699E+02  0.90000150003E+02 0.  0.
         12    1    1    2    0    0 -0.62414061112E+00  0.58266299524E+00 -0.81462858706E+00  0.11801133011E+01  0.00000000000E+00 0. -1.
         11    1    3    3    0    0  0.32822279749E+01  0.87868156041E+01 -0.37894595514E+01  0.10116380424E+02  0.51100000000E-03 0. -1.
        -11    1    3    3    0    0 -0.18222959092E+01 -0.95555987618E+00  0.41747341090E+02  0.41798018439E+02  0.51100000000E-03 0.  1.
         12    1    3    3    0    0 -0.83579145460E+00 -0.84139187232E+01 -0.37143252952E+02  0.38093487836E+02  0.00000000000E+00 0. -1.
</event>
<event>
 7    1  0.2284751E-015  0.9000793E+02  0.7816164E-02  0.1186339E+00
        -11   -1    0    0    0    0  0.00000000000E+00  0.00000000000E+00  0.45593999997E+02  0.45594000000E+02  0.51100000000E-03 0.  1.
         11   -1    0    0    0    0 -0.00000000000E+00 -0.00000000000E+00 -0.45593999997E+02  0.45594000000E+02  0.51100000000E-03 0. -1.
    9900012    2    1    2    0    0 -0.10798290164E+00  0.85294501982E+00  0.80832513339E+00  0.90007930072E+02  0.90000193949E+02 0.  0.
         12    1    1    2    0    0  0.10798290164E+00 -0.85294501982E+00 -0.80832513339E+00  0.11800699281E+01  0.00000000000E+00 0. -1.
         11    1    3    3    0    0 -0.29490438848E+02 -0.12018351976E+02 -0.11745646778E+02  0.33942406901E+02  0.51100000000E-03 0. -1.
        -11    1    3    3    0    0 -0.38598689230E+01 -0.98235094853E+01 -0.55569505205E+01  0.11928102366E+02  0.51100000000E-03 0.  1.
        -12    1    3    3    0    0  0.33242324870E+02  0.22694806482E+02  0.18110922432E+02  0.44137420805E+02  0.00000000000E+00 0.  1.
</event>
<event>
 7    1  0.2284751E-015  0.9000763E+02  0.7816164E-02  0.1186339E+00
        -11   -1    0    0    0    0  0.00000000000E+00  0.00000000000E+00  0.45593999997E+02  0.45594000000E+02  0.51100000000E-03 0.  1.
         11   -1    0    0    0    0 -0.00000000000E+00 -0.00000000000E+00 -0.45593999997E+02  0.45594000000E+02  0.51100000000E-03 0. -1.
    9900012    2    1    2    0    0  0.27020249699E+00  0.11221551975E+01 -0.24702773950E+00  0.90007633794E+02  0.89999893760E+02 0.  0.
         12    1    1    2    0    0 -0.27020249699E+00 -0.11221551975E+01  0.24702773950E+00  0.11803662062E+01  0.00000000000E+00 0. -1.
         11    1    3    3    0    0 -0.67222592688E+01 -0.59000757472E+01  0.58764137101E+01  0.10701957851E+02  0.51100000000E-03 0. -1.
        -11    1    3    3    0    0  0.18868449291E+02 -0.32236393685E+02  0.23412763266E+01  0.37425726867E+02  0.51100000000E-03 0.  1.
         12    1    3    3    0    0 -0.11875987525E+02  0.39258624630E+02 -0.84647177762E+01  0.41879949075E+02  0.00000000000E+00 0. -1.
</event>
<event>
 7    1  0.2284751E-015  0.9000774E+02  0.7816164E-02  0.1186339E+00
        -11   -1    0    0    0    0  0.00000000000E+00  0.00000000000E+00  0.45593999997E+02  0.45594000000E+02  0.51100000000E-03 0.  1.
         11   -1    0    0    0    0 -0.00000000000E+00 -0.00000000000E+00 -0.45593999997E+02  0.45594000000E+02  0.51100000000E-03 0. -1.
    9900012    2    1    2    0    0  0.88958665801E+00 -0.20284038315E+00  0.74867084901E+00  0.90007738722E+02  0.90000000074E+02 0.  0.
         12    1    1    2    0    0 -0.88958665801E+00  0.20284038315E+00 -0.74867084901E+00  0.11802612776E+01  0.00000000000E+00 0. -1.
         11    1    3    3    0    0  0.21689317443E+01 -0.18429881088E-01  0.10569399749E+02  0.10789662455E+02  0.51100000000E-03 0. -1.
        -11    1    3    3    0    0  0.98464319589E+01  0.13805062407E+02  0.30620950645E+02  0.35002494041E+02  0.51100000000E-03 0.  1.
         12    1    3    3    0    0 -0.11125777045E+02 -0.13989472910E+02 -0.40441679546E+02  0.44215582226E+02  0.00000000000E+00 0. -1.
</event>
<event>
 7    1  0.2284751E-015  0.9000775E+02  0.7816164E-02  0.1186339E+00
        -11   -1    0    0    0    0  0.00000000000E+00  0.00000000000E+00  0.45593999997E+02  0.45594000000E+02  0.51100000000E-03 0.  1.
         11   -1    0    0    0    0 -0.00000000000E+00 -0.00000000000E+00 -0.45593999997E+02  0.45594000000E+02  0.51100000000E-03 0. -1.
    9900012    2    1    2    0    0  0.84909357342E-01  0.10671808374E+01 -0.49689442208E+00  0.90007750617E+02  0.90000012125E+02 0.  0.
         12    1    1    2    0    0 -0.84909357342E-01 -0.10671808374E+01  0.49689442208E+00  0.11802493827E+01  0.00000000000E+00 0. -1.
         11    1    3    3    0    0 -0.15612806362E+01 -0.69346977508E+01  0.94705829106E+01  0.11841434501E+02  0.51100000000E-03 0. -1.
        -11    1    3    3    0    0 -0.14418507319E+02 -0.17308606841E+01  0.30373693710E+02  0.33666756628E+02  0.51100000000E-03 0.  1.
         12    1    3    3    0    0  0.16064697313E+02  0.97327392723E+01 -0.40341171043E+02  0.44499559488E+02  0.00000000000E+00 0. -1.
</event>
<event>
 7    1  0.2284751E-015  0.9000789E+02  0.7816164E-02  0.1186339E+00
        -11   -1    0    0    0    0  0.00000000000E+00  0.00000000000E+00  0.45593999997E+02  0.45594000000E+02  0.51100000000E-03 0.  1.
         11   -1    0    0    0    0 -0.00000000000E+00 -0.00000000000E+00 -0.45593999997E+02  0.45594000000E+02  0.51100000000E-03 0. -1.
    9900012    2    1    2    0    0 -0.86258736097E+00 -0.47193697383E+00  0.65258624122E+00  0.90007893960E+02  0.90000157360E+02 0.  0.
         12    1    1    2    0    0  0.86258736097E+00  0.47193697383E+00 -0.65258624122E+00  0.11801060396E+01  0.00000000000E+00 0. -1.
         11    1    3    3    0    0 -0.10263929589E+02 -0.19852973655E+02 -0.33196046727E+02  0.40018324954E+02  0.51100000000E-03 0. -1.
        -11    1    3    3    0    0 -0.69805283804E+01  0.82127889138E+00 -0.11485981662E+01  0.71219065914E+01  0.51100000000E-03 0.  1.
        -12    1    3    3    0    0  0.16381870609E+02  0.18559757790E+02  0.34997231135E+02  0.42867662415E+02  0.00000000000E+00 0.  1.
</event>
<event>
 7    1  0.2284751E-015  0.9000775E+02  0.7816164E-02  0.1186339E+00
        -11   -1    0    0    0    0  0.00000000000E+00  0.00000000000E+00  0.45593999997E+02  0.45594000000E+02  0.51100000000E-03 0.  1.
         11   -1    0    0    0    0 -0.00000000000E+00 -0.00000000000E+00 -0.45593999997E+02  0.45594000000E+02  0.51100000000E-03 0. -1.
    9900012    2    1    2    0    0  0.13902324515E+00  0.10928076515E+01  0.42358826309E+00  0.90007752974E+02  0.90000014513E+02 0.  0.
         12    1    1    2    0    0 -0.13902324515E+00 -0.10928076515E+01 -0.42358826309E+00  0.11802470261E+01  0.00000000000E+00 0. -1.
         11    1    3    3    0    0 -0.30649462303E+01  0.94978564991E+01 -0.82736154475E+01  0.12963637079E+02  0.51100000000E-03 0. -1.
        -11    1    3    3    0    0 -0.92072274735E+01  0.30040469252E+02  0.17112642766E+02  0.35777721746E+02  0.51100000000E-03 0.  1.
         12    1    3    3    0    0  0.12411196949E+02 -0.38445518099E+02 -0.84154390559E+01  0.41266394150E+02  0.00000000000E+00 0. -1.
</event>
<event>
 7    1  0.2284751E-015  0.9000772E+02  0.7816164E-02  0.1186339E+00
        -11   -1    0    0    0    0  0.00000000000E+00  0.00000000000E+00  0.45593999997E+02  0.45594000000E+02  0.51100000000E-03 0.  1.
         11   -1    0    0    0    0 -0.00000000000E+00 -0.00000000000E+00 -0.45593999997E+02  0.45594000000E+02  0.51100000000E-03 0. -1.
    9900012    2    1    2    0    0 -0.53200326125E+00  0.95900471765E+00  0.43628133938E+00  0.90007720827E+02  0.89999981942E+02 0.  0.
         12    1    1    2    0    0  0.53200326125E+00 -0.95900471765E+00 -0.43628133938E+00  0.11802791727E+01  0.00000000000E+00 0. -1.
         11    1    3    3    0    0 -0.30946925134E+02 -0.22530345391E+02 -0.55546010746E+01  0.38680514888E+02  0.51100000000E-03 0. -1.
        -11    1    3    3    0    0  0.16177203595E+01 -0.71830539010E+01 -0.35691946104E+01  0.81824466350E+01  0.51100000000E-03 0.  1.
        -12    1    3    3    0    0  0.28797201513E+02  0.30672404009E+02  0.95600770243E+01  0.43144759304E+02  0.00000000000E+00 0.  1.
</event>
<event>
 7    1  0.2559875E-015  0.9000787E+02  0.7816164E-02  0.1186339E+00
        -11   -1    0    0    0    0  0.00000000000E+00  0.00000000000E+00  0.45593999997E+02  0.45594000000E+02  0.51100000000E-03 0. -1.
         11   -1    0    0    0    0 -0.00000000000E+00 -0.00000000000E+00 -0.45593999997E+02  0.45594000000E+02  0.51100000000E-03 0.  1.
    9900012    2    1    2    0    0 -0.27918186454E+00  0.71386036629E+00 -0.89730847874E+00  0.90007872192E+02  0.90000135305E+02 0.  0.
         12    1    1    2    0    0  0.27918186454E+00 -0.71386036629E+00  0.89730847874E+00  0.11801278075E+01  0.00000000000E+00 0. -1.
         11    1    3    3    0    0 -0.18694070259E+02 -0.16114268255E+02  0.25886382445E+02  0.35766502493E+02  0.51100000000E-03 0. -1.
        -11    1    3    3    0    0 -0.14017963087E+01 -0.78644340886E+01  0.49635737643E+01  0.94048615726E+01  0.51100000000E-03 0.  1.
        -12    1    3    3    0    0  0.19816684703E+02  0.24692562709E+02 -0.31747264688E+02  0.44836508127E+02  0.00000000000E+00 0.  1.
</event>
<event>
 7    1  0.2284751E-015  0.9000780E+02  0.7816164E-02  0.1186339E+00
        -11   -1    0    0    0    0  0.00000000000E+00  0.00000000000E+00  0.45593999997E+02  0.45594000000E+02  0.51100000000E-03 0. -1.
         11   -1    0    0    0    0 -0.00000000000E+00 -0.00000000000E+00 -0.45593999997E+02  0.45594000000E+02  0.51100000000E-03 0.  1.
    9900012    2    1    2    0    0 -0.29796129034E+00  0.89342726710E+00 -0.71124485683E+00  0.90007804059E+02  0.90000066273E+02 0.  0.
         12    1    1    2    0    0  0.29796129034E+00 -0.89342726710E+00  0.71124485683E+00  0.11801959407E+01  0.00000000000E+00 0. -1.
         11    1    3    3    0    0  0.20111099885E+02 -0.35050916076E+02  0.59561040360E+01  0.40847254889E+02  0.51100000000E-03 0. -1.
        -11    1    3    3    0    0 -0.99445895029E+01  0.18877188299E+02  0.95693990139E+01  0.23384107770E+02  0.51100000000E-03 0.  1.
        -12    1    3    3    0    0 -0.10464471673E+02  0.17067155045E+02 -0.16236747907E+02  0.25776441401E+02  0.00000000000E+00 0.  1.
</event>
<event>
 7    1  0.2284751E-015  0.9000768E+02  0.7816164E-02  0.1186339E+00
        -11   -1    0    0    0    0  0.00000000000E+00  0.00000000000E+00  0.45593999997E+02  0.45594000000E+02  0.51100000000E-03 0.  1.
         11   -1    0    0    0    0 -0.00000000000E+00 -0.00000000000E+00 -0.45593999997E+02  0.45594000000E+02  0.51100000000E-03 0. -1.
    9900012    2    1    2    0    0 -0.54152487154E+00 -0.71720553131E+00  0.76518791258E+00  0.90007684152E+02  0.89999944782E+02 0.  0.
         12    1    1    2    0    0  0.54152487154E+00  0.71720553131E+00 -0.76518791258E+00  0.11803158485E+01  0.00000000000E+00 0. -1.
         11    1    3    3    0    0  0.78779134627E+01  0.93373297804E+00 -0.17757837632E+01  0.81293779611E+01  0.51100000000E-03 0. -1.
        -11    1    3    3    0    0  0.60142567270E+01  0.34526594780E+02  0.18683023346E+02  0.39715392390E+02  0.51100000000E-03 0.  1.
         12    1    3    3    0    0 -0.14433695061E+02 -0.36177533289E+02 -0.16142051670E+02  0.42162913800E+02  0.00000000000E+00 0. -1.
</event>
<event>
 7    1  0.2284751E-015  0.9000798E+02  0.7816164E-02  0.1186339E+00
        -11   -1    0    0    0    0  0.00000000000E+00  0.00000000000E+00  0.45593999997E+02  0.45594000000E+02  0.51100000000E-03 0. -1.
         11   -1    0    0    0    0 -0.00000000000E+00 -0.00000000000E+00 -0.45593999997E+02  0.45594000000E+02  0.51100000000E-03 0.  1.
    9900012    2    1    2    0    0  0.54793860134E+00  0.95940787595E+00  0.41443380664E+00  0.90007976456E+02  0.90000240945E+02 0.  0.
         12    1    1    2    0    0 -0.54793860134E+00 -0.95940787595E+00 -0.41443380664E+00  0.11800235436E+01  0.00000000000E+00 0. -1.
         11    1    3    3    0    0 -0.10243704155E+01  0.43453240062E+02  0.56335134437E+01  0.43828870401E+02  0.51100000000E-03 0. -1.
        -11    1    3    3    0    0 -0.84688540205E+00 -0.77124395730E+01 -0.80731210656E+01  0.11197063144E+02  0.51100000000E-03 0.  1.
        -12    1    3    3    0    0  0.24191944189E+01 -0.34781392613E+02  0.28540414286E+01  0.34982042911E+02  0.00000000000E+00 0.  1.
</event>
<event>
 7    1  0.2284751E-015  0.9000767E+02  0.7816164E-02  0.1186339E+00
        -11   -1    0    0    0    0  0.00000000000E+00  0.00000000000E+00  0.45593999997E+02  0.45594000000E+02  0.51100000000E-03 0.  1.
         11   -1    0    0    0    0 -0.00000000000E+00 -0.00000000000E+00 -0.45593999997E+02  0.45594000000E+02  0.51100000000E-03 0. -1.
    9900012    2    1    2    0    0 -0.31033570540E+00  0.10703832411E+01 -0.38878166978E+00  0.90007669657E+02  0.89999930096E+02 0.  0.
         12    1    1    2    0    0  0.31033570540E+00 -0.10703832411E+01  0.38878166978E+00  0.11803303434E+01  0.00000000000E+00 0. -1.
         11    1    3    3    0    0  0.56712944187E+01  0.72415879945E+01 -0.32431997836E+01  0.97530775739E+01  0.51100000000E-03 0. -1.
        -11    1    3    3    0    0 -0.17161875923E+02 -0.70730089878E+01  0.38578029323E+02  0.42811467950E+02  0.51100000000E-03 0.  1.
         12    1    3    3    0    0  0.11180245798E+02  0.90180423440E+00 -0.35723611209E+02  0.37443124133E+02  0.00000000000E+00 0. -1.
</event>
<event>
 7    1  0.2284751E-015  0.9000786E+02  0.7816164E-02  0.1186339E+00
        -11   -1    0    0    0    0  0.00000000000E+00  0.00000000000E+00  0.45593999997E+02  0.45594000000E+02  0.51100000000E-03 0. -1.
         11   -1    0    0    0    0 -0.00000000000E+00 -0.00000000000E+00 -0.45593999997E+02  0.45594000000E+02  0.51100000000E-03 0.  1.
    9900012    2    1    2    0    0 -0.10401844196E+01  0.46570679039E+00  0.30637924712E+00  0.90007858193E+02  0.90000121121E+02 0.  0.
         12    1    1    2    0    0  0.10401844196E+01 -0.46570679039E+00 -0.30637924712E+00  0.11801418069E+01  0.00000000000E+00 0. -1.
         11    1    3    3    0    0  0.34972203586E+02  0.10622251686E+02  0.92870699723E+01  0.37711230734E+02  0.51100000000E-03 0. -1.
        -11    1    3    3    0    0 -0.45792478089E+01  0.97979354765E+01 -0.10445398697E+02  0.15035804079E+02  0.51100000000E-03 0.  1.
        -12    1    3    3    0    0 -0.31433140197E+02 -0.19954480372E+02  0.14647079718E+01  0.37260823380E+02  0.00000000000E+00 0.  1.
</event>
<event>
 7    1  0.2284751E-015  0.9000771E+02  0.7816164E-02  0.1186339E+00
        -11   -1    0    0    0    0  0.00000000000E+00  0.00000000000E+00  0.45593999997E+02  0.45594000000E+02  0.51100000000E-03 0.  1.
         11   -1    0    0    0    0 -0.00000000000E+00 -0.00000000000E+00 -0.45593999997E+02  0.45594000000E+02  0.51100000000E-03 0. -1.
    9900012    2    1    2    0    0  0.86713988237E+00  0.68853490243E+00  0.40875558628E+00  0.90007706385E+02  0.89999967310E+02 0.  0.
         12    1    1    2    0    0 -0.86713988237E+00 -0.68853490243E+00 -0.40875558628E+00  0.11802936146E+01  0.00000000000E+00 0. -1.
         11    1    3    3    0    0  0.13829632204E+02  0.29828036647E+02 -0.21828552920E+02  0.39464619850E+02  0.51100000000E-03 0. -1.
        -11    1    3    3    0    0 -0.67405157502E+01  0.71960876018E+00 -0.59444956976E+01  0.90160644799E+01  0.51100000000E-03 0.  1.
        -12    1    3    3    0    0 -0.62219765713E+01 -0.29859110505E+02  0.28181804204E+02  0.41527022055E+02  0.00000000000E+00 0.  1.
</event>
<event>
 7    1  0.2284751E-015  0.9000768E+02  0.7816164E-02  0.1186339E+00
        -11   -1    0    0    0    0  0.00000000000E+00  0.00000000000E+00  0.45593999997E+02  0.45594000000E+02  0.51100000000E-03 0.  1.
         11   -1    0    0    0    0 -0.00000000000E+00 -0.00000000000E+00 -0.45593999997E+02  0.45594000000E+02  0.51100000000E-03 0. -1.
    9900012    2    1    2    0    0 -0.94975131087E+00 -0.44633610740E+00  0.54028058032E+00  0.90007683695E+02  0.89999944320E+02 0.  0.
         12    1    1    2    0    0  0.94975131087E+00  0.44633610740E+00 -0.54028058032E+00  0.11803163045E+01  0.00000000000E+00 0. -1.
         11    1    3    3    0    0 -0.72861346742E+01  0.32410646197E+01  0.70155148912E+01  0.10621191450E+02  0.51100000000E-03 0. -1.
        -11    1    3    3    0    0 -0.97970370534E+01  0.27845283404E+02  0.19574080220E+02  0.35418728938E+02  0.51100000000E-03 0.  1.
         12    1    3    3    0    0  0.16133420417E+02 -0.31532684131E+02 -0.26049314531E+02  0.43967763308E+02  0.00000000000E+00 0. -1.
</event>
<event>
 7    1  0.2284751E-015  0.9000776E+02  0.7816164E-02  0.1186339E+00
        -11   -1    0    0    0    0  0.00000000000E+00  0.00000000000E+00  0.45593999997E+02  0.45594000000E+02  0.51100000000E-03 0.  1.
         11   -1    0    0    0    0 -0.00000000000E+00 -0.00000000000E+00 -0.45593999997E+02  0.45594000000E+02  0.51100000000E-03 0. -1.
    9900012    2    1    2    0    0  0.73658399100E+00 -0.40683183196E+00  0.82757893342E+00  0.90007764851E+02  0.90000026547E+02 0.  0.
         12    1    1    2    0    0 -0.73658399100E+00  0.40683183196E+00 -0.82757893342E+00  0.11802351487E+01  0.00000000000E+00 0. -1.
         11    1    3    3    0    0  0.94561833445E+00 -0.13757840762E+01 -0.97507773486E+01  0.98926556102E+01  0.51100000000E-03 0. -1.
        -11    1    3    3    0    0  0.14537441465E+02  0.36065352906E+02 -0.45507288129E+01  0.39150428064E+02  0.51100000000E-03 0.  1.
         12    1    3    3    0    0 -0.14746475808E+02 -0.35096400662E+02  0.15129085095E+02  0.40964681178E+02  0.00000000000E+00 0. -1.
</event>
<event>
 7    1  0.2284751E-015  0.9000773E+02  0.7816164E-02  0.1186339E+00
        -11   -1    0    0    0    0  0.00000000000E+00  0.00000000000E+00  0.45593999997E+02  0.45594000000E+02  0.51100000000E-03 0.  1.
         11   -1    0    0    0    0 -0.00000000000E+00 -0.00000000000E+00 -0.45593999997E+02  0.45594000000E+02  0.51100000000E-03 0. -1.
    9900012    2    1    2    0    0  0.64124187250E+00  0.82137937465E+00  0.55423527378E+00  0.90007732253E+02  0.89999993519E+02 0.  0.
         12    1    1    2    0    0 -0.64124187250E+00 -0.82137937465E+00 -0.55423527378E+00  0.11802677471E+01  0.00000000000E+00 0. -1.
         11    1    3    3    0    0  0.30591984287E+02  0.18576153213E+02  0.10433314979E+02  0.37279981659E+02  0.51100000000E-03 0. -1.
        -11    1    3    3    0    0  0.91032869368E+01 -0.69036630575E+00 -0.25885046083E+01  0.94892989761E+01  0.51100000000E-03 0.  1.
        -12    1    3    3    0    0 -0.39054029351E+02 -0.17064407532E+02 -0.72905750974E+01  0.43238451617E+02  0.00000000000E+00 0.  1.
</event>
<event>
 7    1  0.2284751E-015  0.9000786E+02  0.7816164E-02  0.1186339E+00
        -11   -1    0    0    0    0  0.00000000000E+00  0.00000000000E+00  0.45593999997E+02  0.45594000000E+02  0.51100000000E-03 0. -1.
         11   -1    0    0    0    0 -0.00000000000E+00 -0.00000000000E+00 -0.45593999997E+02  0.45594000000E+02  0.51100000000E-03 0.  1.
    9900012    2    1    2    0    0 -0.33387931676E+00 -0.76141954774E+00 -0.83755996774E+00  0.90007855168E+02  0.90000118056E+02 0.  0.
         12    1    1    2    0    0  0.33387931676E+00  0.76141954774E+00  0.83755996774E+00  0.11801448324E+01  0.00000000000E+00 0. -1.
         11    1    3    3    0    0  0.30252302075E+02  0.26901947975E+02 -0.17146637879E+02  0.43965029017E+02  0.51100000000E-03 0. -1.
        -11    1    3    3    0    0 -0.57033005528E+01 -0.70570364242E+01 -0.14301148616E+01  0.91855663444E+01  0.51100000000E-03 0.  1.
        -12    1    3    3    0    0 -0.24882880839E+02 -0.20606331098E+02  0.17739192773E+02  0.36857259806E+02  0.00000000000E+00 0.  1.
</event>
<event>
 7    1  0.2284751E-015  0.9000772E+02  0.7816164E-02  0.1186339E+00
        -11   -1    0    0    0    0  0.00000000000E+00  0.00000000000E+00  0.45593999997E+02  0.45594000000E+02  0.51100000000E-03 0. -1.
         11   -1    0    0    0    0 -0.00000000000E+00 -0.00000000000E+00 -0.45593999997E+02  0.45594000000E+02  0.51100000000E-03 0.  1.
    9900012    2    1    2    0    0 -0.57383674971E+00  0.77762890911E+00 -0.67755086848E+00  0.90007715918E+02  0.89999976968E+02 0.  0.
         12    1    1    2    0    0  0.57383674971E+00 -0.77762890911E+00  0.67755086848E+00  0.11802840823E+01  0.00000000000E+00 0. -1.
         11    1    3    3    0    0 -0.74185270273E+01 -0.42881604276E+01 -0.21262147376E+01  0.88285702397E+01  0.51100000000E-03 0. -1.
        -11    1    3    3    0    0  0.40164365992E+01  0.42959862663E+02 -0.11852598004E+00  0.43147370855E+02  0.51100000000E-03 0.  1.
         12    1    3    3    0    0  0.28282536783E+01 -0.37894073327E+02  0.15671898492E+01  0.38031774823E+02  0.00000000000E+00 0. -1.
</event>
<event>
 7    1  0.2284751E-015  0.9000771E+02  0.7816164E-02  0.1186339E+00
        -11   -1    0    0    0    0  0.00000000000E+00  0.00000000000E+00  0.45593999997E+02  0.45594000000E+02  0.51100000000E-03 0. -1.
         11   -1    0    0    0    0 -0.00000000000E+00 -0.00000000000E+00 -0.45593999997E+02  0.45594000000E+02  0.51100000000E-03 0.  1.
    9900012    2    1    2    0    0 -0.58158018940E-01  0.23178120194E+00 -0.11558434978E+01  0.90007712293E+02  0.89999973295E+02 0.  0.
         12    1    1    2    0    0  0.58158018940E-01 -0.23178120194E+00  0.11558434978E+01  0.11802877074E+01  0.00000000000E+00 0. -1.
         11    1    3    3    0    0 -0.27070265652E+02 -0.31435927754E+02 -0.38356979776E+01  0.41662086067E+02  0.51100000000E-03 0. -1.
        -11    1    3    3    0    0 -0.32919142621E+01  0.65182177769E+01 -0.41167925242E+01  0.83828302765E+01  0.51100000000E-03 0.  1.
        -12    1    3    3    0    0  0.30304021895E+02  0.25149491179E+02  0.67966470040E+01  0.39962795949E+02  0.00000000000E+00 0.  1.
</event>
<event>
 7    1  0.2284751E-015  0.9000761E+02  0.7816164E-02  0.1186339E+00
        -11   -1    0    0    0    0  0.00000000000E+00  0.00000000000E+00  0.45593999997E+02  0.45594000000E+02  0.51100000000E-03 0. -1.
         11   -1    0    0    0    0 -0.00000000000E+00 -0.00000000000E+00 -0.45593999997E+02  0.45594000000E+02  0.51100000000E-03 0.  1.
    9900012    2    1    2    0    0  0.88179125341E+00  0.76003787332E+00 -0.19519001624E+00  0.90007613400E+02  0.89999873097E+02 0.  0.
         12    1    1    2    0    0 -0.88179125341E+00 -0.76003787332E+00  0.19519001624E+00  0.11803866002E+01  0.00000000000E+00 0. -1.
         11    1    3    3    0    0  0.38417405741E+01  0.39159928970E+00  0.84732719180E+01  0.93117483804E+01  0.51100000000E-03 0. -1.
        -11    1    3    3    0    0 -0.11601477969E+02  0.37484914950E+02 -0.15106643711E+02  0.42046686247E+02  0.51100000000E-03 0.  1.
         12    1    3    3    0    0  0.86415286478E+01 -0.37116476366E+02  0.64381817768E+01  0.38649178773E+02  0.00000000000E+00 0. -1.
</event>
<event>
 7    1  0.2284751E-015  0.9000771E+02  0.7816164E-02  0.1186339E+00
        -11   -1    0    0    0    0  0.00000000000E+00  0.00000000000E+00  0.45593999997E+02  0.45594000000E+02  0.51100000000E-03 0.  1.
         11   -1    0    0    0    0 -0.00000000000E+00 -0.00000000000E+00 -0.45593999997E+02  0.45594000000E+02  0.51100000000E-03 0. -1.
    9900012    2    1    2    0    0  0.18682272224E+00  0.11649354687E+01 -0.33188552883E-01  0.90007712384E+02  0.89999973388E+02 0.  0.
         12    1    1    2    0    0 -0.18682272224E+00 -0.11649354687E+01  0.33188552883E-01  0.11802876158E+01  0.00000000000E+00 0. -1.
         11    1    3    3    0    0  0.71512948042E+01 -0.20000498748E+01  0.56342689638E+01  0.93212769456E+01  0.51100000000E-03 0. -1.
        -11    1    3    3    0    0 -0.19556256965E+02 -0.33393022005E+02  0.82946668648E+01  0.39577046425E+02  0.51100000000E-03 0.  1.
         12    1    3    3    0    0  0.12591784883E+02  0.36558007348E+02 -0.13962124381E+02  0.41109389013E+02  0.00000000000E+00 0. -1.
</event>
<event>
 7    1  0.2606575E-015  0.9000782E+02  0.7816164E-02  0.1186339E+00
        -11   -1    0    0    0    0  0.00000000000E+00  0.00000000000E+00  0.45593999997E+02  0.45594000000E+02  0.51100000000E-03 0.  1.
         11   -1    0    0    0    0 -0.00000000000E+00 -0.00000000000E+00 -0.45593999997E+02  0.45594000000E+02  0.51100000000E-03 0. -1.
    9900012    2    1    2    0    0  0.32788668967E+00 -0.73428235910E+00  0.86380102448E+00  0.90007816763E+02  0.90000079144E+02 0.  0.
         12    1    1    2    0    0 -0.32788668967E+00  0.73428235910E+00 -0.86380102448E+00  0.11801832375E+01  0.00000000000E+00 0. -1.
         11    1    3    3    0    0 -0.17415841227E+02  0.75748502541E+01 -0.30175795568E+02  0.35654852691E+02  0.51100000000E-03 0. -1.
        -11    1    3    3    0    0 -0.27296312672E+01  0.47418951048E+01 -0.72083101691E+01  0.90496514737E+01  0.51100000000E-03 0.  1.
        -12    1    3    3    0    0  0.20473359183E+02 -0.13051027718E+02  0.38247906761E+02  0.45303312598E+02  0.00000000000E+00 0.  1.
</event>
<event>
 7    1  0.2284751E-015  0.9000765E+02  0.7816164E-02  0.1186339E+00
        -11   -1    0    0    0    0  0.00000000000E+00  0.00000000000E+00  0.45593999997E+02  0.45594000000E+02  0.51100000000E-03 0.  1.
         11   -1    0    0    0    0 -0.00000000000E+00 -0.00000000000E+00 -0.45593999997E+02  0.45594000000E+02  0.51100000000E-03 0. -1.
    9900012    2    1    2    0    0 -0.28990898747E+00  0.81263979689E+00  0.80547535828E+00  0.90007652080E+02  0.89999912287E+02 0.  0.
         12    1    1    2    0    0  0.28990898747E+00 -0.81263979689E+00 -0.80547535828E+00  0.11803479204E+01  0.00000000000E+00 0. -1.
         11    1    3    3    0    0 -0.66147085484E+01 -0.10113816644E+02 -0.35905345871E+02  0.37884528750E+02  0.51100000000E-03 0. -1.
        -11    1    3    3    0    0 -0.43638245645E+01 -0.95602203842E+01  0.24379711854E+01  0.10788163995E+02  0.51100000000E-03 0.  1.
        -12    1    3    3    0    0  0.10688624126E+02  0.20486676825E+02  0.34272850044E+02  0.41334959334E+02  0.00000000000E+00 0.  1.
</event>
<event>
 7    1  0.2284751E-015  0.9000740E+02  0.7816164E-02  0.1186340E+00
        -11   -1    0    0    0    0  0.00000000000E+00  0.00000000000E+00  0.45593999997E+02  0.45594000000E+02  0.51100000000E-03 0. -1.
         11   -1    0    0    0    0 -0.00000000000E+00 -0.00000000000E+00 -0.45593999997E+02  0.45594000000E+02  0.51100000000E-03 0.  1.
    9900012    2    1    2    0    0 -0.14257058711E+00  0.62350487211E+00 -0.99233225814E+00  0.90007403537E+02  0.89999660463E+02 0.  0.
         12    1    1    2    0    0  0.14257058711E+00 -0.62350487211E+00  0.99233225814E+00  0.11805964630E+01  0.00000000000E+00 0. -1.
         11    1    3    3    0    0 -0.11098018125E+02  0.11649511225E+02  0.37790213883E+02  0.41072830237E+02  0.51100000000E-03 0. -1.
        -11    1    3    3    0    0  0.60751019329E+01 -0.11156352274E+02 -0.33095957781E+01  0.13127242057E+02  0.51100000000E-03 0.  1.
        -12    1    3    3    0    0  0.48803456050E+01  0.13034592071E+00 -0.35472950363E+02  0.35807331243E+02  0.00000000000E+00 0.  1.
</event>
<event>
 7    1  0.2284751E-015  0.9000771E+02  0.7816164E-02  0.1186339E+00
        -11   -1    0    0    0    0  0.00000000000E+00  0.00000000000E+00  0.45593999997E+02  0.45594000000E+02  0.51100000000E-03 0.  1.
         11   -1    0    0    0    0 -0.00000000000E+00 -0.00000000000E+00 -0.45593999997E+02  0.45594000000E+02  0.51100000000E-03 0. -1.
    9900012    2    1    2    0    0  0.62695854076E+00  0.67761218263E+00  0.73542898871E+00  0.90007707206E+02  0.89999968141E+02 0.  0.
         12    1    1    2    0    0 -0.62695854076E+00 -0.67761218263E+00 -0.73542898871E+00  0.11802927939E+01  0.00000000000E+00 0. -1.
         11    1    3    3    0    0  0.10207680053E+02 -0.64249642912E+01 -0.44398648168E+01  0.12852598883E+02  0.51100000000E-03 0. -1.
        -11    1    3    3    0    0 -0.29539531437E+02  0.21627021212E+02 -0.20150775423E+02  0.41789540730E+02  0.51100000000E-03 0.  1.
         12    1    3    3    0    0  0.19958809925E+02 -0.14524444738E+02  0.25326069229E+02  0.35365567593E+02  0.00000000000E+00 0. -1.
</event>
<event>
 7    1  0.2284751E-015  0.9000760E+02  0.7816164E-02  0.1186339E+00
        -11   -1    0    0    0    0  0.00000000000E+00  0.00000000000E+00  0.45593999997E+02  0.45594000000E+02  0.51100000000E-03 0. -1.
         11   -1    0    0    0    0 -0.00000000000E+00 -0.00000000000E+00 -0.45593999997E+02  0.45594000000E+02  0.51100000000E-03 0.  1.
    9900012    2    1    2    0    0  0.50066628131E+00 -0.82326572659E+00 -0.68183520268E+00  0.90007604971E+02  0.89999864556E+02 0.  0.
         12    1    1    2    0    0 -0.50066628131E+00  0.82326572659E+00  0.68183520268E+00  0.11803950294E+01  0.00000000000E+00 0. -1.
         11    1    3    3    0    0 -0.26912539894E+02 -0.65449722328E+01  0.22873234048E+02  0.35920833804E+02  0.51100000000E-03 0. -1.
        -11    1    3    3    0    0 -0.95879378827E+01 -0.39980175279E+01 -0.41041506151E+01  0.11169456098E+02  0.51100000000E-03 0.  1.
        -12    1    3    3    0    0  0.37001144058E+02  0.97197240341E+01 -0.19450918636E+02  0.42917315069E+02  0.00000000000E+00 0.  1.
</event>
<event>
 7    1  0.2284751E-015  0.9000774E+02  0.7816164E-02  0.1186339E+00
        -11   -1    0    0    0    0  0.00000000000E+00  0.00000000000E+00  0.45593999997E+02  0.45594000000E+02  0.51100000000E-03 0.  1.
         11   -1    0    0    0    0 -0.00000000000E+00 -0.00000000000E+00 -0.45593999997E+02  0.45594000000E+02  0.51100000000E-03 0. -1.
    9900012    2    1    2    0    0  0.30848690346E+00  0.10146591735E+01  0.51799728916E+00  0.90007737911E+02  0.89999999251E+02 0.  0.
         12    1    1    2    0    0 -0.30848690346E+00 -0.10146591735E+01 -0.51799728916E+00  0.11802620894E+01  0.00000000000E+00 0. -1.
         11    1    3    3    0    0 -0.10962043066E+02  0.17298404847E+02 -0.31083526930E+02  0.37223471696E+02  0.51100000000E-03 0. -1.
        -11    1    3    3    0    0  0.43509384228E+01  0.93502441686E+01 -0.14219409516E+01  0.10410554620E+02  0.51100000000E-03 0.  1.
        -12    1    3    3    0    0  0.69195915466E+01 -0.25633989842E+02  0.33023465171E+02  0.42373711594E+02  0.00000000000E+00 0.  1.
</event>
<event>
 7    1  0.2284751E-015  0.9000774E+02  0.7816164E-02  0.1186339E+00
        -11   -1    0    0    0    0  0.00000000000E+00  0.00000000000E+00  0.45593999997E+02  0.45594000000E+02  0.51100000000E-03 0.  1.
         11   -1    0    0    0    0 -0.00000000000E+00 -0.00000000000E+00 -0.45593999997E+02  0.45594000000E+02  0.51100000000E-03 0. -1.
    9900012    2    1    2    0    0  0.65253884417E+00  0.95140827843E+00  0.24905049503E+00  0.90007741213E+02  0.90000002597E+02 0.  0.
         12    1    1    2    0    0 -0.65253884417E+00 -0.95140827843E+00 -0.24905049503E+00  0.11802587871E+01  0.00000000000E+00 0. -1.
         11    1    3    3    0    0  0.18409111822E+02  0.29159930271E+02 -0.88843330733E+01  0.35610789179E+02  0.51100000000E-03 0. -1.
        -11    1    3    3    0    0  0.42261791745E+01  0.86065138555E+01  0.61997547445E+01  0.11417952107E+02  0.51100000000E-03 0.  1.
        -12    1    3    3    0    0 -0.21982752152E+02 -0.36815035848E+02  0.29336288238E+01  0.42978999928E+02  0.00000000000E+00 0.  1.
</event>
<event>
 7    1  0.2284751E-015  0.9000776E+02  0.7816164E-02  0.1186339E+00
        -11   -1    0    0    0    0  0.00000000000E+00  0.00000000000E+00  0.45593999997E+02  0.45594000000E+02  0.51100000000E-03 0.  1.
         11   -1    0    0    0    0 -0.00000000000E+00 -0.00000000000E+00 -0.45593999997E+02  0.45594000000E+02  0.51100000000E-03 0. -1.
    9900012    2    1    2    0    0  0.49436837217E+00  0.91942973895E+00  0.55064059147E+00  0.90007764348E+02  0.90000026038E+02 0.  0.
         12    1    1    2    0    0 -0.49436837217E+00 -0.91942973895E+00 -0.55064059147E+00  0.11802356516E+01  0.00000000000E+00 0. -1.
         11    1    3    3    0    0 -0.10480393442E+02 -0.28538827071E+02 -0.29767832639E+02  0.42549114651E+02  0.51100000000E-03 0. -1.
        -11    1    3    3    0    0 -0.22883007286E+01  0.74185275868E+00  0.89951257666E+01  0.93112272853E+01  0.51100000000E-03 0.  1.
        -12    1    3    3    0    0  0.13263062543E+02  0.28716404051E+02  0.21323347464E+02  0.38147422412E+02  0.00000000000E+00 0.  1.
</event>
<event>
 7    1  0.2284751E-015  0.9000788E+02  0.7816164E-02  0.1186339E+00
        -11   -1    0    0    0    0  0.00000000000E+00  0.00000000000E+00  0.45593999997E+02  0.45594000000E+02  0.51100000000E-03 0.  1.
         11   -1    0    0    0    0 -0.00000000000E+00 -0.00000000000E+00 -0.45593999997E+02  0.45594000000E+02  0.51100000000E-03 0. -1.
    9900012    2    1    2    0    0 -0.50382211995E+00  0.43123496360E+00  0.97615389659E+00  0.90007882738E+02  0.90000145990E+02 0.  0.
         12    1    1    2    0    0  0.50382211995E+00 -0.43123496360E+00 -0.97615389659E+00  0.11801172621E+01  0.00000000000E+00 0. -1.
         11    1    3    3    0    0 -0.59378397340E+01  0.81705495774E+01 -0.60196522703E+01  0.11758062545E+02  0.51100000000E-03 0. -1.
        -11    1    3    3    0    0 -0.10323997217E+02  0.11183824010E+02  0.36661394170E+02  0.39695348100E+02  0.51100000000E-03 0.  1.
         12    1    3    3    0    0  0.15758014832E+02 -0.18923138624E+02 -0.29665588003E+02  0.38554472093E+02  0.00000000000E+00 0. -1.
</event>
<event>
 7    1  0.2284751E-015  0.9000766E+02  0.7816164E-02  0.1186339E+00
        -11   -1    0    0    0    0  0.00000000000E+00  0.00000000000E+00  0.45593999997E+02  0.45594000000E+02  0.51100000000E-03 0. -1.
         11   -1    0    0    0    0 -0.00000000000E+00 -0.00000000000E+00 -0.45593999997E+02  0.45594000000E+02  0.51100000000E-03 0.  1.
    9900012    2    1    2    0    0 -0.22916179840E+00  0.36711341447E+00 -0.10981405156E+01  0.90007661074E+02  0.89999921400E+02 0.  0.
         12    1    1    2    0    0  0.22916179840E+00 -0.36711341447E+00  0.10981405156E+01  0.11803389263E+01  0.00000000000E+00 0. -1.
         11    1    3    3    0    0 -0.68076548851E+01  0.39939366060E+01 -0.29223032495E+01  0.84163858746E+01  0.51100000000E-03 0. -1.
        -11    1    3    3    0    0 -0.60355989479E+01  0.24198822805E+02 -0.28960835969E+02  0.38219648090E+02  0.51100000000E-03 0.  1.
         12    1    3    3    0    0  0.12614092035E+02 -0.27825645996E+02  0.30784998703E+02  0.43371627109E+02  0.00000000000E+00 0. -1.
</event>
<event>
 7    1  0.2284751E-015  0.9000776E+02  0.7816164E-02  0.1186339E+00
        -11   -1    0    0    0    0  0.00000000000E+00  0.00000000000E+00  0.45593999997E+02  0.45594000000E+02  0.51100000000E-03 0.  1.
         11   -1    0    0    0    0 -0.00000000000E+00 -0.00000000000E+00 -0.45593999997E+02  0.45594000000E+02  0.51100000000E-03 0. -1.
    9900012    2    1    2    0    0 -0.87170496635E+00 -0.57402569306E+00  0.55098759565E+00  0.90007761729E+02  0.90000023384E+02 0.  0.
         12    1    1    2    0    0  0.87170496635E+00  0.57402569306E+00 -0.55098759565E+00  0.11802382705E+01  0.00000000000E+00 0. -1.
         11    1    3    3    0    0  0.20534939867E+02  0.72503904494E+01 -0.30045135832E+01  0.21983607964E+02  0.51100000000E-03 0. -1.
        -11    1    3    3    0    0 -0.35261204740E+02  0.11141122463E+02  0.17283858494E+02  0.40819222606E+02  0.51100000000E-03 0.  1.
         12    1    3    3    0    0  0.13854559907E+02 -0.18965538605E+02 -0.13728357315E+02  0.27204931159E+02  0.00000000000E+00 0. -1.
</event>
<event>
 7    1  0.2284751E-015  0.9000773E+02  0.7816164E-02  0.1186339E+00
        -11   -1    0    0    0    0  0.00000000000E+00  0.00000000000E+00  0.45593999997E+02  0.45594000000E+02  0.51100000000E-03 0. -1.
         11   -1    0    0    0    0 -0.00000000000E+00 -0.00000000000E+00 -0.45593999997E+02  0.45594000000E+02  0.51100000000E-03 0.  1.
    9900012    2    1    2    0    0 -0.85668659127E+00  0.22087638951E+00 -0.78123677266E+00  0.90007733424E+02  0.89999994705E+02 0.  0.
         12    1    1    2    0    0  0.85668659127E+00 -0.22087638951E+00  0.78123677266E+00  0.11802665758E+01  0.00000000000E+00 0. -1.
         11    1    3    3    0    0  0.79859672478E+01 -0.42540872651E+01 -0.61101825897E+01  0.10918207860E+02  0.51100000000E-03 0. -1.
        -11    1    3    3    0    0 -0.33539299564E+02  0.28770964531E+02  0.12553410525E+01  0.44206661226E+02  0.51100000000E-03 0.  1.
         12    1    3    3    0    0  0.24696645725E+02 -0.24296000876E+02  0.40736047645E+01  0.34882864338E+02  0.00000000000E+00 0. -1.
</event>
<event>
 7    1  0.2284751E-015  0.9000775E+02  0.7816164E-02  0.1186339E+00
        -11   -1    0    0    0    0  0.00000000000E+00  0.00000000000E+00  0.45593999997E+02  0.45594000000E+02  0.51100000000E-03 0. -1.
         11   -1    0    0    0    0 -0.00000000000E+00 -0.00000000000E+00 -0.45593999997E+02  0.45594000000E+02  0.51100000000E-03 0.  1.
    9900012    2    1    2    0    0  0.29689514347E+00  0.11096712751E+01  0.27103900153E+00  0.90007754599E+02  0.90000016160E+02 0.  0.
         12    1    1    2    0    0 -0.29689514347E+00 -0.11096712751E+01 -0.27103900153E+00  0.11802454005E+01  0.00000000000E+00 0. -1.
         11    1    3    3    0    0  0.34791202675E+02  0.11577835808E+02 -0.11845822239E+02  0.38533071126E+02  0.51100000000E-03 0. -1.
        -11    1    3    3    0    0  0.32454758023E+01  0.73268990477E+01  0.40441069696E+01  0.89761553174E+01  0.51100000000E-03 0.  1.
        -12    1    3    3    0    0 -0.37739783334E+02 -0.17795063581E+02  0.80727542708E+01  0.42498528156E+02  0.00000000000E+00 0.  1.
</event>
<event>
 7    1  0.2284751E-015  0.9000773E+02  0.7816164E-02  0.1186339E+00
        -11   -1    0    0    0    0  0.00000000000E+00  0.00000000000E+00  0.45593999997E+02  0.45594000000E+02  0.51100000000E-03 0.  1.
         11   -1    0    0    0    0 -0.00000000000E+00 -0.00000000000E+00 -0.45593999997E+02  0.45594000000E+02  0.51100000000E-03 0. -1.
    9900012    2    1    2    0    0 -0.69048048351E-01  0.11563519133E+01 -0.22607513721E+00  0.90007734204E+02  0.89999995496E+02 0.  0.
         12    1    1    2    0    0  0.69048048351E-01 -0.11563519133E+01  0.22607513721E+00  0.11802657955E+01  0.00000000000E+00 0. -1.
         11    1    3    3    0    0 -0.95551731994E+01 -0.10595991689E+01 -0.10222515178E+01  0.96679410267E+01  0.51100000000E-03 0. -1.
        -11    1    3    3    0    0  0.66039143623E+01  0.40119248833E+02  0.85399674829E+01  0.41546321819E+02  0.51100000000E-03 0.  1.
         12    1    3    3    0    0  0.28822107887E+01 -0.37903297751E+02 -0.77437911023E+01  0.38793471359E+02  0.00000000000E+00 0. -1.
</event>
<event>
 7    1  0.2284751E-015  0.9000752E+02  0.7816164E-02  0.1186339E+00
        -11   -1    0    0    0    0  0.00000000000E+00  0.00000000000E+00  0.45593999997E+02  0.45594000000E+02  0.51100000000E-03 0. -1.
         11   -1    0    0    0    0 -0.00000000000E+00 -0.00000000000E+00 -0.45593999997E+02  0.45594000000E+02  0.51100000000E-03 0.  1.
    9900012    2    1    2    0    0  0.26478892846E+00  0.97526485373E+00 -0.61014283600E+00  0.90007521711E+02  0.89999780197E+02 0.  0.
         12    1    1    2    0    0 -0.26478892846E+00 -0.97526485373E+00  0.61014283600E+00  0.11804782895E+01  0.00000000000E+00 0. -1.
         11    1    3    3    0    0  0.13495511126E+01 -0.70542460788E+01  0.59440884829E+01  0.93228678045E+01  0.51100000000E-03 0. -1.
        -11    1    3    3    0    0  0.62154968746E+01 -0.35504884116E+02 -0.59877547549E+01  0.36538779464E+02  0.51100000000E-03 0.  1.
         12    1    3    3    0    0 -0.73002590587E+01  0.43534395048E+02 -0.56647656404E+00  0.44145874442E+02  0.00000000000E+00 0. -1.
</event>
<event>
 7    1  0.2284751E-015  0.9000776E+02  0.7816164E-02  0.1186339E+00
        -11   -1    0    0    0    0  0.00000000000E+00  0.00000000000E+00  0.45593999997E+02  0.45594000000E+02  0.51100000000E-03 0.  1.
         11   -1    0    0    0    0 -0.00000000000E+00 -0.00000000000E+00 -0.45593999997E+02  0.45594000000E+02  0.51100000000E-03 0. -1.
    9900012    2    1    2    0    0  0.82823889855E+00  0.83345352805E+00  0.11114377379E+00  0.90007755366E+02  0.90000016937E+02 0.  0.
         12    1    1    2    0    0 -0.82823889855E+00 -0.83345352805E+00 -0.11114377379E+00  0.11802446335E+01  0.00000000000E+00 0. -1.
         11    1    3    3    0    0 -0.32531477313E+01 -0.61618734694E+01 -0.58922348806E+01  0.91252444879E+01  0.51100000000E-03 0. -1.
        -11    1    3    3    0    0 -0.56348924361E+01  0.40333220799E+02 -0.11048094546E+02  0.42196932425E+02  0.51100000000E-03 0.  1.
         12    1    3    3    0    0  0.97162790660E+01 -0.33337893801E+02  0.17051473200E+02  0.38685578453E+02  0.00000000000E+00 0. -1.
</event>
<event>
 7    1  0.2284751E-015  0.9000773E+02  0.7816164E-02  0.1186339E+00
        -11   -1    0    0    0    0  0.00000000000E+00  0.00000000000E+00  0.45593999997E+02  0.45594000000E+02  0.51100000000E-03 0.  1.
         11   -1    0    0    0    0 -0.00000000000E+00 -0.00000000000E+00 -0.45593999997E+02  0.45594000000E+02  0.51100000000E-03 0. -1.
    9900012    2    1    2    0    0  0.72398934187E+00 -0.66914247118E+00  0.64894342236E+00  0.90007728938E+02  0.89999990160E+02 0.  0.
         12    1    1    2    0    0 -0.72398934187E+00  0.66914247118E+00 -0.64894342236E+00  0.11802710618E+01  0.00000000000E+00 0. -1.
         11    1    3    3    0    0  0.17142478031E+02  0.22880994312E+02 -0.87028166872E+00  0.28603528527E+02  0.51100000000E-03 0. -1.
        -11    1    3    3    0    0  0.59861530922E+00  0.11573582097E+02  0.16016677651E+02  0.19769676429E+02  0.51100000000E-03 0.  1.
        -12    1    3    3    0    0 -0.17017103998E+02 -0.35123718881E+02 -0.14497452560E+02  0.41634523982E+02  0.00000000000E+00 0.  1.
</event>
<event>
 7    1  0.3220323E-015  0.9000744E+02  0.7816164E-02  0.1186340E+00
        -11   -1    0    0    0    0  0.00000000000E+00  0.00000000000E+00  0.45593999997E+02  0.45594000000E+02  0.51100000000E-03 0. -1.
         11   -1    0    0    0    0 -0.00000000000E+00 -0.00000000000E+00 -0.45593999997E+02  0.45594000000E+02  0.51100000000E-03 0.  1.
    9900012    2    1    2    0    0  0.64337844780E+00 -0.94374147297E+00 -0.29856399057E+00  0.90007439010E+02  0.89999696404E+02 0.  0.
         12    1    1    2    0    0 -0.64337844780E+00  0.94374147297E+00  0.29856399057E+00  0.11805609901E+01  0.00000000000E+00 0. -1.
         11    1    3    3    0    0  0.15123878992E+02  0.29717996338E+02  0.16688562361E+02  0.37288056212E+02  0.51100000000E-03 0. -1.
        -11    1    3    3    0    0  0.37637454122E+01  0.67477742026E+01 -0.56800709786E+01  0.95896529030E+01  0.51100000000E-03 0.  1.
        -12    1    3    3    0    0 -0.18244245957E+02 -0.37409512013E+02 -0.11307055373E+02  0.43129729895E+02  0.00000000000E+00 0.  1.
</event>
<event>
 7    1  0.2284751E-015  0.9000767E+02  0.7816164E-02  0.1186339E+00
        -11   -1    0    0    0    0  0.00000000000E+00  0.00000000000E+00  0.45593999997E+02  0.45594000000E+02  0.51100000000E-03 0.  1.
         11   -1    0    0    0    0 -0.00000000000E+00 -0.00000000000E+00 -0.45593999997E+02  0.45594000000E+02  0.51100000000E-03 0. -1.
    9900012    2    1    2    0    0  0.14595559124E+00  0.65916028045E+00  0.96818809834E+00  0.90007668054E+02  0.89999928472E+02 0.  0.
         12    1    1    2    0    0 -0.14595559124E+00 -0.65916028045E+00 -0.96818809834E+00  0.11803319464E+01  0.00000000000E+00 0. -1.
         11    1    3    3    0    0  0.28542414230E+01  0.12216227822E+01  0.81492778882E+01  0.87206528817E+01  0.51100000000E-03 0. -1.
        -11    1    3    3    0    0  0.30755533320E+02 -0.28690739344E+01 -0.28097700593E+02  0.41756618564E+02  0.51100000000E-03 0.  1.
         12    1    3    3    0    0 -0.33463819152E+02  0.23066114327E+01  0.20916610803E+02  0.39530396608E+02  0.00000000000E+00 0. -1.
</event>
<event>
 7    1  0.2795565E-015  0.9000770E+02  0.7816164E-02  0.1186339E+00
        -11   -1    0    0    0    0  0.00000000000E+00  0.00000000000E+00  0.45593999997E+02  0.45594000000E+02  0.51100000000E-03 0. -1.
         11   -1    0    0    0    0 -0.00000000000E+00 -0.00000000000E+00 -0.45593999997E+02  0.45594000000E+02  0.51100000000E-03 0.  1.
    9900012    2    1    2    0    0  0.46639074852E+00 -0.65694381520E+00 -0.86256361626E+00  0.90007698556E+02  0.89999959377E+02 0.  0.
         12    1    1    2    0    0 -0.46639074852E+00  0.65694381520E+00  0.86256361626E+00  0.11803014440E+01  0.00000000000E+00 0. -1.
         11    1    3    3    0    0 -0.20975430797E+02  0.15830606799E+02  0.25697975385E+02  0.36755445146E+02  0.51100000000E-03 0. -1.
        -11    1    3    3    0    0 -0.50435271884E+01 -0.36334179386E+01  0.64931331554E+01  0.89888637130E+01  0.51100000000E-03 0.  1.
        -12    1    3    3    0    0  0.26485348734E+02 -0.12854132675E+02 -0.33053672157E+02  0.44263389697E+02  0.00000000000E+00 0.  1.
</event>
<event>
 7    1  0.2284751E-015  0.9000777E+02  0.7816164E-02  0.1186339E+00
        -11   -1    0    0    0    0  0.00000000000E+00  0.00000000000E+00  0.45593999997E+02  0.45594000000E+02  0.51100000000E-03 0. -1.
         11   -1    0    0    0    0 -0.00000000000E+00 -0.00000000000E+00 -0.45593999997E+02  0.45594000000E+02  0.51100000000E-03 0.  1.
    9900012    2    1    2    0    0 -0.91642663661E+00 -0.53267589006E+00  0.51900491837E+00  0.90007768036E+02  0.90000029774E+02 0.  0.
         12    1    1    2    0    0  0.91642663661E+00  0.53267589006E+00 -0.51900491837E+00  0.11802319642E+01  0.00000000000E+00 0. -1.
         11    1    3    3    0    0 -0.98351446940E+01 -0.42480221862E+01  0.12093997414E+01  0.10781391916E+02  0.51100000000E-03 0. -1.
        -11    1    3    3    0    0 -0.66983954375E+00  0.39646084394E+02  0.92833964429E+01  0.40723975034E+02  0.51100000000E-03 0.  1.
         12    1    3    3    0    0  0.95885576011E+01 -0.35930738098E+02 -0.99737912660E+01  0.38502401086E+02  0.00000000000E+00 0. -1.
</event>
<event>
 7    1  0.2284751E-015  0.9000755E+02  0.7816164E-02  0.1186339E+00
        -11   -1    0    0    0    0  0.00000000000E+00  0.00000000000E+00  0.45593999997E+02  0.45594000000E+02  0.51100000000E-03 0.  1.
         11   -1    0    0    0    0 -0.00000000000E+00 -0.00000000000E+00 -0.45593999997E+02  0.45594000000E+02  0.51100000000E-03 0. -1.
    9900012    2    1    2    0    0 -0.75278958163E+00 -0.11308442038E+00  0.90221434419E+00  0.90007546289E+02  0.89999805100E+02 0.  0.
         12    1    1    2    0    0  0.75278958163E+00  0.11308442038E+00 -0.90221434419E+00  0.11804537107E+01  0.00000000000E+00 0. -1.
         11    1    3    3    0    0 -0.10408094396E+02 -0.20798868113E+02  0.28990397686E+02  0.37166712284E+02  0.51100000000E-03 0. -1.
        -11    1    3    3    0    0 -0.92283856195E+01 -0.25483641533E+01  0.26471660690E+01  0.99330131107E+01  0.51100000000E-03 0.  1.
        -12    1    3    3    0    0  0.18883690434E+02  0.23234147846E+02 -0.30735349411E+02  0.42907820895E+02  0.00000000000E+00 0.  1.
</event>
<event>
 7    1  0.2284751E-015  0.9000750E+02  0.7816164E-02  0.1186340E+00
        -11   -1    0    0    0    0  0.00000000000E+00  0.00000000000E+00  0.45593999997E+02  0.45594000000E+02  0.51100000000E-03 0.  1.
         11   -1    0    0    0    0 -0.00000000000E+00 -0.00000000000E+00 -0.45593999997E+02  0.45594000000E+02  0.51100000000E-03 0. -1.
    9900012    2    1    2    0    0 -0.14486518953E+00 -0.50915553240E+00  0.10551606829E+01  0.90007496147E+02  0.89999754296E+02 0.  0.
         12    1    1    2    0    0  0.14486518953E+00  0.50915553240E+00 -0.10551606829E+01  0.11805038526E+01  0.00000000000E+00 0. -1.
         11    1    3    3    0    0 -0.30082790563E+01  0.42435320268E+01 -0.83177132510E+01  0.98102834277E+01  0.51100000000E-03 0. -1.
        -11    1    3    3    0    0 -0.14411967383E+02 -0.35614237502E+02 -0.10232492109E+02  0.39759056977E+02  0.51100000000E-03 0.  1.
         12    1    3    3    0    0  0.17275381250E+02  0.30861549942E+02  0.19605366043E+02  0.40438155743E+02  0.00000000000E+00 0. -1.
</event>
<event>
 7    1  0.2284751E-015  0.9000772E+02  0.7816164E-02  0.1186339E+00
        -11   -1    0    0    0    0  0.00000000000E+00  0.00000000000E+00  0.45593999997E+02  0.45594000000E+02  0.51100000000E-03 0. -1.
         11   -1    0    0    0    0 -0.00000000000E+00 -0.00000000000E+00 -0.45593999997E+02  0.45594000000E+02  0.51100000000E-03 0.  1.
    9900012    2    1    2    0    0 -0.25276056671E+00  0.11160859535E+01 -0.28902006672E+00  0.90007716831E+02  0.89999977893E+02 0.  0.
         12    1    1    2    0    0  0.25276056671E+00 -0.11160859535E+01  0.28902006672E+00  0.11802831688E+01  0.00000000000E+00 0. -1.
         11    1    3    3    0    0  0.29777883016E+01  0.22138610841E+01 -0.82298153377E+01  0.90276389396E+01  0.51100000000E-03 0. -1.
        -11    1    3    3    0    0 -0.26970314258E+02 -0.29266615029E+02 -0.84077227900E+01  0.40677050154E+02  0.51100000000E-03 0.  1.
         12    1    3    3    0    0  0.23739765390E+02  0.28168839899E+02  0.16348518061E+02  0.40303027737E+02  0.00000000000E+00 0. -1.
</event>
<event>
 7    1  0.2284751E-015  0.9000712E+02  0.7816164E-02  0.1186340E+00
        -11   -1    0    0    0    0  0.00000000000E+00  0.00000000000E+00  0.45593999997E+02  0.45594000000E+02  0.51100000000E-03 0. -1.
         11   -1    0    0    0    0 -0.00000000000E+00 -0.00000000000E+00 -0.45593999997E+02  0.45594000000E+02  0.51100000000E-03 0.  1.
    9900012    2    1    2    0    0  0.54012870548E-01  0.11398702448E+01 -0.30373106562E+00  0.90007121460E+02  0.89999374661E+02 0.  0.
         12    1    1    2    0    0 -0.54012870548E-01 -0.11398702448E+01  0.30373106562E+00  0.11808785397E+01  0.00000000000E+00 0. -1.
         11    1    3    3    0    0 -0.70377714535E+01 -0.14813794762E+01 -0.85753180362E+01  0.11191996778E+02  0.51100000000E-03 0. -1.
        -11    1    3    3    0    0  0.33658321305E+02  0.72428880988E+01 -0.19942292658E+02  0.39787398229E+02  0.51100000000E-03 0.  1.
         12    1    3    3    0    0 -0.26566536981E+02 -0.46216383778E+01  0.28213879629E+02  0.39027726454E+02  0.00000000000E+00 0. -1.
</event>
<event>
 7    1  0.2284751E-015  0.9000776E+02  0.7816164E-02  0.1186339E+00
        -11   -1    0    0    0    0  0.00000000000E+00  0.00000000000E+00  0.45593999997E+02  0.45594000000E+02  0.51100000000E-03 0. -1.
         11   -1    0    0    0    0 -0.00000000000E+00 -0.00000000000E+00 -0.45593999997E+02  0.45594000000E+02  0.51100000000E-03 0.  1.
    9900012    2    1    2    0    0  0.44573028387E+00  0.21882060431E+00 -0.10707057721E+01  0.90007759011E+02  0.90000020629E+02 0.  0.
         12    1    1    2    0    0 -0.44573028387E+00 -0.21882060431E+00  0.10707057721E+01  0.11802409894E+01  0.00000000000E+00 0. -1.
         11    1    3    3    0    0 -0.37293634284E+02  0.11133804706E+02 -0.18780253738E+02  0.43214288101E+02  0.51100000000E-03 0. -1.
        -11    1    3    3    0    0  0.12967025914E+02  0.11824103897E+01 -0.16236978099E+01  0.13121671015E+02  0.51100000000E-03 0.  1.
        -12    1    3    3    0    0  0.24772338654E+02 -0.12097394492E+02  0.19333245776E+02  0.33671799894E+02  0.00000000000E+00 0.  1.
</event>
<event>
 7    1  0.2284751E-015  0.9000775E+02  0.7816164E-02  0.1186339E+00
        -11   -1    0    0    0    0  0.00000000000E+00  0.00000000000E+00  0.45593999997E+02  0.45594000000E+02  0.51100000000E-03 0.  1.
         11   -1    0    0    0    0 -0.00000000000E+00 -0.00000000000E+00 -0.45593999997E+02  0.45594000000E+02  0.51100000000E-03 0. -1.
    9900012    2    1    2    0    0 -0.11408801929E+01 -0.23149828075E+00 -0.19441290308E+00  0.90007747720E+02  0.90000009189E+02 0.  0.
         12    1    1    2    0    0  0.11408801929E+01  0.23149828075E+00  0.19441290308E+00  0.11802522804E+01  0.00000000000E+00 0. -1.
         11    1    3    3    0    0 -0.19972005391E+02  0.12332156340E+02 -0.29861322672E+02  0.37982386330E+02  0.51100000000E-03 0. -1.
        -11    1    3    3    0    0  0.39077972755E+01  0.93451848327E+00 -0.82070331232E+01  0.91378114058E+01  0.51100000000E-03 0.  1.
        -12    1    3    3    0    0  0.14923327923E+02 -0.13498173104E+02  0.37873942892E+02  0.42887549984E+02  0.00000000000E+00 0.  1.
</event>
<event>
 7    1  0.2284751E-015  0.9000773E+02  0.7816164E-02  0.1186339E+00
        -11   -1    0    0    0    0  0.00000000000E+00  0.00000000000E+00  0.45593999997E+02  0.45594000000E+02  0.51100000000E-03 0. -1.
         11   -1    0    0    0    0 -0.00000000000E+00 -0.00000000000E+00 -0.45593999997E+02  0.45594000000E+02  0.51100000000E-03 0.  1.
    9900012    2    1    2    0    0 -0.11744348958E+00  0.10374352635E+01  0.55043892070E+00  0.90007725496E+02  0.89999986673E+02 0.  0.
         12    1    1    2    0    0  0.11744348958E+00 -0.10374352635E+01 -0.55043892070E+00  0.11802745039E+01  0.00000000000E+00 0. -1.
         11    1    3    3    0    0  0.73647920019E+01 -0.68139207252E+00  0.64719275726E+01  0.98280365869E+01  0.51100000000E-03 0. -1.
        -11    1    3    3    0    0  0.69267235942E+01  0.39150515086E+02 -0.10152063805E+01  0.39771509595E+02  0.51100000000E-03 0.  1.
         12    1    3    3    0    0 -0.14408959086E+02 -0.37431687750E+02 -0.49062822714E+01  0.40408179314E+02  0.00000000000E+00 0. -1.
</event>
<event>
 7    1  0.2284751E-015  0.9000801E+02  0.7816164E-02  0.1186339E+00
        -11   -1    0    0    0    0  0.00000000000E+00  0.00000000000E+00  0.45593999997E+02  0.45594000000E+02  0.51100000000E-03 0.  1.
         11   -1    0    0    0    0 -0.00000000000E+00 -0.00000000000E+00 -0.45593999997E+02  0.45594000000E+02  0.51100000000E-03 0. -1.
    9900012    2    1    2    0    0  0.23052141107E+00  0.10628938746E+00  0.11523640478E+01  0.90008008282E+02  0.90000273191E+02 0.  0.
         12    1    1    2    0    0 -0.23052141107E+00 -0.10628938746E+00 -0.11523640478E+01  0.11799917176E+01  0.00000000000E+00 0. -1.
         11    1    3    3    0    0  0.25729556395E+01  0.14161011463E+01 -0.93777508701E+01  0.98268842887E+01  0.51100000000E-03 0. -1.
        -11    1    3    3    0    0  0.34188453903E+02  0.14069351146E+02 -0.55935512413E+01  0.37390972677E+02  0.51100000000E-03 0.  1.
         12    1    3    3    0    0 -0.36530888131E+02 -0.15379162905E+02  0.16123666159E+02  0.42790151317E+02  0.00000000000E+00 0. -1.
</event>
<event>
 7    1  0.2284751E-015  0.9000774E+02  0.7816164E-02  0.1186339E+00
        -11   -1    0    0    0    0  0.00000000000E+00  0.00000000000E+00  0.45593999997E+02  0.45594000000E+02  0.51100000000E-03 0.  1.
         11   -1    0    0    0    0 -0.00000000000E+00 -0.00000000000E+00 -0.45593999997E+02  0.45594000000E+02  0.51100000000E-03 0. -1.
    9900012    2    1    2    0    0 -0.56690374892E+00 -0.15346072857E+00 -0.10237587831E+01  0.90007740663E+02  0.90000002040E+02 0.  0.
         12    1    1    2    0    0  0.56690374892E+00  0.15346072857E+00  0.10237587831E+01  0.11802593366E+01  0.00000000000E+00 0. -1.
         11    1    3    3    0    0 -0.40767816270E+01  0.10628267614E+01  0.78590048876E+01  0.89170458810E+01  0.51100000000E-03 0. -1.
        -11    1    3    3    0    0  0.41132909715E+01 -0.35759639189E+02  0.15099446158E+02  0.39034141877E+02  0.51100000000E-03 0.  1.
         12    1    3    3    0    0 -0.60341309347E+00  0.34543351699E+02 -0.23982209829E+02  0.42056552905E+02  0.00000000000E+00 0. -1.
</event>
<event>
 7    1  0.2284751E-015  0.9000774E+02  0.7816164E-02  0.1186339E+00
        -11   -1    0    0    0    0  0.00000000000E+00  0.00000000000E+00  0.45593999997E+02  0.45594000000E+02  0.51100000000E-03 0.  1.
         11   -1    0    0    0    0 -0.00000000000E+00 -0.00000000000E+00 -0.45593999997E+02  0.45594000000E+02  0.51100000000E-03 0. -1.
    9900012    2    1    2    0    0  0.10876852291E+01 -0.36976145502E+00  0.27063057497E+00  0.90007735793E+02  0.89999997105E+02 0.  0.
         12    1    1    2    0    0 -0.10876852291E+01  0.36976145502E+00 -0.27063057497E+00  0.11802642075E+01  0.00000000000E+00 0. -1.
         11    1    3    3    0    0 -0.32874105555E+02  0.12762240295E+01 -0.16018243524E+02  0.36591251546E+02  0.51100000000E-03 0. -1.
        -11    1    3    3    0    0 -0.32699223271E+01  0.17082049988E+01 -0.80182627298E+01  0.88262615987E+01  0.51100000000E-03 0.  1.
        -12    1    3    3    0    0  0.37231713112E+02 -0.33541904833E+01  0.24307136828E+02  0.44590222648E+02  0.00000000000E+00 0.  1.
</event>
<event>
 7    1  0.2870437E-015  0.9000771E+02  0.7816164E-02  0.1186339E+00
        -11   -1    0    0    0    0  0.00000000000E+00  0.00000000000E+00  0.45593999997E+02  0.45594000000E+02  0.51100000000E-03 0.  1.
         11   -1    0    0    0    0 -0.00000000000E+00 -0.00000000000E+00 -0.45593999997E+02  0.45594000000E+02  0.51100000000E-03 0. -1.
    9900012    2    1    2    0    0  0.26348787415E+00  0.11312428064E+01 -0.20966504738E+00  0.90007705300E+02  0.89999966210E+02 0.  0.
         12    1    1    2    0    0 -0.26348787415E+00 -0.11312428064E+01  0.20966504738E+00  0.11802947001E+01  0.00000000000E+00 0. -1.
         11    1    3    3    0    0  0.12413256615E+02  0.23234155211E+02 -0.31832188803E+02  0.41318314976E+02  0.51100000000E-03 0. -1.
        -11    1    3    3    0    0 -0.84857350543E+01 -0.37325014672E+01 -0.26413478354E+01  0.96392938156E+01  0.51100000000E-03 0.  1.
        -12    1    3    3    0    0 -0.36640336867E+01 -0.18370410938E+02  0.34263871591E+02  0.39050096508E+02  0.00000000000E+00 0.  1.
</event>
<event>
 7    1  0.2284751E-015  0.9000771E+02  0.7816164E-02  0.1186339E+00
        -11   -1    0    0    0    0  0.00000000000E+00  0.00000000000E+00  0.45593999997E+02  0.45594000000E+02  0.51100000000E-03 0. -1.
         11   -1    0    0    0    0 -0.00000000000E+00 -0.00000000000E+00 -0.45593999997E+02  0.45594000000E+02  0.51100000000E-03 0.  1.
    9900012    2    1    2    0    0  0.25858541341E+00  0.11143810757E+01 -0.29047134727E+00  0.90007709696E+02  0.89999970664E+02 0.  0.
         12    1    1    2    0    0 -0.25858541341E+00 -0.11143810757E+01  0.29047134727E+00  0.11802903039E+01  0.00000000000E+00 0. -1.
         11    1    3    3    0    0 -0.22394874135E+02  0.81086899159E+01  0.24574314394E+02  0.34222480446E+02  0.51100000000E-03 0. -1.
        -11    1    3    3    0    0  0.12123914681E+02  0.17220948523E+02 -0.25516761244E+01  0.21214651224E+02  0.51100000000E-03 0.  1.
        -12    1    3    3    0    0  0.10529544867E+02 -0.24215257364E+02 -0.22313109617E+02  0.34570578026E+02  0.00000000000E+00 0.  1.
</event>
<event>
 7    1  0.2284751E-015  0.9000784E+02  0.7816164E-02  0.1186339E+00
        -11   -1    0    0    0    0  0.00000000000E+00  0.00000000000E+00  0.45593999997E+02  0.45594000000E+02  0.51100000000E-03 0. -1.
         11   -1    0    0    0    0 -0.00000000000E+00 -0.00000000000E+00 -0.45593999997E+02  0.45594000000E+02  0.51100000000E-03 0.  1.
    9900012    2    1    2    0    0  0.55651614050E+00  0.89981364858E+00  0.52288555096E+00  0.90007837250E+02  0.90000099902E+02 0.  0.
         12    1    1    2    0    0 -0.55651614050E+00 -0.89981364858E+00 -0.52288555096E+00  0.11801627499E+01  0.00000000000E+00 0. -1.
         11    1    3    3    0    0 -0.43462457087E+01 -0.94885333613E+01 -0.63346234275E-01  0.10436768183E+02  0.51100000000E-03 0. -1.
        -11    1    3    3    0    0 -0.12335987068E+02  0.20308262400E+02 -0.32924052593E+02  0.40602898149E+02  0.51100000000E-03 0.  1.
         12    1    3    3    0    0  0.17238748918E+02 -0.99199153900E+01  0.33510284378E+02  0.38968170918E+02  0.00000000000E+00 0. -1.
</event>
<event>
 7    1  0.2284751E-015  0.9000769E+02  0.7816164E-02  0.1186339E+00
        -11   -1    0    0    0    0  0.00000000000E+00  0.00000000000E+00  0.45593999997E+02  0.45594000000E+02  0.51100000000E-03 0.  1.
         11   -1    0    0    0    0 -0.00000000000E+00 -0.00000000000E+00 -0.45593999997E+02  0.45594000000E+02  0.51100000000E-03 0. -1.
    9900012    2    1    2    0    0 -0.11285980927E+01 -0.23939020175E+00  0.24918098130E+00  0.90007689666E+02  0.89999950369E+02 0.  0.
         12    1    1    2    0    0  0.11285980927E+01  0.23939020175E+00 -0.24918098130E+00  0.11803103342E+01  0.00000000000E+00 0. -1.
         11    1    3    3    0    0  0.98467132720E+01 -0.17128771676E+01 -0.38130573815E+01  0.10697248118E+02  0.51100000000E-03 0. -1.
        -11    1    3    3    0    0  0.29743832029E+02 -0.46648670187E+01  0.18890241148E+02  0.35542899979E+02  0.51100000000E-03 0.  1.
         12    1    3    3    0    0 -0.40719143393E+02  0.61383539845E+01 -0.14828002785E+02  0.43767541568E+02  0.00000000000E+00 0. -1.
</event>
<event>
 7    1  0.2284751E-015  0.9000776E+02  0.7816164E-02  0.1186339E+00
        -11   -1    0    0    0    0  0.00000000000E+00  0.00000000000E+00  0.45593999997E+02  0.45594000000E+02  0.51100000000E-03 0.  1.
         11   -1    0    0    0    0 -0.00000000000E+00 -0.00000000000E+00 -0.45593999997E+02  0.45594000000E+02  0.51100000000E-03 0. -1.
    9900012    2    1    2    0    0  0.98712900472E+00  0.64001814705E+00  0.94463457276E-01  0.90007758395E+02  0.90000020006E+02 0.  0.
         12    1    1    2    0    0 -0.98712900472E+00 -0.64001814705E+00 -0.94463457276E-01  0.11802416046E+01  0.00000000000E+00 0. -1.
         11    1    3    3    0    0  0.38955315787E+01  0.25716024772E+02  0.25659682965E+02  0.36536398652E+02  0.51100000000E-03 0. -1.
        -11    1    3    3    0    0  0.68975715477E+01 -0.15704670610E+00  0.79795068229E+01  0.10548634334E+02  0.51100000000E-03 0.  1.
        -12    1    3    3    0    0 -0.98059741216E+01 -0.24918959919E+02 -0.33544726330E+02  0.42922725409E+02  0.00000000000E+00 0.  1.
</event>
<event>
 7    1  0.2284751E-015  0.9000755E+02  0.7816164E-02  0.1186339E+00
        -11   -1    0    0    0    0  0.00000000000E+00  0.00000000000E+00  0.45593999997E+02  0.45594000000E+02  0.51100000000E-03 0.  1.
         11   -1    0    0    0    0 -0.00000000000E+00 -0.00000000000E+00 -0.45593999997E+02  0.45594000000E+02  0.51100000000E-03 0. -1.
    9900012    2    1    2    0    0  0.29569353063E+00 -0.96948172399E+00  0.60509384189E+00  0.90007547530E+02  0.89999806357E+02 0.  0.
         12    1    1    2    0    0 -0.29569353063E+00  0.96948172399E+00 -0.60509384189E+00  0.11804524703E+01  0.00000000000E+00 0. -1.
         11    1    3    3    0    0  0.22109466645E+01 -0.70219952970E+01  0.33402671835E+00  0.73694149845E+01  0.51100000000E-03 0. -1.
        -11    1    3    3    0    0 -0.41884304029E+02  0.54874771468E+01 -0.40315472407E+01  0.42434192614E+02  0.51100000000E-03 0.  1.
         12    1    3    3    0    0  0.39969050895E+02  0.56503642621E+00  0.43026143642E+01  0.40203939931E+02  0.00000000000E+00 0. -1.
</event>
<event>
 7    1  0.2284751E-015  0.9000765E+02  0.7816164E-02  0.1186339E+00
        -11   -1    0    0    0    0  0.00000000000E+00  0.00000000000E+00  0.45593999997E+02  0.45594000000E+02  0.51100000000E-03 0. -1.
         11   -1    0    0    0    0 -0.00000000000E+00 -0.00000000000E+00 -0.45593999997E+02  0.45594000000E+02  0.51100000000E-03 0.  1.
    9900012    2    1    2    0    0  0.10197241879E+01 -0.33010580951E+00 -0.49439572409E+00  0.90007646495E+02  0.89999906629E+02 0.  0.
         12    1    1    2    0    0 -0.10197241879E+01  0.33010580951E+00  0.49439572409E+00  0.11803535051E+01  0.00000000000E+00 0. -1.
         11    1    3    3    0    0 -0.67603581566E+01  0.62028118777E+01  0.46952730668E+01  0.10306449778E+02  0.51100000000E-03 0. -1.
        -11    1    3    3    0    0  0.18530268081E+02  0.32194503166E+02  0.67903242918E+01  0.37761956696E+02  0.51100000000E-03 0.  1.
         12    1    3    3    0    0 -0.10750185736E+02 -0.38727420853E+02 -0.11979993083E+02  0.41939240021E+02  0.00000000000E+00 0. -1.
</event>
<event>
 7    1  0.2284751E-015  0.9000773E+02  0.7816164E-02  0.1186339E+00
        -11   -1    0    0    0    0  0.00000000000E+00  0.00000000000E+00  0.45593999997E+02  0.45594000000E+02  0.51100000000E-03 0.  1.
         11   -1    0    0    0    0 -0.00000000000E+00 -0.00000000000E+00 -0.45593999997E+02  0.45594000000E+02  0.51100000000E-03 0. -1.
    9900012    2    1    2    0    0  0.58960063804E-01  0.11003363187E+01  0.42287543912E+00  0.90007728870E+02  0.89999990091E+02 0.  0.
         12    1    1    2    0    0 -0.58960063804E-01 -0.11003363187E+01 -0.42287543912E+00  0.11802711301E+01  0.00000000000E+00 0. -1.
         11    1    3    3    0    0  0.88189271914E+00  0.87193721072E+01 -0.45705997731E+01  0.98841068012E+01  0.51100000000E-03 0. -1.
        -11    1    3    3    0    0  0.21800604848E+02  0.26183670254E+02  0.16494608609E+02  0.37853970375E+02  0.51100000000E-03 0.  1.
         12    1    3    3    0    0 -0.22623537503E+02 -0.33802706042E+02 -0.11501133397E+02  0.42269651694E+02  0.00000000000E+00 0. -1.
</event>
<event>
 7    1  0.2284751E-015  0.9000771E+02  0.7816164E-02  0.1186339E+00
        -11   -1    0    0    0    0  0.00000000000E+00  0.00000000000E+00  0.45593999997E+02  0.45594000000E+02  0.51100000000E-03 0. -1.
         11   -1    0    0    0    0 -0.00000000000E+00 -0.00000000000E+00 -0.45593999997E+02  0.45594000000E+02  0.51100000000E-03 0.  1.
    9900012    2    1    2    0    0 -0.11081996769E+01  0.85402221563E-01 -0.39710648880E+00  0.90007706127E+02  0.89999967048E+02 0.  0.
         12    1    1    2    0    0  0.11081996769E+01 -0.85402221563E-01  0.39710648880E+00  0.11802938730E+01  0.00000000000E+00 0. -1.
         11    1    3    3    0    0 -0.16348453722E+02  0.12752938913E+02 -0.19122434511E+02  0.28205972628E+02  0.51100000000E-03 0. -1.
        -11    1    3    3    0    0 -0.17979684447E+02 -0.37239241015E+01 -0.61322382240E+01  0.19358228468E+02  0.51100000000E-03 0.  1.
         12    1    3    3    0    0  0.33219938492E+02 -0.89436125896E+01  0.24857566247E+02  0.42443505030E+02  0.00000000000E+00 0. -1.
</event>
<event>
 7    1  0.2284751E-015  0.9000786E+02  0.7816164E-02  0.1186339E+00
        -11   -1    0    0    0    0  0.00000000000E+00  0.00000000000E+00  0.45593999997E+02  0.45594000000E+02  0.51100000000E-03 0. -1.
         11   -1    0    0    0    0 -0.00000000000E+00 -0.00000000000E+00 -0.45593999997E+02  0.45594000000E+02  0.51100000000E-03 0.  1.
    9900012    2    1    2    0    0  0.52023506417E+00  0.96609048309E-01 -0.10548749306E+01  0.90007856386E+02  0.90000119290E+02 0.  0.
         12    1    1    2    0    0 -0.52023506417E+00 -0.96609048309E-01  0.10548749306E+01  0.11801436139E+01  0.00000000000E+00 0. -1.
         11    1    3    3    0    0  0.13843749990E+01  0.53992684342E+01  0.80927856869E+01  0.98265850731E+01  0.51100000000E-03 0. -1.
        -11    1    3    3    0    0 -0.24521153618E+02  0.26248928330E+02 -0.17366444542E+02  0.39898453723E+02  0.51100000000E-03 0.  1.
         12    1    3    3    0    0  0.23657013683E+02 -0.31551587716E+02  0.82187839249E+01  0.40282817590E+02  0.00000000000E+00 0. -1.
</event>
<event>
 7    1  0.2284751E-015  0.9000772E+02  0.7816164E-02  0.1186339E+00
        -11   -1    0    0    0    0  0.00000000000E+00  0.00000000000E+00  0.45593999997E+02  0.45594000000E+02  0.51100000000E-03 0. -1.
         11   -1    0    0    0    0 -0.00000000000E+00 -0.00000000000E+00 -0.45593999997E+02  0.45594000000E+02  0.51100000000E-03 0.  1.
    9900012    2    1    2    0    0  0.10441647384E+01  0.50224571021E+00  0.22477215937E+00  0.90007723220E+02  0.89999984366E+02 0.  0.
         12    1    1    2    0    0 -0.10441647384E+01 -0.50224571021E+00 -0.22477215937E+00  0.11802767803E+01  0.00000000000E+00 0. -1.
         11    1    3    3    0    0 -0.69457283052E+01 -0.30569053193E+01  0.76545999834E+00  0.76271712378E+01  0.51100000000E-03 0. -1.
        -11    1    3    3    0    0  0.19250588469E+02  0.21180691540E+02 -0.33053225184E+02  0.43723249489E+02  0.51100000000E-03 0.  1.
         12    1    3    3    0    0 -0.11260695426E+02 -0.17621540510E+02  0.32512537345E+02  0.38657302493E+02  0.00000000000E+00 0. -1.
</event>
<event>
 7    1  0.2284751E-015  0.9000774E+02  0.7816164E-02  0.1186339E+00
        -11   -1    0    0    0    0  0.00000000000E+00  0.00000000000E+00  0.45593999997E+02  0.45594000000E+02  0.51100000000E-03 0.  1.
         11   -1    0    0    0    0 -0.00000000000E+00 -0.00000000000E+00 -0.45593999997E+02  0.45594000000E+02  0.51100000000E-03 0. -1.
    9900012    2    1    2    0    0 -0.48872414291E-01  0.69211147655E+00  0.95478508889E+00  0.90007736735E+02  0.89999998060E+02 0.  0.
         12    1    1    2    0    0  0.48872414291E-01 -0.69211147655E+00 -0.95478508889E+00  0.11802632651E+01  0.00000000000E+00 0. -1.
         11    1    3    3    0    0  0.39851309553E+01  0.80738432460E+01 -0.37613884789E+01  0.97578817908E+01  0.51100000000E-03 0. -1.
        -11    1    3    3    0    0 -0.21822349605E+02  0.74502588490E+01  0.35129713044E+02  0.42021637736E+02  0.51100000000E-03 0.  1.
         12    1    3    3    0    0  0.17788346235E+02 -0.14831990618E+02 -0.30413539476E+02  0.38228217209E+02  0.00000000000E+00 0. -1.
</event>
<event>
 7    1  0.2284751E-015  0.9000771E+02  0.7816164E-02  0.1186339E+00
        -11   -1    0    0    0    0  0.00000000000E+00  0.00000000000E+00  0.45593999997E+02  0.45594000000E+02  0.51100000000E-03 0.  1.
         11   -1    0    0    0    0 -0.00000000000E+00 -0.00000000000E+00 -0.45593999997E+02  0.45594000000E+02  0.51100000000E-03 0. -1.
    9900012    2    1    2    0    0  0.97701129335E+00  0.53849177642E+00 -0.38542364500E+00  0.90007713659E+02  0.89999974679E+02 0.  0.
         12    1    1    2    0    0 -0.97701129335E+00 -0.53849177642E+00  0.38542364500E+00  0.11802863410E+01  0.00000000000E+00 0. -1.
         11    1    3    3    0    0 -0.53376355076E+00 -0.11505638183E+02  0.13510489249E+01  0.11596980081E+02  0.51100000000E-03 0. -1.
        -11    1    3    3    0    0 -0.63434006039E+01  0.55494648641E+01  0.37210143360E+02  0.38152720226E+02  0.51100000000E-03 0.  1.
         12    1    3    3    0    0  0.78541754480E+01  0.64946650955E+01 -0.38946615930E+02  0.40258013352E+02  0.00000000000E+00 0. -1.
</event>
<event>
 7    1  0.2712345E-015  0.9000781E+02  0.7816164E-02  0.1186339E+00
        -11   -1    0    0    0    0  0.00000000000E+00  0.00000000000E+00  0.45593999997E+02  0.45594000000E+02  0.51100000000E-03 0.  1.
         11   -1    0    0    0    0 -0.00000000000E+00 -0.00000000000E+00 -0.45593999997E+02  0.45594000000E+02  0.51100000000E-03 0. -1.
    9900012    2    1    2    0    0 -0.54730696748E+00 -0.26734727081E+00  0.10108553437E+01  0.90007810182E+02  0.90000072477E+02 0.  0.
         12    1    1    2    0    0  0.54730696748E+00  0.26734727081E+00 -0.10108553437E+01  0.11801898177E+01  0.00000000000E+00 0. -1.
         11    1    3    3    0    0 -0.22950080450E+01 -0.17595936525E+02 -0.32394962132E+02  0.36936670341E+02  0.51100000000E-03 0. -1.
        -11    1    3    3    0    0 -0.45963008574E+01 -0.75417990488E+01 -0.22725422973E+01  0.91197128912E+01  0.51100000000E-03 0.  1.
        -12    1    3    3    0    0  0.63440019350E+01  0.24870388303E+02  0.35678359773E+02  0.43951426950E+02  0.00000000000E+00 0.  1.
</event>
<event>
 7    1  0.2284751E-015  0.9000710E+02  0.7816164E-02  0.1186340E+00
        -11   -1    0    0    0    0  0.00000000000E+00  0.00000000000E+00  0.45593999997E+02  0.45594000000E+02  0.51100000000E-03 0. -1.
         11   -1    0    0    0    0 -0.00000000000E+00 -0.00000000000E+00 -0.45593999997E+02  0.45594000000E+02  0.51100000000E-03 0.  1.
    9900012    2    1    2    0    0 -0.10720202692E+01 -0.31659782261E+00 -0.38086355779E+00  0.90007102592E+02  0.89999355544E+02 0.  0.
         12    1    1    2    0    0  0.10720202692E+01  0.31659782261E+00  0.38086355779E+00  0.11808974081E+01  0.00000000000E+00 0. -1.
         11    1    3    3    0    0  0.40289443759E+01  0.85621440317E+01 -0.23389565352E+01  0.97474828103E+01  0.51100000000E-03 0. -1.
        -11    1    3    3    0    0  0.23150339914E+02 -0.14694822133E+02 -0.27638372131E+02  0.38932706686E+02  0.51100000000E-03 0.  1.
         12    1    3    3    0    0 -0.28251304559E+02  0.58160802786E+01  0.29596465108E+02  0.41326913095E+02  0.00000000000E+00 0. -1.
</event>
<event>
 7    1  0.2284751E-015  0.9000780E+02  0.7816164E-02  0.1186339E+00
        -11   -1    0    0    0    0  0.00000000000E+00  0.00000000000E+00  0.45593999997E+02  0.45594000000E+02  0.51100000000E-03 0.  1.
         11   -1    0    0    0    0 -0.00000000000E+00 -0.00000000000E+00 -0.45593999997E+02  0.45594000000E+02  0.51100000000E-03 0. -1.
    9900012    2    1    2    0    0 -0.55829519581E+00 -0.99596290735E+00  0.29872795755E+00  0.90007799156E+02  0.90000061305E+02 0.  0.
         12    1    1    2    0    0  0.55829519581E+00  0.99596290735E+00 -0.29872795755E+00  0.11802008435E+01  0.00000000000E+00 0. -1.
         11    1    3    3    0    0 -0.37063980254E+02  0.10136191373E+01 -0.17329796067E+01  0.37118314544E+02  0.51100000000E-03 0. -1.
        -11    1    3    3    0    0 -0.47939606439E+01 -0.79101668803E+01 -0.51045179647E+01  0.10564511472E+02  0.51100000000E-03 0.  1.
        -12    1    3    3    0    0  0.41299645702E+02  0.59005848357E+01  0.71362255290E+01  0.42324973140E+02  0.00000000000E+00 0.  1.
</event>
<event>
 7    1  0.2284751E-015  0.9000774E+02  0.7816164E-02  0.1186339E+00
        -11   -1    0    0    0    0  0.00000000000E+00  0.00000000000E+00  0.45593999997E+02  0.45594000000E+02  0.51100000000E-03 0.  1.
         11   -1    0    0    0    0 -0.00000000000E+00 -0.00000000000E+00 -0.45593999997E+02  0.45594000000E+02  0.51100000000E-03 0. -1.
    9900012    2    1    2    0    0  0.10190723708E+01  0.59020848410E+00 -0.78554525881E-01  0.90007735044E+02  0.89999996347E+02 0.  0.
         12    1    1    2    0    0 -0.10190723708E+01 -0.59020848410E+00  0.78554525881E-01  0.11802649555E+01  0.00000000000E+00 0. -1.
         11    1    3    3    0    0 -0.24664619921E+01  0.30460750992E+01  0.85430428125E+01  0.93992334276E+01  0.51100000000E-03 0. -1.
        -11    1    3    3    0    0 -0.69962934025E+01 -0.11157672088E+02  0.33682155437E+02  0.36165306067E+02  0.51100000000E-03 0.  1.
         12    1    3    3    0    0  0.10481827765E+02  0.87018054726E+01 -0.42303752775E+02  0.44443195550E+02  0.00000000000E+00 0. -1.
</event>
<event>
 7    1  0.2284751E-015  0.9000768E+02  0.7816164E-02  0.1186339E+00
        -11   -1    0    0    0    0  0.00000000000E+00  0.00000000000E+00  0.45593999997E+02  0.45594000000E+02  0.51100000000E-03 0. -1.
         11   -1    0    0    0    0 -0.00000000000E+00 -0.00000000000E+00 -0.45593999997E+02  0.45594000000E+02  0.51100000000E-03 0.  1.
    9900012    2    1    2    0    0 -0.11561096535E+01 -0.69343832807E-01 -0.22747779799E+00  0.90007684683E+02  0.89999945321E+02 0.  0.
         12    1    1    2    0    0  0.11561096535E+01  0.69343832807E-01  0.22747779799E+00  0.11803153166E+01  0.00000000000E+00 0. -1.
         11    1    3    3    0    0 -0.27882801777E+02  0.26681489581E+02  0.74425822861E+01  0.39303238448E+02  0.51100000000E-03 0. -1.
        -11    1    3    3    0    0 -0.76814575202E+01 -0.62160339647E+01  0.13024926020E+00  0.98823495696E+01  0.51100000000E-03 0.  1.
        -12    1    3    3    0    0  0.34408149644E+02 -0.20534799449E+02 -0.78003093443E+01  0.40822096666E+02  0.00000000000E+00 0.  1.
</event>
<event>
 7    1  0.2284751E-015  0.9000779E+02  0.7816164E-02  0.1186339E+00
        -11   -1    0    0    0    0  0.00000000000E+00  0.00000000000E+00  0.45593999997E+02  0.45594000000E+02  0.51100000000E-03 0.  1.
         11   -1    0    0    0    0 -0.00000000000E+00 -0.00000000000E+00 -0.45593999997E+02  0.45594000000E+02  0.51100000000E-03 0. -1.
    9900012    2    1    2    0    0  0.68661592950E+00 -0.45097703592E+00  0.84739697615E+00  0.90007786733E+02  0.90000048717E+02 0.  0.
         12    1    1    2    0    0 -0.68661592950E+00  0.45097703592E+00 -0.84739697615E+00  0.11802132675E+01  0.00000000000E+00 0. -1.
         11    1    3    3    0    0 -0.13901869615E+02 -0.74957674334E+01  0.24956811011E+00  0.15795910633E+02  0.51100000000E-03 0. -1.
        -11    1    3    3    0    0  0.30548567322E+02  0.42542600384E+01  0.28468817177E+02  0.41973649420E+02  0.51100000000E-03 0.  1.
         12    1    3    3    0    0 -0.15960081777E+02  0.27905303591E+01 -0.27870988311E+02  0.32238226680E+02  0.00000000000E+00 0. -1.
</event>
<event>
 7    1  0.2284751E-015  0.9000773E+02  0.7816164E-02  0.1186339E+00
        -11   -1    0    0    0    0  0.00000000000E+00  0.00000000000E+00  0.45593999997E+02  0.45594000000E+02  0.51100000000E-03 0.  1.
         11   -1    0    0    0    0 -0.00000000000E+00 -0.00000000000E+00 -0.45593999997E+02  0.45594000000E+02  0.51100000000E-03 0. -1.
    9900012    2    1    2    0    0  0.11093521444E+01  0.31720223775E+00  0.24851254801E+00  0.90007729723E+02  0.89999990955E+02 0.  0.
         12    1    1    2    0    0 -0.11093521444E+01 -0.31720223775E+00 -0.24851254801E+00  0.11802702769E+01  0.00000000000E+00 0. -1.
         11    1    3    3    0    0  0.16435711112E+02 -0.89706465205E+01 -0.30479489906E+02  0.35771558590E+02  0.51100000000E-03 0. -1.
        -11    1    3    3    0    0 -0.60503490918E+01  0.85360979155E+01 -0.87726764677E+01  0.13653993717E+02  0.51100000000E-03 0.  1.
        -12    1    3    3    0    0 -0.92760098758E+01  0.75175084266E+00  0.39500678922E+02  0.40582177416E+02  0.00000000000E+00 0.  1.
</event>
<event>
 7    1  0.2284751E-015  0.9000751E+02  0.7816164E-02  0.1186340E+00
        -11   -1    0    0    0    0  0.00000000000E+00  0.00000000000E+00  0.45593999997E+02  0.45594000000E+02  0.51100000000E-03 0.  1.
         11   -1    0    0    0    0 -0.00000000000E+00 -0.00000000000E+00 -0.45593999997E+02  0.45594000000E+02  0.51100000000E-03 0. -1.
    9900012    2    1    2    0    0  0.31309837044E+00 -0.75065994883E+00  0.85559287408E+00  0.90007508528E+02  0.89999766841E+02 0.  0.
         12    1    1    2    0    0 -0.31309837044E+00  0.75065994883E+00 -0.85559287408E+00  0.11804914716E+01  0.00000000000E+00 0. -1.
         11    1    3    3    0    0  0.16236524933E+02  0.33618089129E+02 -0.12472470855E+02  0.39361951019E+02  0.51100000000E-03 0. -1.
        -11    1    3    3    0    0 -0.93986044571E+01  0.32316546167E+01  0.65045734340E+01  0.11877997858E+02  0.51100000000E-03 0.  1.
        -12    1    3    3    0    0 -0.65248221053E+01 -0.37600403694E+02  0.68234902953E+01  0.38767559651E+02  0.00000000000E+00 0.  1.
</event>
<event>
 7    1  0.2284751E-015  0.9000754E+02  0.7816164E-02  0.1186339E+00
        -11   -1    0    0    0    0  0.00000000000E+00  0.00000000000E+00  0.45593999997E+02  0.45594000000E+02  0.51100000000E-03 0. -1.
         11   -1    0    0    0    0 -0.00000000000E+00 -0.00000000000E+00 -0.45593999997E+02  0.45594000000E+02  0.51100000000E-03 0.  1.
    9900012    2    1    2    0    0 -0.23518818834E+00  0.10055289777E+01 -0.57191807128E+00  0.90007537256E+02  0.89999795948E+02 0.  0.
         12    1    1    2    0    0  0.23518818834E+00 -0.10055289777E+01  0.57191807128E+00  0.11804627437E+01  0.00000000000E+00 0. -1.
         11    1    3    3    0    0 -0.62442490857E+01 -0.96827852443E+01  0.33331840970E+01  0.11994044073E+02  0.51100000000E-03 0. -1.
        -11    1    3    3    0    0 -0.12637747507E+02 -0.26623274526E+02 -0.17337868629E+02  0.34192295878E+02  0.51100000000E-03 0.  1.
         12    1    3    3    0    0  0.18646808404E+02  0.37311588748E+02  0.13432766460E+02  0.43821197306E+02  0.00000000000E+00 0. -1.
</event>
<event>
 7    1  0.2284751E-015  0.9000775E+02  0.7816164E-02  0.1186339E+00
        -11   -1    0    0    0    0  0.00000000000E+00  0.00000000000E+00  0.45593999997E+02  0.45594000000E+02  0.51100000000E-03 0.  1.
         11   -1    0    0    0    0 -0.00000000000E+00 -0.00000000000E+00 -0.45593999997E+02  0.45594000000E+02  0.51100000000E-03 0. -1.
    9900012    2    1    2    0    0 -0.60663945607E+00 -0.37898497669E-01  0.10117084087E+01  0.90007745100E+02  0.90000006535E+02 0.  0.
         12    1    1    2    0    0  0.60663945607E+00  0.37898497669E-01 -0.10117084087E+01  0.11802549004E+01  0.00000000000E+00 0. -1.
         11    1    3    3    0    0  0.25477005799E+02 -0.77741911245E+00 -0.29687102395E+02  0.39128075008E+02  0.51100000000E-03 0. -1.
        -11    1    3    3    0    0 -0.80526036766E+01 -0.40400315406E+01 -0.52154587978E+01  0.10409961170E+02  0.51100000000E-03 0.  1.
        -12    1    3    3    0    0 -0.18031041578E+02  0.47795521553E+01  0.35914269602E+02  0.40469708922E+02  0.00000000000E+00 0.  1.
</event>
<event>
 7    1  0.2284751E-015  0.9000758E+02  0.7816164E-02  0.1186339E+00
        -11   -1    0    0    0    0  0.00000000000E+00  0.00000000000E+00  0.45593999997E+02  0.45594000000E+02  0.51100000000E-03 0.  1.
         11   -1    0    0    0    0 -0.00000000000E+00 -0.00000000000E+00 -0.45593999997E+02  0.45594000000E+02  0.51100000000E-03 0. -1.
    9900012    2    1    2    0    0 -0.33832225624E-01  0.94250409933E+00  0.70988958011E+00  0.90007575579E+02  0.89999834777E+02 0.  0.
         12    1    1    2    0    0  0.33832225624E-01 -0.94250409933E+00 -0.70988958011E+00  0.11804244206E+01  0.00000000000E+00 0. -1.
         11    1    3    3    0    0  0.11937976068E+02  0.15072536571E+02 -0.35369609858E+02  0.40257992163E+02  0.51100000000E-03 0. -1.
        -11    1    3    3    0    0  0.60016453509E+01  0.49437700670E+01  0.57825342444E+01  0.96901141346E+01  0.51100000000E-03 0.  1.
        -12    1    3    3    0    0 -0.17973453645E+02 -0.19073802539E+02  0.30296965193E+02  0.40059469282E+02  0.00000000000E+00 0.  1.
</event>
<event>
 7    1  0.2284751E-015  0.9000793E+02  0.7816164E-02  0.1186339E+00
        -11   -1    0    0    0    0  0.00000000000E+00  0.00000000000E+00  0.45593999997E+02  0.45594000000E+02  0.51100000000E-03 0.  1.
         11   -1    0    0    0    0 -0.00000000000E+00 -0.00000000000E+00 -0.45593999997E+02  0.45594000000E+02  0.51100000000E-03 0. -1.
    9900012    2    1    2    0    0  0.15701879776E+00  0.51551007794E+00  0.10498367693E+01  0.90007931025E+02  0.90000194914E+02 0.  0.
         12    1    1    2    0    0 -0.15701879776E+00 -0.51551007794E+00 -0.10498367693E+01  0.11800689749E+01  0.00000000000E+00 0. -1.
         11    1    3    3    0    0 -0.85164561313E+01 -0.52379807245E+00 -0.80125045030E+00  0.85700870475E+01  0.51100000000E-03 0. -1.
        -11    1    3    3    0    0 -0.34619091700E+02 -0.18634481586E+01 -0.10676259387E+02  0.36275838569E+02  0.51100000000E-03 0.  1.
         12    1    3    3    0    0  0.43292566629E+02  0.29027563090E+01  0.12527346607E+02  0.45162005408E+02  0.00000000000E+00 0. -1.
</event>
<event>
 7    1  0.4861349E-015  0.9000779E+02  0.7816164E-02  0.1186339E+00
        -11   -1    0    0    0    0  0.00000000000E+00  0.00000000000E+00  0.45593999997E+02  0.45594000000E+02  0.51100000000E-03 0. -1.
         11   -1    0    0    0    0 -0.00000000000E+00 -0.00000000000E+00 -0.45593999997E+02  0.45594000000E+02  0.51100000000E-03 0.  1.
    9900012    2    1    2    0    0 -0.60094525602E+00 -0.12395995651E+00 -0.10081616074E+01  0.90007791926E+02  0.90000053979E+02 0.  0.
         12    1    1    2    0    0  0.60094525602E+00  0.12395995651E+00  0.10081616074E+01  0.11802080741E+01  0.00000000000E+00 0. -1.
         11    1    3    3    0    0  0.29691104649E+02 -0.20503921963E+01  0.22833669777E+02  0.37511895169E+02  0.51100000000E-03 0. -1.
        -11    1    3    3    0    0  0.27288568405E+01  0.83554369994E+01  0.31788960963E+01  0.93469443006E+01  0.51100000000E-03 0.  1.
        -12    1    3    3    0    0 -0.33020906745E+02 -0.64290047596E+01 -0.27020727481E+02  0.43148952456E+02  0.00000000000E+00 0.  1.
</event>
<event>
 7    1  0.2284751E-015  0.9000782E+02  0.7816164E-02  0.1186339E+00
        -11   -1    0    0    0    0  0.00000000000E+00  0.00000000000E+00  0.45593999997E+02  0.45594000000E+02  0.51100000000E-03 0. -1.
         11   -1    0    0    0    0 -0.00000000000E+00 -0.00000000000E+00 -0.45593999997E+02  0.45594000000E+02  0.51100000000E-03 0.  1.
    9900012    2    1    2    0    0  0.11649996102E+01 -0.12318143053E+00 -0.14292640393E+00  0.90007819627E+02  0.90000082046E+02 0.  0.
         12    1    1    2    0    0 -0.11649996102E+01  0.12318143053E+00  0.14292640393E+00  0.11801803733E+01  0.00000000000E+00 0. -1.
         11    1    3    3    0    0  0.14822954498E+02 -0.16027043642E+02  0.12432381439E+02  0.25122703208E+02  0.51100000000E-03 0. -1.
        -11    1    3    3    0    0 -0.21715305609E+02 -0.79991781444E+01  0.14949331084E+02  0.27550387452E+02  0.51100000000E-03 0.  1.
         12    1    3    3    0    0  0.80573507205E+01  0.23903040356E+02 -0.27524638927E+02  0.37334728966E+02  0.00000000000E+00 0. -1.
</event>
<event>
 7    1  0.2284751E-015  0.9000778E+02  0.7816164E-02  0.1186339E+00
        -11   -1    0    0    0    0  0.00000000000E+00  0.00000000000E+00  0.45593999997E+02  0.45594000000E+02  0.51100000000E-03 0.  1.
         11   -1    0    0    0    0 -0.00000000000E+00 -0.00000000000E+00 -0.45593999997E+02  0.45594000000E+02  0.51100000000E-03 0. -1.
    9900012    2    1    2    0    0 -0.43698085546E+00  0.10612334753E+01  0.27522212198E+00  0.90007781387E+02  0.90000043302E+02 0.  0.
         12    1    1    2    0    0  0.43698085546E+00 -0.10612334753E+01 -0.27522212198E+00  0.11802186126E+01  0.00000000000E+00 0. -1.
         11    1    3    3    0    0 -0.13583832243E+02  0.32887210657E+02 -0.30961054986E+01  0.35716592681E+02  0.51100000000E-03 0. -1.
        -11    1    3    3    0    0 -0.58374601532E+01  0.76193490128E+01  0.42713447352E+01  0.10505941487E+02  0.51100000000E-03 0.  1.
        -12    1    3    3    0    0  0.18984311541E+02 -0.39445326195E+02 -0.90001711461E+00  0.43785247220E+02  0.00000000000E+00 0.  1.
</event>
<event>
 7    1  0.2284751E-015  0.9000770E+02  0.7816164E-02  0.1186339E+00
        -11   -1    0    0    0    0  0.00000000000E+00  0.00000000000E+00  0.45593999997E+02  0.45594000000E+02  0.51100000000E-03 0.  1.
         11   -1    0    0    0    0 -0.00000000000E+00 -0.00000000000E+00 -0.45593999997E+02  0.45594000000E+02  0.51100000000E-03 0. -1.
    9900012    2    1    2    0    0  0.10710930519E+01 -0.12511309456E+00  0.47981038148E+00  0.90007698507E+02  0.89999959327E+02 0.  0.
         12    1    1    2    0    0 -0.10710930519E+01  0.12511309456E+00 -0.47981038148E+00  0.11803014930E+01  0.00000000000E+00 0. -1.
         11    1    3    3    0    0 -0.52743509770E+01 -0.13947257699E+02 -0.10352276228E+01  0.14947122534E+02  0.51100000000E-03 0. -1.
        -11    1    3    3    0    0  0.14290099116E+02 -0.28501166289E+02 -0.12685283856E+01  0.31908189813E+02  0.51100000000E-03 0.  1.
         12    1    3    3    0    0 -0.79446550868E+01  0.42323310894E+02  0.27835663898E+01  0.43152386160E+02  0.00000000000E+00 0. -1.
</event>
<event>
 7    1  0.2284751E-015  0.9000765E+02  0.7816164E-02  0.1186339E+00
        -11   -1    0    0    0    0  0.00000000000E+00  0.00000000000E+00  0.45593999997E+02  0.45594000000E+02  0.51100000000E-03 0. -1.
         11   -1    0    0    0    0 -0.00000000000E+00 -0.00000000000E+00 -0.45593999997E+02  0.45594000000E+02  0.51100000000E-03 0.  1.
    9900012    2    1    2    0    0  0.96595853072E+00  0.65574770400E+00 -0.17360966182E+00  0.90007652064E+02  0.89999912272E+02 0.  0.
         12    1    1    2    0    0 -0.96595853072E+00 -0.65574770400E+00  0.17360966182E+00  0.11803479356E+01  0.00000000000E+00 0. -1.
         11    1    3    3    0    0 -0.25154848470E+02  0.76572728201E+01  0.24009059333E+02  0.35606672954E+02  0.51100000000E-03 0. -1.
        -11    1    3    3    0    0 -0.74816121527E+01  0.65766656651E+01  0.13721051099E+01  0.10055333131E+02  0.51100000000E-03 0.  1.
        -12    1    3    3    0    0  0.33602419153E+02 -0.13578190781E+02 -0.25554774104E+02  0.44345645980E+02  0.00000000000E+00 0.  1.
</event>
<event>
 7    1  0.2284751E-015  0.9000778E+02  0.7816164E-02  0.1186339E+00
        -11   -1    0    0    0    0  0.00000000000E+00  0.00000000000E+00  0.45593999997E+02  0.45594000000E+02  0.51100000000E-03 0.  1.
         11   -1    0    0    0    0 -0.00000000000E+00 -0.00000000000E+00 -0.45593999997E+02  0.45594000000E+02  0.51100000000E-03 0. -1.
    9900012    2    1    2    0    0  0.38769541215E+00 -0.10960938722E+01 -0.20296108019E+00  0.90007778534E+02  0.90000040410E+02 0.  0.
         12    1    1    2    0    0 -0.38769541215E+00  0.10960938722E+01  0.20296108019E+00  0.11802214662E+01  0.00000000000E+00 0. -1.
         11    1    3    3    0    0  0.30235546415E+01  0.22597739633E+01  0.68397018457E+01  0.78121688816E+01  0.51100000000E-03 0. -1.
        -11    1    3    3    0    0 -0.10858624925E+02  0.34703148184E+02 -0.19568375294E+02  0.41293335310E+02  0.51100000000E-03 0.  1.
         12    1    3    3    0    0  0.82227656961E+01 -0.38059016019E+02  0.12525712368E+02  0.40902274342E+02  0.00000000000E+00 0. -1.
</event>
<event>
 7    1  0.2284751E-015  0.9000774E+02  0.7816164E-02  0.1186339E+00
        -11   -1    0    0    0    0  0.00000000000E+00  0.00000000000E+00  0.45593999997E+02  0.45594000000E+02  0.51100000000E-03 0.  1.
         11   -1    0    0    0    0 -0.00000000000E+00 -0.00000000000E+00 -0.45593999997E+02  0.45594000000E+02  0.51100000000E-03 0. -1.
    9900012    2    1    2    0    0 -0.11665098138E+01 -0.90067607417E-01  0.15540261199E+00  0.90007742701E+02  0.90000004105E+02 0.  0.
         12    1    1    2    0    0  0.11665098138E+01  0.90067607417E-01 -0.15540261199E+00  0.11802572988E+01  0.00000000000E+00 0. -1.
         11    1    3    3    0    0 -0.14200599879E+02 -0.13214601247E+02 -0.32114728886E+02  0.37518509228E+02  0.51100000000E-03 0. -1.
        -11    1    3    3    0    0  0.33422174131E+01 -0.84975767149E+01 -0.33343283520E+01  0.97209553585E+01  0.51100000000E-03 0.  1.
        -12    1    3    3    0    0  0.96918726523E+01  0.21622110355E+02  0.35604459850E+02  0.42768278115E+02  0.00000000000E+00 0.  1.
</event>
<event>
 7    1  0.2284751E-015  0.9000767E+02  0.7816164E-02  0.1186339E+00
        -11   -1    0    0    0    0  0.00000000000E+00  0.00000000000E+00  0.45593999997E+02  0.45594000000E+02  0.51100000000E-03 0. -1.
         11   -1    0    0    0    0 -0.00000000000E+00 -0.00000000000E+00 -0.45593999997E+02  0.45594000000E+02  0.51100000000E-03 0.  1.
    9900012    2    1    2    0    0 -0.11511342814E+01 -0.23486046662E+00 -0.11358949094E+00  0.90007672865E+02  0.89999933347E+02 0.  0.
         12    1    1    2    0    0  0.11511342814E+01  0.23486046662E+00  0.11358949094E+00  0.11803271348E+01  0.00000000000E+00 0. -1.
         11    1    3    3    0    0  0.13598627780E+01 -0.42009816133E+01  0.79703702477E+01  0.91117657695E+01  0.51100000000E-03 0. -1.
        -11    1    3    3    0    0  0.31756971662E+02  0.20909400627E+02  0.89233525011E+01  0.39055531028E+02  0.51100000000E-03 0.  1.
         12    1    3    3    0    0 -0.34267968722E+02 -0.16943279481E+02 -0.17007312240E+02  0.41840376068E+02  0.00000000000E+00 0. -1.
</event>
<event>
 7    1  0.2284751E-015  0.9000731E+02  0.7816164E-02  0.1186340E+00
        -11   -1    0    0    0    0  0.00000000000E+00  0.00000000000E+00  0.45593999997E+02  0.45594000000E+02  0.51100000000E-03 0. -1.
         11   -1    0    0    0    0 -0.00000000000E+00 -0.00000000000E+00 -0.45593999997E+02  0.45594000000E+02  0.51100000000E-03 0.  1.
    9900012    2    1    2    0    0 -0.92666210690E+00  0.32535564292E-01 -0.73093273671E+00  0.90007312112E+02  0.89999567831E+02 0.  0.
         12    1    1    2    0    0  0.92666210690E+00 -0.32535564292E-01  0.73093273671E+00  0.11806878880E+01  0.00000000000E+00 0. -1.
         11    1    3    3    0    0  0.16022952204E+02 -0.23445510002E+02  0.22461127846E+02  0.36206756289E+02  0.51100000000E-03 0. -1.
        -11    1    3    3    0    0 -0.35865833329E+01 -0.10577016647E+02 -0.14974091532E+01  0.11268500149E+02  0.51100000000E-03 0.  1.
        -12    1    3    3    0    0 -0.13363030978E+02  0.34055062213E+02 -0.21694651430E+02  0.42532055675E+02  0.00000000000E+00 0.  1.
</event>
<event>
 7    1  0.2284751E-015  0.9000768E+02  0.7816164E-02  0.1186339E+00
        -11   -1    0    0    0    0  0.00000000000E+00  0.00000000000E+00  0.45593999997E+02  0.45594000000E+02  0.51100000000E-03 0. -1.
         11   -1    0    0    0    0 -0.00000000000E+00 -0.00000000000E+00 -0.45593999997E+02  0.45594000000E+02  0.51100000000E-03 0.  1.
    9900012    2    1    2    0    0  0.11176001802E+01 -0.90652843343E-01  0.36867034582E+00  0.90007675500E+02  0.89999936017E+02 0.  0.
         12    1    1    2    0    0 -0.11176001802E+01  0.90652843343E-01 -0.36867034582E+00  0.11803244997E+01  0.00000000000E+00 0. -1.
         11    1    3    3    0    0  0.42852221993E+01  0.40702997492E+02 -0.14296961849E+02  0.43353203486E+02  0.51100000000E-03 0. -1.
        -11    1    3    3    0    0 -0.24619469009E+01 -0.87128268967E+01 -0.35861032248E+01  0.97383094875E+01  0.51100000000E-03 0.  1.
        -12    1    3    3    0    0 -0.70567511829E+00 -0.32080823439E+02  0.18251735419E+02  0.36916162527E+02  0.00000000000E+00 0.  1.
</event>
<event>
 7    1  0.2284751E-015  0.9000782E+02  0.7816164E-02  0.1186339E+00
        -11   -1    0    0    0    0  0.00000000000E+00  0.00000000000E+00  0.45593999997E+02  0.45594000000E+02  0.51100000000E-03 0. -1.
         11   -1    0    0    0    0 -0.00000000000E+00 -0.00000000000E+00 -0.45593999997E+02  0.45594000000E+02  0.51100000000E-03 0.  1.
    9900012    2    1    2    0    0 -0.13390347777E+00 -0.11286359002E+01 -0.31791879684E+00  0.90007821413E+02  0.90000083855E+02 0.  0.
         12    1    1    2    0    0  0.13390347777E+00  0.11286359002E+01  0.31791879684E+00  0.11801785873E+01  0.00000000000E+00 0. -1.
         11    1    3    3    0    0  0.22265550951E+01 -0.76618162492E+01 -0.82142292900E+01  0.11451398994E+02  0.51100000000E-03 0. -1.
        -11    1    3    3    0    0 -0.57855390539E+01 -0.67722103751E+01 -0.33643960715E+02  0.34803037056E+02  0.51100000000E-03 0.  1.
         12    1    3    3    0    0  0.34250804810E+01  0.13305390724E+02  0.41540271208E+02  0.43753385362E+02  0.00000000000E+00 0. -1.
</event>
<event>
 7    1  0.2284751E-015  0.9000773E+02  0.7816164E-02  0.1186339E+00
        -11   -1    0    0    0    0  0.00000000000E+00  0.00000000000E+00  0.45593999997E+02  0.45594000000E+02  0.51100000000E-03 0. -1.
         11   -1    0    0    0    0 -0.00000000000E+00 -0.00000000000E+00 -0.45593999997E+02  0.45594000000E+02  0.51100000000E-03 0.  1.
    9900012    2    1    2    0    0 -0.30437203400E+00  0.11323142275E+01 -0.13511322449E+00  0.90007731629E+02  0.89999992886E+02 0.  0.
         12    1    1    2    0    0  0.30437203400E+00 -0.11323142275E+01  0.13511322449E+00  0.11802683713E+01  0.00000000000E+00 0. -1.
         11    1    3    3    0    0  0.62148890045E+01  0.10766608586E+02 -0.90926764163E+01  0.15401995665E+02  0.51100000000E-03 0. -1.
        -11    1    3    3    0    0 -0.42975199410E+00  0.87112608615E+01 -0.29932181974E+02  0.31177015101E+02  0.51100000000E-03 0.  1.
         12    1    3    3    0    0 -0.60895090444E+01 -0.18345555220E+02  0.38889745166E+02  0.43428720863E+02  0.00000000000E+00 0. -1.
</event>
<event>
 7    1  0.2284751E-015  0.9000855E+02  0.7816164E-02  0.1186337E+00
        -11   -1    0    0    0    0  0.00000000000E+00  0.00000000000E+00  0.45593999997E+02  0.45594000000E+02  0.51100000000E-03 0. -1.
         11   -1    0    0    0    0 -0.00000000000E+00 -0.00000000000E+00 -0.45593999997E+02  0.45594000000E+02  0.51100000000E-03 0.  1.
    9900012    2    1    2    0    0 -0.99711315501E-01 -0.45883407956E+00 -0.10819567593E+01  0.90008550345E+02  0.90000822406E+02 0.  0.
         12    1    1    2    0    0  0.99711315501E-01  0.45883407956E+00  0.10819567593E+01  0.11794496547E+01  0.00000000000E+00 0. -1.
         11    1    3    3    0    0  0.35004043882E+01 -0.73706813154E+01 -0.53280530047E+01  0.97451486913E+01  0.51100000000E-03 0. -1.
        -11    1    3    3    0    0 -0.27125635585E+02 -0.27326452090E+02 -0.15476798618E-01  0.38503705400E+02  0.51100000000E-03 0.  1.
         12    1    3    3    0    0  0.23525519881E+02  0.34238299326E+02  0.42615730440E+01  0.41759696254E+02  0.00000000000E+00 0. -1.
</event>
<event>
 7    1  0.2284751E-015  0.9000734E+02  0.7816164E-02  0.1186340E+00
        -11   -1    0    0    0    0  0.00000000000E+00  0.00000000000E+00  0.45593999997E+02  0.45594000000E+02  0.51100000000E-03 0. -1.
         11   -1    0    0    0    0 -0.00000000000E+00 -0.00000000000E+00 -0.45593999997E+02  0.45594000000E+02  0.51100000000E-03 0.  1.
    9900012    2    1    2    0    0 -0.75361382167E+00 -0.45411283178E+00 -0.78728300387E+00  0.90007336295E+02  0.89999592333E+02 0.  0.
         12    1    1    2    0    0  0.75361382167E+00  0.45411283178E+00  0.78728300387E+00  0.11806637050E+01  0.00000000000E+00 0. -1.
         11    1    3    3    0    0 -0.96445760019E+01 -0.47671313608E+01 -0.11204240642E+01  0.10816595491E+02  0.51100000000E-03 0. -1.
        -11    1    3    3    0    0 -0.27710460080E+02  0.72365079411E+01 -0.22088483385E+02  0.36168186898E+02  0.51100000000E-03 0.  1.
         12    1    3    3    0    0  0.36601422260E+02 -0.29234894121E+01  0.22421624445E+02  0.43022553906E+02  0.00000000000E+00 0. -1.
</event>
<event>
 7    1  0.2284751E-015  0.9000778E+02  0.7816164E-02  0.1186339E+00
        -11   -1    0    0    0    0  0.00000000000E+00  0.00000000000E+00  0.45593999997E+02  0.45594000000E+02  0.51100000000E-03 0.  1.
         11   -1    0    0    0    0 -0.00000000000E+00 -0.00000000000E+00 -0.45593999997E+02  0.45594000000E+02  0.51100000000E-03 0. -1.
    9900012    2    1    2    0    0  0.54307995300E+00 -0.96922500654E+00  0.39822324768E+00  0.90007781925E+02  0.90000043847E+02 0.  0.
         12    1    1    2    0    0 -0.54307995300E+00  0.96922500654E+00 -0.39822324768E+00  0.11802180746E+01  0.00000000000E+00 0. -1.
         11    1    3    3    0    0 -0.61229779894E+01  0.58306461563E+01 -0.17371647229E+01  0.86316299500E+01  0.51100000000E-03 0. -1.
        -11    1    3    3    0    0 -0.25932274565E+02 -0.29685961291E+02  0.10249163499E+02  0.40728178385E+02  0.51100000000E-03 0.  1.
         12    1    3    3    0    0  0.32598332508E+02  0.22886090128E+02 -0.81137755286E+01  0.40647973590E+02  0.00000000000E+00 0. -1.
</event>
<event>
 7    1  0.2284751E-015  0.9000775E+02  0.7816164E-02  0.1186339E+00
        -11   -1    0    0    0    0  0.00000000000E+00  0.00000000000E+00  0.45593999997E+02  0.45594000000E+02  0.51100000000E-03 0. -1.
         11   -1    0    0    0    0 -0.00000000000E+00 -0.00000000000E+00 -0.45593999997E+02  0.45594000000E+02  0.51100000000E-03 0.  1.
    9900012    2    1    2    0    0  0.10540963050E+01 -0.28721842369E+00  0.44652110255E+00  0.90007748104E+02  0.90000009579E+02 0.  0.
         12    1    1    2    0    0 -0.10540963050E+01  0.28721842369E+00 -0.44652110255E+00  0.11802518960E+01  0.00000000000E+00 0. -1.
         11    1    3    3    0    0  0.69790176983E+00  0.81862219092E+01  0.87107720959E+00  0.82619653711E+01  0.51100000000E-03 0. -1.
        -11    1    3    3    0    0 -0.30540290706E+02  0.21990011579E+02  0.52102251794E+01  0.37992320438E+02  0.51100000000E-03 0.  1.
         12    1    3    3    0    0  0.30896485241E+02 -0.30463451912E+02 -0.56347812864E+01  0.43753462294E+02  0.00000000000E+00 0. -1.
</event>
<event>
 7    1  0.2284751E-015  0.9000777E+02  0.7816164E-02  0.1186339E+00
        -11   -1    0    0    0    0  0.00000000000E+00  0.00000000000E+00  0.45593999997E+02  0.45594000000E+02  0.51100000000E-03 0. -1.
         11   -1    0    0    0    0 -0.00000000000E+00 -0.00000000000E+00 -0.45593999997E+02  0.45594000000E+02  0.51100000000E-03 0.  1.
    9900012    2    1    2    0    0 -0.89406493304E+00  0.52601305110E+00  0.56293151068E+00  0.90007773869E+02  0.90000035684E+02 0.  0.
         12    1    1    2    0    0  0.89406493304E+00 -0.52601305110E+00 -0.56293151068E+00  0.11802261309E+01  0.00000000000E+00 0. -1.
         11    1    3    3    0    0  0.10246944829E+01  0.10481457776E+02 -0.88804059008E+01  0.13775796351E+02  0.51100000000E-03 0. -1.
        -11    1    3    3    0    0 -0.17575545555E+02 -0.62647494344E+01 -0.29042455086E+02  0.34519720229E+02  0.51100000000E-03 0.  1.
         12    1    3    3    0    0  0.15656786139E+02 -0.36906952902E+01  0.38485792498E+02  0.41712257288E+02  0.00000000000E+00 0. -1.
</event>
<event>
 7    1  0.2284751E-015  0.9000777E+02  0.7816164E-02  0.1186339E+00
        -11   -1    0    0    0    0  0.00000000000E+00  0.00000000000E+00  0.45593999997E+02  0.45594000000E+02  0.51100000000E-03 0. -1.
         11   -1    0    0    0    0 -0.00000000000E+00 -0.00000000000E+00 -0.45593999997E+02  0.45594000000E+02  0.51100000000E-03 0.  1.
    9900012    2    1    2    0    0 -0.14390710546E+00 -0.83552438301E-01 -0.11684363828E+01  0.90007773816E+02  0.90000035630E+02 0.  0.
         12    1    1    2    0    0  0.14390710546E+00  0.83552438301E-01  0.11684363828E+01  0.11802261840E+01  0.00000000000E+00 0. -1.
         11    1    3    3    0    0 -0.14649016638E+02  0.32492204860E+02  0.20921501496E+02  0.41328516671E+02  0.51100000000E-03 0. -1.
        -11    1    3    3    0    0 -0.49359766723E+01 -0.10896888413E+00 -0.54090123129E+01  0.73234660093E+01  0.51100000000E-03 0.  1.
        -12    1    3    3    0    0  0.19441086204E+02 -0.32466788414E+02 -0.16680925566E+02  0.41355791136E+02  0.00000000000E+00 0.  1.
</event>
<event>
 7    1  0.2284751E-015  0.9000782E+02  0.7816164E-02  0.1186339E+00
        -11   -1    0    0    0    0  0.00000000000E+00  0.00000000000E+00  0.45593999997E+02  0.45594000000E+02  0.51100000000E-03 0.  1.
         11   -1    0    0    0    0 -0.00000000000E+00 -0.00000000000E+00 -0.45593999997E+02  0.45594000000E+02  0.51100000000E-03 0. -1.
    9900012    2    1    2    0    0 -0.40771567086E-01 -0.11681782690E+01 -0.16288591407E+00  0.90007815858E+02  0.90000078227E+02 0.  0.
         12    1    1    2    0    0  0.40771567086E-01  0.11681782690E+01  0.16288591407E+00  0.11801841423E+01  0.00000000000E+00 0. -1.
         11    1    3    3    0    0  0.76910188578E+01 -0.10253934109E+02 -0.42652232262E+01  0.13508777340E+02  0.51100000000E-03 0. -1.
        -11    1    3    3    0    0 -0.14953243641E+02 -0.30496702880E+02 -0.71702226754E+01  0.34713980979E+02  0.51100000000E-03 0.  1.
         12    1    3    3    0    0  0.72214532157E+01  0.39582458720E+02  0.11272559988E+02  0.41785057539E+02  0.00000000000E+00 0. -1.
</event>
<event>
 7    1  0.2284751E-015  0.9000770E+02  0.7816164E-02  0.1186339E+00
        -11   -1    0    0    0    0  0.00000000000E+00  0.00000000000E+00  0.45593999997E+02  0.45594000000E+02  0.51100000000E-03 0.  1.
         11   -1    0    0    0    0 -0.00000000000E+00 -0.00000000000E+00 -0.45593999997E+02  0.45594000000E+02  0.51100000000E-03 0. -1.
    9900012    2    1    2    0    0 -0.76432385119E+00  0.24370916049E-02  0.89939167036E+00  0.90007702467E+02  0.89999963340E+02 0.  0.
         12    1    1    2    0    0  0.76432385119E+00 -0.24370916049E-02 -0.89939167036E+00  0.11802975327E+01  0.00000000000E+00 0. -1.
         11    1    3    3    0    0  0.11503452387E+02  0.33599849913E+00 -0.52657318308E+00  0.11520398925E+02  0.51100000000E-03 0. -1.
        -11    1    3    3    0    0  0.12999654814E+02 -0.27628964456E+02 -0.19088433259E+02  0.36009984542E+02  0.51100000000E-03 0.  1.
         12    1    3    3    0    0 -0.25267431052E+02  0.27295403048E+02  0.20514398112E+02  0.42477319000E+02  0.00000000000E+00 0. -1.
</event>
<event>
 7    1  0.2284751E-015  0.9000779E+02  0.7816164E-02  0.1186339E+00
        -11   -1    0    0    0    0  0.00000000000E+00  0.00000000000E+00  0.45593999997E+02  0.45594000000E+02  0.51100000000E-03 0.  1.
         11   -1    0    0    0    0 -0.00000000000E+00 -0.00000000000E+00 -0.45593999997E+02  0.45594000000E+02  0.51100000000E-03 0. -1.
    9900012    2    1    2    0    0 -0.34934796598E+00  0.28853599962E+00  0.10897651744E+01  0.90007794442E+02  0.90000056528E+02 0.  0.
         12    1    1    2    0    0  0.34934796598E+00 -0.28853599962E+00 -0.10897651744E+01  0.11802055583E+01  0.00000000000E+00 0. -1.
         11    1    3    3    0    0  0.16211731692E+02  0.32046378024E+02 -0.81718073652E+01  0.36831630764E+02  0.51100000000E-03 0. -1.
        -11    1    3    3    0    0  0.31540918748E+01  0.40869882730E+01 -0.73845580544E+01  0.90101868248E+01  0.51100000000E-03 0.  1.
        -12    1    3    3    0    0 -0.19715171532E+02 -0.35844830297E+02  0.16646130594E+02  0.44165976853E+02  0.00000000000E+00 0.  1.
</event>
<event>
 7    1  0.2284751E-015  0.9000775E+02  0.7816164E-02  0.1186339E+00
        -11   -1    0    0    0    0  0.00000000000E+00  0.00000000000E+00  0.45593999997E+02  0.45594000000E+02  0.51100000000E-03 0.  1.
         11   -1    0    0    0    0 -0.00000000000E+00 -0.00000000000E+00 -0.45593999997E+02  0.45594000000E+02  0.51100000000E-03 0. -1.
    9900012    2    1    2    0    0 -0.34426618127E-01  0.11095192346E+01  0.40097409604E+00  0.90007746489E+02  0.90000007943E+02 0.  0.
         12    1    1    2    0    0  0.34426618127E-01 -0.11095192346E+01 -0.40097409604E+00  0.11802535108E+01  0.00000000000E+00 0. -1.
         11    1    3    3    0    0 -0.51465132456E+01  0.71117444768E+01 -0.33305285655E+02  0.34442786776E+02  0.51100000000E-03 0. -1.
        -11    1    3    3    0    0 -0.99384173534E+01 -0.59204700321E+01 -0.60502778133E+01  0.13054882871E+02  0.51100000000E-03 0.  1.
        -12    1    3    3    0    0  0.15050503981E+02 -0.81755210102E-01  0.39756537565E+02  0.42510076842E+02  0.00000000000E+00 0.  1.
</event>
<event>
 7    1  0.2284751E-015  0.9000772E+02  0.7816164E-02  0.1186339E+00
        -11   -1    0    0    0    0  0.00000000000E+00  0.00000000000E+00  0.45593999997E+02  0.45594000000E+02  0.51100000000E-03 0.  1.
         11   -1    0    0    0    0 -0.00000000000E+00 -0.00000000000E+00 -0.45593999997E+02  0.45594000000E+02  0.51100000000E-03 0. -1.
    9900012    2    1    2    0    0 -0.97127911557E+00 -0.47284298967E+00 -0.47549041077E+00  0.90007722599E+02  0.89999983737E+02 0.  0.
         12    1    1    2    0    0  0.97127911557E+00  0.47284298967E+00  0.47549041077E+00  0.11802774013E+01  0.00000000000E+00 0. -1.
         11    1    3    3    0    0  0.21035350411E+02  0.99462986669E+01 -0.28085616993E+02  0.36472136025E+02  0.51100000000E-03 0. -1.
        -11    1    3    3    0    0  0.99782924893E+01 -0.25028471806E+01 -0.39095469790E+00  0.10294824469E+02  0.51100000000E-03 0.  1.
        -12    1    3    3    0    0 -0.31984922016E+02 -0.79162944760E+01  0.28001081280E+02  0.43240762105E+02  0.00000000000E+00 0.  1.
</event>
<event>
 7    1  0.2884216E-015  0.9000773E+02  0.7816164E-02  0.1186339E+00
        -11   -1    0    0    0    0  0.00000000000E+00  0.00000000000E+00  0.45593999997E+02  0.45594000000E+02  0.51100000000E-03 0. -1.
         11   -1    0    0    0    0 -0.00000000000E+00 -0.00000000000E+00 -0.45593999997E+02  0.45594000000E+02  0.51100000000E-03 0.  1.
    9900012    2    1    2    0    0  0.20611390228E+00 -0.43739487265E-01 -0.11613127449E+01  0.90007727415E+02  0.89999988617E+02 0.  0.
         12    1    1    2    0    0 -0.20611390228E+00  0.43739487265E-01  0.11613127449E+01  0.11802725850E+01  0.00000000000E+00 0. -1.
         11    1    3    3    0    0  0.35699938935E+02 -0.32826866614E+01  0.64435584511E+01  0.36425006759E+02  0.51100000000E-03 0. -1.
        -11    1    3    3    0    0  0.66342193805E+01  0.60039075849E+00  0.62722176162E+01  0.91495382363E+01  0.51100000000E-03 0.  1.
        -12    1    3    3    0    0 -0.42128044413E+02  0.26385564156E+01 -0.13877088812E+02  0.44433182419E+02  0.00000000000E+00 0.  1.
</event>
<event>
 7    1  0.2284751E-015  0.9000768E+02  0.7816164E-02  0.1186339E+00
        -11   -1    0    0    0    0  0.00000000000E+00  0.00000000000E+00  0.45593999997E+02  0.45594000000E+02  0.51100000000E-03 0.  1.
         11   -1    0    0    0    0 -0.00000000000E+00 -0.00000000000E+00 -0.45593999997E+02  0.45594000000E+02  0.51100000000E-03 0. -1.
    9900012    2    1    2    0    0 -0.24328100475E+00 -0.11532949877E+01 -0.62207220047E-01  0.90007684485E+02  0.89999945121E+02 0.  0.
         12    1    1    2    0    0  0.24328100475E+00  0.11532949877E+01  0.62207220047E-01  0.11803155147E+01  0.00000000000E+00 0. -1.
         11    1    3    3    0    0 -0.39116079858E+02  0.53674588415E+01  0.14691466613E+02  0.42127384317E+02  0.51100000000E-03 0. -1.
        -11    1    3    3    0    0  0.23556733669E+01 -0.82505298487E+01 -0.54228136194E+01  0.10150238796E+02  0.51100000000E-03 0.  1.
        -12    1    3    3    0    0  0.36517125487E+02  0.17297760195E+01 -0.93308602134E+01  0.37730061373E+02  0.00000000000E+00 0.  1.
</event>
<event>
 7    1  0.2284751E-015  0.9000781E+02  0.7816164E-02  0.1186339E+00
        -11   -1    0    0    0    0  0.00000000000E+00  0.00000000000E+00  0.45593999997E+02  0.45594000000E+02  0.51100000000E-03 0.  1.
         11   -1    0    0    0    0 -0.00000000000E+00 -0.00000000000E+00 -0.45593999997E+02  0.45594000000E+02  0.51100000000E-03 0. -1.
    9900012    2    1    2    0    0  0.61730957725E+00  0.98518248147E+00 -0.20295325558E+00  0.90007811176E+02  0.90000073484E+02 0.  0.
         12    1    1    2    0    0 -0.61730957725E+00 -0.98518248147E+00  0.20295325558E+00  0.11801888238E+01  0.00000000000E+00 0. -1.
         11    1    3    3    0    0  0.30197830030E+02 -0.31330953993E+02 -0.62325670139E+01  0.43958872921E+02  0.51100000000E-03 0. -1.
        -11    1    3    3    0    0 -0.85549112209E+01  0.37432186091E+01 -0.22826531139E+01  0.96129442448E+01  0.51100000000E-03 0.  1.
        -12    1    3    3    0    0 -0.21025609232E+02  0.28572917866E+02  0.83122668723E+01  0.36435994010E+02  0.00000000000E+00 0.  1.
</event>
<event>
 7    1  0.2284751E-015  0.9000780E+02  0.7816164E-02  0.1186339E+00
        -11   -1    0    0    0    0  0.00000000000E+00  0.00000000000E+00  0.45593999997E+02  0.45594000000E+02  0.51100000000E-03 0. -1.
         11   -1    0    0    0    0 -0.00000000000E+00 -0.00000000000E+00 -0.45593999997E+02  0.45594000000E+02  0.51100000000E-03 0.  1.
    9900012    2    1    2    0    0 -0.43336503948E+00  0.44481874696E+00  0.10035931538E+01  0.90007801630E+02  0.90000063811E+02 0.  0.
         12    1    1    2    0    0  0.43336503948E+00 -0.44481874696E+00 -0.10035931538E+01  0.11801983703E+01  0.00000000000E+00 0. -1.
         11    1    3    3    0    0  0.43365926543E+02 -0.39591547405E+01  0.46620891283E+01  0.43795131767E+02  0.51100000000E-03 0. -1.
        -11    1    3    3    0    0 -0.81520279732E+01  0.72584676794E-02  0.45968581214E+01  0.93587775703E+01  0.51100000000E-03 0.  1.
        -12    1    3    3    0    0 -0.35647263610E+02  0.43967150197E+01 -0.82553540960E+01  0.36853892292E+02  0.00000000000E+00 0.  1.
</event>
<event>
 7    1  0.2284751E-015  0.9000777E+02  0.7816164E-02  0.1186339E+00
        -11   -1    0    0    0    0  0.00000000000E+00  0.00000000000E+00  0.45593999997E+02  0.45594000000E+02  0.51100000000E-03 0.  1.
         11   -1    0    0    0    0 -0.00000000000E+00 -0.00000000000E+00 -0.45593999997E+02  0.45594000000E+02  0.51100000000E-03 0. -1.
    9900012    2    1    2    0    0  0.41383307578E+00 -0.33776558693E+00  0.10524249233E+01  0.90007770520E+02  0.90000032291E+02 0.  0.
         12    1    1    2    0    0 -0.41383307578E+00  0.33776558693E+00 -0.10524249233E+01  0.11802294800E+01  0.00000000000E+00 0. -1.
         11    1    3    3    0    0  0.14232647439E+01  0.90116506494E+01 -0.63447726295E+00  0.91453863569E+01  0.51100000000E-03 0. -1.
        -11    1    3    3    0    0 -0.31620231674E+02  0.20149831902E+02 -0.50054034764E+01  0.37827355723E+02  0.51100000000E-03 0.  1.
         12    1    3    3    0    0  0.30610800006E+02 -0.29499248138E+02  0.66923056627E+01  0.43035028440E+02  0.00000000000E+00 0. -1.
</event>
<event>
 7    1  0.2284751E-015  0.9000765E+02  0.7816164E-02  0.1186339E+00
        -11   -1    0    0    0    0  0.00000000000E+00  0.00000000000E+00  0.45593999997E+02  0.45594000000E+02  0.51100000000E-03 0.  1.
         11   -1    0    0    0    0 -0.00000000000E+00 -0.00000000000E+00 -0.45593999997E+02  0.45594000000E+02  0.51100000000E-03 0. -1.
    9900012    2    1    2    0    0 -0.96646806238E+00  0.83341145787E-01  0.67247346791E+00  0.90007649701E+02  0.89999909877E+02 0.  0.
         12    1    1    2    0    0  0.96646806238E+00 -0.83341145787E-01 -0.67247346791E+00  0.11803502985E+01  0.00000000000E+00 0. -1.
         11    1    3    3    0    0  0.31227300970E+02  0.57475099621E+01 -0.17249895356E+02  0.36134984250E+02  0.51100000000E-03 0. -1.
        -11    1    3    3    0    0  0.60701124538E+01 -0.21645831791E+00 -0.59026787864E+01  0.84696361505E+01  0.51100000000E-03 0.  1.
        -12    1    3    3    0    0 -0.38263881487E+02 -0.54477104984E+01  0.23825047610E+02  0.45403029301E+02  0.00000000000E+00 0.  1.
</event>
<event>
 7    1  0.2284751E-015  0.9000789E+02  0.7816164E-02  0.1186339E+00
        -11   -1    0    0    0    0  0.00000000000E+00  0.00000000000E+00  0.45593999997E+02  0.45594000000E+02  0.51100000000E-03 0. -1.
         11   -1    0    0    0    0 -0.00000000000E+00 -0.00000000000E+00 -0.45593999997E+02  0.45594000000E+02  0.51100000000E-03 0.  1.
    9900012    2    1    2    0    0  0.50805030847E+00  0.99989881706E-01 -0.10604515515E+01  0.90007885351E+02  0.90000148637E+02 0.  0.
         12    1    1    2    0    0 -0.50805030847E+00 -0.99989881706E-01  0.10604515515E+01  0.11801146493E+01  0.00000000000E+00 0. -1.
         11    1    3    3    0    0 -0.17510523463E+01  0.20710112793E+01  0.11042283267E+02  0.11370456985E+02  0.51100000000E-03 0. -1.
        -11    1    3    3    0    0  0.33674239755E+02 -0.21592521402E+02 -0.11748131032E+01  0.40019640049E+02  0.51100000000E-03 0.  1.
         12    1    3    3    0    0 -0.31415137101E+02  0.19621500004E+02 -0.10927921715E+02  0.38617788317E+02  0.00000000000E+00 0. -1.
</event>
<event>
 7    1  0.2284751E-015  0.9000774E+02  0.7816164E-02  0.1186339E+00
        -11   -1    0    0    0    0  0.00000000000E+00  0.00000000000E+00  0.45593999997E+02  0.45594000000E+02  0.51100000000E-03 0.  1.
         11   -1    0    0    0    0 -0.00000000000E+00 -0.00000000000E+00 -0.45593999997E+02  0.45594000000E+02  0.51100000000E-03 0. -1.
    9900012    2    1    2    0    0 -0.29796582138E+00  0.96173450814E+00  0.61587664569E+00  0.90007736920E+02  0.89999998248E+02 0.  0.
         12    1    1    2    0    0  0.29796582138E+00 -0.96173450814E+00 -0.61587664569E+00  0.11802630798E+01  0.00000000000E+00 0. -1.
         11    1    3    3    0    0  0.27109735909E+01  0.26741010396E+02 -0.18332625300E+02  0.32534845403E+02  0.51100000000E-03 0. -1.
        -11    1    3    3    0    0 -0.85618340321E+01 -0.37025501423E+01 -0.14362821377E+02  0.17126135516E+02  0.51100000000E-03 0.  1.
        -12    1    3    3    0    0  0.55528946197E+01 -0.22076725745E+02  0.33311323322E+02  0.40346756001E+02  0.00000000000E+00 0.  1.
</event>
<event>
 7    1  0.2284751E-015  0.9000772E+02  0.7816164E-02  0.1186339E+00
        -11   -1    0    0    0    0  0.00000000000E+00  0.00000000000E+00  0.45593999997E+02  0.45594000000E+02  0.51100000000E-03 0.  1.
         11   -1    0    0    0    0 -0.00000000000E+00 -0.00000000000E+00 -0.45593999997E+02  0.45594000000E+02  0.51100000000E-03 0. -1.
    9900012    2    1    2    0    0 -0.73405323538E+00 -0.92115824172E+00 -0.75398838972E-01  0.90007723912E+02  0.89999985068E+02 0.  0.
         12    1    1    2    0    0  0.73405323538E+00  0.92115824172E+00  0.75398838972E-01  0.11802760879E+01  0.00000000000E+00 0. -1.
         11    1    3    3    0    0  0.61275811202E+01  0.22958947505E+01  0.77183007963E+01  0.10118821598E+02  0.51100000000E-03 0. -1.
        -11    1    3    3    0    0  0.35487427286E+02 -0.13175078595E+01 -0.11520304590E+02  0.37333774795E+02  0.51100000000E-03 0.  1.
         12    1    3    3    0    0 -0.42349061642E+02 -0.18995451327E+01  0.37266049544E+01  0.42555127519E+02  0.00000000000E+00 0. -1.
</event>
<event>
 7    1  0.3188469E-015  0.9000781E+02  0.7816164E-02  0.1186339E+00
        -11   -1    0    0    0    0  0.00000000000E+00  0.00000000000E+00  0.45593999997E+02  0.45594000000E+02  0.51100000000E-03 0. -1.
         11   -1    0    0    0    0 -0.00000000000E+00 -0.00000000000E+00 -0.45593999997E+02  0.45594000000E+02  0.51100000000E-03 0.  1.
    9900012    2    1    2    0    0  0.38846397170E+00  0.30729312338E+00 -0.10712214673E+01  0.90007809866E+02  0.90000072156E+02 0.  0.
         12    1    1    2    0    0 -0.38846397170E+00 -0.30729312338E+00  0.10712214673E+01  0.11801901343E+01  0.00000000000E+00 0. -1.
         11    1    3    3    0    0 -0.62666821134E+01 -0.31965755310E+02  0.17089954744E+02  0.36785151497E+02  0.51100000000E-03 0. -1.
        -11    1    3    3    0    0 -0.79079122743E+01 -0.23126795003E+01  0.44965384468E+01  0.93862890043E+01  0.51100000000E-03 0.  1.
        -12    1    3    3    0    0  0.14563058359E+02  0.34585727934E+02 -0.22657714658E+02  0.43836369364E+02  0.00000000000E+00 0.  1.
</event>
<event>
 7    1  0.2284751E-015  0.9000816E+02  0.7816164E-02  0.1186338E+00
        -11   -1    0    0    0    0  0.00000000000E+00  0.00000000000E+00  0.45593999997E+02  0.45594000000E+02  0.51100000000E-03 0.  1.
         11   -1    0    0    0    0 -0.00000000000E+00 -0.00000000000E+00 -0.45593999997E+02  0.45594000000E+02  0.51100000000E-03 0. -1.
    9900012    2    1    2    0    0 -0.70096850622E-01  0.70212086257E+00  0.94558411934E+00  0.90008162468E+02  0.90000429412E+02 0.  0.
         12    1    1    2    0    0  0.70096850622E-01 -0.70212086257E+00 -0.94558411934E+00  0.11798375316E+01  0.00000000000E+00 0. -1.
         11    1    3    3    0    0 -0.17565618172E+01 -0.17797505167E+02 -0.26539411537E+02  0.32002766515E+02  0.51100000000E-03 0. -1.
        -11    1    3    3    0    0  0.16495150208E+02  0.32869527127E+01 -0.64191173187E+01  0.18002752732E+02  0.51100000000E-03 0.  1.
        -12    1    3    3    0    0 -0.14808685242E+02  0.15212673317E+02  0.33904112975E+02  0.40002643221E+02  0.00000000000E+00 0.  1.
</event>
<event>
 7    1  0.2284751E-015  0.9000705E+02  0.7816164E-02  0.1186340E+00
        -11   -1    0    0    0    0  0.00000000000E+00  0.00000000000E+00  0.45593999997E+02  0.45594000000E+02  0.51100000000E-03 0. -1.
         11   -1    0    0    0    0 -0.00000000000E+00 -0.00000000000E+00 -0.45593999997E+02  0.45594000000E+02  0.51100000000E-03 0.  1.
    9900012    2    1    2    0    0  0.65052313858E+00  0.95158202134E+00 -0.25683686989E+00  0.90007045354E+02  0.89999297550E+02 0.  0.
         12    1    1    2    0    0 -0.65052313858E+00 -0.95158202134E+00  0.25683686989E+00  0.11809546456E+01  0.00000000000E+00 0. -1.
         11    1    3    3    0    0 -0.84000509481E+01  0.69301714243E+01  0.10283026272E+01  0.10938260303E+02  0.51100000000E-03 0. -1.
        -11    1    3    3    0    0  0.14357994788E+01 -0.40790860606E+02  0.93635702651E+01  0.41876392842E+02  0.51100000000E-03 0.  1.
         12    1    3    3    0    0  0.76147746078E+01  0.34812271203E+02 -0.10648709762E+02  0.37192392209E+02  0.00000000000E+00 0. -1.
</event>
<event>
 7    1  0.2284751E-015  0.9000795E+02  0.7816164E-02  0.1186339E+00
        -11   -1    0    0    0    0  0.00000000000E+00  0.00000000000E+00  0.45593999997E+02  0.45594000000E+02  0.51100000000E-03 0.  1.
         11   -1    0    0    0    0 -0.00000000000E+00 -0.00000000000E+00 -0.45593999997E+02  0.45594000000E+02  0.51100000000E-03 0. -1.
    9900012    2    1    2    0    0 -0.20944569864E+00  0.11154556393E+01  0.32312500366E+00  0.90007949767E+02  0.90000213904E+02 0.  0.
         12    1    1    2    0    0  0.20944569864E+00 -0.11154556393E+01 -0.32312500366E+00  0.11800502328E+01  0.00000000000E+00 0. -1.
         11    1    3    3    0    0  0.40295728227E+01 -0.13110668290E+02 -0.85419149401E+01  0.16158322662E+02  0.51100000000E-03 0. -1.
        -11    1    3    3    0    0 -0.70369871806E+01 -0.27067942217E+02  0.15432611933E+02  0.31943046126E+02  0.51100000000E-03 0.  1.
         12    1    3    3    0    0  0.27979686592E+01  0.41294066147E+02 -0.65675719889E+01  0.41906580979E+02  0.00000000000E+00 0. -1.
</event>
<event>
 7    1  0.2284751E-015  0.9000775E+02  0.7816164E-02  0.1186339E+00
        -11   -1    0    0    0    0  0.00000000000E+00  0.00000000000E+00  0.45593999997E+02  0.45594000000E+02  0.51100000000E-03 0.  1.
         11   -1    0    0    0    0 -0.00000000000E+00 -0.00000000000E+00 -0.45593999997E+02  0.45594000000E+02  0.51100000000E-03 0. -1.
    9900012    2    1    2    0    0 -0.11607555471E+01  0.20213504771E+00 -0.69117067130E-01  0.90007750371E+02  0.90000011876E+02 0.  0.
         12    1    1    2    0    0  0.11607555471E+01 -0.20213504771E+00  0.69117067130E-01  0.11802496290E+01  0.00000000000E+00 0. -1.
         11    1    3    3    0    0  0.69051453838E+00  0.63246224540E+01  0.75697201840E+01  0.98882922407E+01  0.51100000000E-03 0. -1.
        -11    1    3    3    0    0 -0.33075006345E+02 -0.24094791651E+02  0.64688552194E+01  0.41428988855E+02  0.51100000000E-03 0.  1.
         12    1    3    3    0    0  0.31223736260E+02  0.17972304245E+02 -0.14107692470E+02  0.38690469275E+02  0.00000000000E+00 0. -1.
</event>
<event>
 7    1  0.2284751E-015  0.9000760E+02  0.7816164E-02  0.1186339E+00
        -11   -1    0    0    0    0  0.00000000000E+00  0.00000000000E+00  0.45593999997E+02  0.45594000000E+02  0.51100000000E-03 0. -1.
         11   -1    0    0    0    0 -0.00000000000E+00 -0.00000000000E+00 -0.45593999997E+02  0.45594000000E+02  0.51100000000E-03 0.  1.
    9900012    2    1    2    0    0  0.10543351315E+01  0.46888392038E+00  0.24874151220E+00  0.90007598780E+02  0.89999858284E+02 0.  0.
         12    1    1    2    0    0 -0.10543351315E+01 -0.46888392038E+00 -0.24874151220E+00  0.11804012200E+01  0.00000000000E+00 0. -1.
         11    1    3    3    0    0  0.53631721683E+01  0.20728902028E+02  0.34785051282E+02  0.40846674135E+02  0.51100000000E-03 0. -1.
        -11    1    3    3    0    0  0.63120913117E+01 -0.72208433314E+01  0.11997009194E+01  0.96655241814E+01  0.51100000000E-03 0.  1.
        -12    1    3    3    0    0 -0.10620928349E+02 -0.13039174776E+02 -0.35736010689E+02  0.39495400463E+02  0.00000000000E+00 0.  1.
</event>
<event>
 7    1  0.2284751E-015  0.9000777E+02  0.7816164E-02  0.1186339E+00
        -11   -1    0    0    0    0  0.00000000000E+00  0.00000000000E+00  0.45593999997E+02  0.45594000000E+02  0.51100000000E-03 0.  1.
         11   -1    0    0    0    0 -0.00000000000E+00 -0.00000000000E+00 -0.45593999997E+02  0.45594000000E+02  0.51100000000E-03 0. -1.
    9900012    2    1    2    0    0 -0.11086803725E+01  0.15826984311E+00 -0.37245253544E+00  0.90007770191E+02  0.90000031957E+02 0.  0.
         12    1    1    2    0    0  0.11086803725E+01 -0.15826984311E+00  0.37245253544E+00  0.11802298093E+01  0.00000000000E+00 0. -1.
         11    1    3    3    0    0  0.10811139787E+02  0.12741368225E+02 -0.27270062623E+02  0.31982487762E+02  0.51100000000E-03 0. -1.
        -11    1    3    3    0    0 -0.15733603950E+01 -0.74945914016E+01 -0.13769228357E+02  0.15755507387E+02  0.51100000000E-03 0.  1.
        -12    1    3    3    0    0 -0.10346459764E+02 -0.50885069802E+01  0.40666838445E+02  0.42269775041E+02  0.00000000000E+00 0.  1.
</event>
<event>
 7    1  0.2284751E-015  0.9000751E+02  0.7816164E-02  0.1186340E+00
        -11   -1    0    0    0    0  0.00000000000E+00  0.00000000000E+00  0.45593999997E+02  0.45594000000E+02  0.51100000000E-03 0.  1.
         11   -1    0    0    0    0 -0.00000000000E+00 -0.00000000000E+00 -0.45593999997E+02  0.45594000000E+02  0.51100000000E-03 0. -1.
    9900012    2    1    2    0    0  0.42700002876E+00  0.59966290993E+00  0.92283722534E+00  0.90007511468E+02  0.89999769819E+02 0.  0.
         12    1    1    2    0    0 -0.42700002876E+00 -0.59966290993E+00 -0.92283722534E+00  0.11804885322E+01  0.00000000000E+00 0. -1.
         11    1    3    3    0    0  0.90920357116E+01 -0.10807525833E+01  0.27324267893E+01  0.95550665067E+01  0.51100000000E-03 0. -1.
        -11    1    3    3    0    0  0.19492407825E+02  0.26244409075E+02  0.18869037370E+02  0.37746040085E+02  0.51100000000E-03 0.  1.
         12    1    3    3    0    0 -0.28157443508E+02 -0.24563993582E+02 -0.20678626934E+02  0.42706404877E+02  0.00000000000E+00 0. -1.
</event>
<event>
 7    1  0.2284751E-015  0.9000852E+02  0.7816164E-02  0.1186337E+00
        -11   -1    0    0    0    0  0.00000000000E+00  0.00000000000E+00  0.45593999997E+02  0.45594000000E+02  0.51100000000E-03 0.  1.
         11   -1    0    0    0    0 -0.00000000000E+00 -0.00000000000E+00 -0.45593999997E+02  0.45594000000E+02  0.51100000000E-03 0. -1.
    9900012    2    1    2    0    0  0.71077583447E+00  0.55372767763E+00  0.76115417940E+00  0.90008520321E+02  0.90000791986E+02 0.  0.
         12    1    1    2    0    0 -0.71077583447E+00 -0.55372767763E+00 -0.76115417940E+00  0.11794796788E+01  0.00000000000E+00 0. -1.
         11    1    3    3    0    0  0.34630014923E+01  0.15589847153E+01 -0.93135220326E+01  0.10058056750E+02  0.51100000000E-03 0. -1.
        -11    1    3    3    0    0 -0.34117893956E+02  0.46503522022E+01  0.27098241381E+02  0.43817475393E+02  0.51100000000E-03 0.  1.
         12    1    3    3    0    0  0.31365668298E+02 -0.56556092398E+01 -0.17023565169E+02  0.36132988178E+02  0.00000000000E+00 0. -1.
</event>
<event>
 7    1  0.2284751E-015  0.9000901E+02  0.7816164E-02  0.1186337E+00
        -11   -1    0    0    0    0  0.00000000000E+00  0.00000000000E+00  0.45593999997E+02  0.45594000000E+02  0.51100000000E-03 0.  1.
         11   -1    0    0    0    0 -0.00000000000E+00 -0.00000000000E+00 -0.45593999997E+02  0.45594000000E+02  0.51100000000E-03 0. -1.
    9900012    2    1    2    0    0 -0.24980959753E+00  0.75659794447E+00  0.86901003723E+00  0.90009007324E+02  0.90001285412E+02 0.  0.
         12    1    1    2    0    0  0.24980959753E+00 -0.75659794447E+00 -0.86901003723E+00  0.11789926757E+01  0.00000000000E+00 0. -1.
         11    1    3    3    0    0 -0.20233791609E+02 -0.21363144136E+02 -0.21811173040E+02  0.36626732313E+02  0.51100000000E-03 0. -1.
        -11    1    3    3    0    0 -0.55873978947E+00  0.30233783282E+01 -0.99150650441E+01  0.10380824715E+02  0.51100000000E-03 0.  1.
        -12    1    3    3    0    0  0.20542721801E+02  0.19096363752E+02  0.32595248121E+02  0.43001450297E+02  0.00000000000E+00 0.  1.
</event>
<event>
 7    1  0.2284751E-015  0.9000769E+02  0.7816164E-02  0.1186339E+00
        -11   -1    0    0    0    0  0.00000000000E+00  0.00000000000E+00  0.45593999997E+02  0.45594000000E+02  0.51100000000E-03 0.  1.
         11   -1    0    0    0    0 -0.00000000000E+00 -0.00000000000E+00 -0.45593999997E+02  0.45594000000E+02  0.51100000000E-03 0. -1.
    9900012    2    1    2    0    0  0.54308871707E+00 -0.13084731383E+00  0.10397439445E+01  0.90007689090E+02  0.89999949786E+02 0.  0.
         12    1    1    2    0    0 -0.54308871707E+00  0.13084731383E+00 -0.10397439445E+01  0.11803109100E+01  0.00000000000E+00 0. -1.
         11    1    3    3    0    0  0.23466429274E+01  0.36306516179E+01  0.68203658009E+01  0.80750079949E+01  0.51100000000E-03 0. -1.
        -11    1    3    3    0    0  0.16079851324E+02  0.29803977046E+02 -0.22215304297E+02  0.40501338393E+02  0.51100000000E-03 0.  1.
         12    1    3    3    0    0 -0.17883405534E+02 -0.33565475978E+02  0.16434682441E+02  0.41431342702E+02  0.00000000000E+00 0. -1.
</event>
<event>
 7    1  0.2284751E-015  0.9000776E+02  0.7816164E-02  0.1186339E+00
        -11   -1    0    0    0    0  0.00000000000E+00  0.00000000000E+00  0.45593999997E+02  0.45594000000E+02  0.51100000000E-03 0.  1.
         11   -1    0    0    0    0 -0.00000000000E+00 -0.00000000000E+00 -0.45593999997E+02  0.45594000000E+02  0.51100000000E-03 0. -1.
    9900012    2    1    2    0    0  0.10845333576E+01  0.37904466203E+00 -0.27034084358E+00  0.90007757808E+02  0.90000019411E+02 0.  0.
         12    1    1    2    0    0 -0.10845333576E+01 -0.37904466203E+00  0.27034084358E+00  0.11802421918E+01  0.00000000000E+00 0. -1.
         11    1    3    3    0    0 -0.28177552788E+01  0.28917464339E+00  0.86919864133E+01  0.91418813630E+01  0.51100000000E-03 0. -1.
        -11    1    3    3    0    0  0.84017290822E+01 -0.31667241887E+02  0.19378200235E+02  0.38064654273E+02  0.51100000000E-03 0.  1.
         12    1    3    3    0    0 -0.44994404458E+01  0.31757111906E+02 -0.28340527491E+02  0.42801222172E+02  0.00000000000E+00 0. -1.
</event>
<event>
 7    1  0.2284751E-015  0.9000770E+02  0.7816164E-02  0.1186339E+00
        -11   -1    0    0    0    0  0.00000000000E+00  0.00000000000E+00  0.45593999997E+02  0.45594000000E+02  0.51100000000E-03 0. -1.
         11   -1    0    0    0    0 -0.00000000000E+00 -0.00000000000E+00 -0.45593999997E+02  0.45594000000E+02  0.51100000000E-03 0.  1.
    9900012    2    1    2    0    0 -0.10814353629E+01 -0.46730164320E+00 -0.72280833057E-01  0.90007704364E+02  0.89999965261E+02 0.  0.
         12    1    1    2    0    0  0.10814353629E+01  0.46730164320E+00  0.72280833057E-01  0.11802956361E+01  0.00000000000E+00 0. -1.
         11    1    3    3    0    0  0.19039295182E+01  0.61964524307E+01 -0.57462152400E+01  0.86625608328E+01  0.51100000000E-03 0. -1.
        -11    1    3    3    0    0 -0.28420653357E+02  0.12196092997E+02 -0.23067037448E+02  0.38581944463E+02  0.51100000000E-03 0.  1.
         12    1    3    3    0    0  0.25435288476E+02 -0.18859847070E+02  0.28740971855E+02  0.42763199068E+02  0.00000000000E+00 0. -1.
</event>
<event>
 7    1  0.3043635E-015  0.9000766E+02  0.7816164E-02  0.1186339E+00
        -11   -1    0    0    0    0  0.00000000000E+00  0.00000000000E+00  0.45593999997E+02  0.45594000000E+02  0.51100000000E-03 0. -1.
         11   -1    0    0    0    0 -0.00000000000E+00 -0.00000000000E+00 -0.45593999997E+02  0.45594000000E+02  0.51100000000E-03 0.  1.
    9900012    2    1    2    0    0 -0.10047622742E+01  0.21017800218E+00 -0.58264915343E+00  0.90007660195E+02  0.89999920509E+02 0.  0.
         12    1    1    2    0    0  0.10047622742E+01 -0.21017800218E+00  0.58264915343E+00  0.11803398054E+01  0.00000000000E+00 0. -1.
         11    1    3    3    0    0 -0.67442640906E+01 -0.10125467632E+01  0.37296802513E+02  0.37915192562E+02  0.51100000000E-03 0. -1.
        -11    1    3    3    0    0  0.18674940622E+01 -0.83335200322E+01  0.36607571039E+01  0.92917292811E+01  0.51100000000E-03 0.  1.
        -12    1    3    3    0    0  0.38720077542E+01  0.95562447975E+01 -0.41540208771E+02  0.42800738351E+02  0.00000000000E+00 0.  1.
</event>
<event>
 7    1  0.2284751E-015  0.9000776E+02  0.7816164E-02  0.1186339E+00
        -11   -1    0    0    0    0  0.00000000000E+00  0.00000000000E+00  0.45593999997E+02  0.45594000000E+02  0.51100000000E-03 0. -1.
         11   -1    0    0    0    0 -0.00000000000E+00 -0.00000000000E+00 -0.45593999997E+02  0.45594000000E+02  0.51100000000E-03 0.  1.
    9900012    2    1    2    0    0  0.36867854610E+00  0.11085717216E+01  0.16766570548E+00  0.90007759804E+02  0.90000021433E+02 0.  0.
         12    1    1    2    0    0 -0.36867854610E+00 -0.11085717216E+01 -0.16766570548E+00  0.11802401964E+01  0.00000000000E+00 0. -1.
         11    1    3    3    0    0 -0.42443922637E+01  0.56830819978E+01  0.87947120304E+01  0.11298639150E+02  0.51100000000E-03 0. -1.
        -11    1    3    3    0    0 -0.19062101064E+02  0.90193442517E+01 -0.34928168692E+02  0.40800603379E+02  0.51100000000E-03 0.  1.
         12    1    3    3    0    0  0.23675171874E+02 -0.13593854528E+02  0.26301122367E+02  0.37908517274E+02  0.00000000000E+00 0. -1.
</event>
<event>
 7    1  0.2679734E-015  0.9000779E+02  0.7816164E-02  0.1186339E+00
        -11   -1    0    0    0    0  0.00000000000E+00  0.00000000000E+00  0.45593999997E+02  0.45594000000E+02  0.51100000000E-03 0.  1.
         11   -1    0    0    0    0 -0.00000000000E+00 -0.00000000000E+00 -0.45593999997E+02  0.45594000000E+02  0.51100000000E-03 0. -1.
    9900012    2    1    2    0    0 -0.97785360960E-01 -0.11520470801E+01 -0.23688949257E+00  0.90007791932E+02  0.90000053986E+02 0.  0.
         12    1    1    2    0    0  0.97785360960E-01  0.11520470801E+01  0.23688949257E+00  0.11802080678E+01  0.00000000000E+00 0. -1.
         11    1    3    3    0    0 -0.52574837216E+01 -0.22104868865E+02 -0.30818194696E+02  0.38288738386E+02  0.51100000000E-03 0. -1.
        -11    1    3    3    0    0 -0.12977366334E+01  0.43480133653E+01 -0.80143484498E+01  0.92097297426E+01  0.51100000000E-03 0.  1.
        -12    1    3    3    0    0  0.64574349940E+01  0.16604808419E+02  0.38595653653E+02  0.42509323804E+02  0.00000000000E+00 0.  1.
</event>
<event>
 7    1  0.2284751E-015  0.9000763E+02  0.7816164E-02  0.1186339E+00
        -11   -1    0    0    0    0  0.00000000000E+00  0.00000000000E+00  0.45593999997E+02  0.45594000000E+02  0.51100000000E-03 0.  1.
         11   -1    0    0    0    0 -0.00000000000E+00 -0.00000000000E+00 -0.45593999997E+02  0.45594000000E+02  0.51100000000E-03 0. -1.
    9900012    2    1    2    0    0  0.82210340224E+00  0.37700570309E+00  0.75847111542E+00  0.90007633219E+02  0.89999893178E+02 0.  0.
         12    1    1    2    0    0 -0.82210340224E+00 -0.37700570309E+00 -0.75847111542E+00  0.11803667807E+01  0.00000000000E+00 0. -1.
         11    1    3    3    0    0  0.28070509657E+02 -0.64764947357E+01 -0.20724197890E+02  0.35487897584E+02  0.51100000000E-03 0. -1.
        -11    1    3    3    0    0  0.49045153169E+00  0.12622259005E+02 -0.69190835514E+01  0.14402627626E+02  0.51100000000E-03 0.  1.
        -12    1    3    3    0    0 -0.27738857787E+02 -0.57687585662E+01  0.28401752557E+02  0.40117108009E+02  0.00000000000E+00 0.  1.
</event>
<event>
 7    1  0.2284751E-015  0.9000775E+02  0.7816164E-02  0.1186339E+00
        -11   -1    0    0    0    0  0.00000000000E+00  0.00000000000E+00  0.45593999997E+02  0.45594000000E+02  0.51100000000E-03 0.  1.
         11   -1    0    0    0    0 -0.00000000000E+00 -0.00000000000E+00 -0.45593999997E+02  0.45594000000E+02  0.51100000000E-03 0. -1.
    9900012    2    1    2    0    0 -0.18755060891E+00  0.96790746500E+00  0.64882079863E+00  0.90007750653E+02  0.90000012162E+02 0.  0.
         12    1    1    2    0    0  0.18755060891E+00 -0.96790746500E+00 -0.64882079863E+00  0.11802493467E+01  0.00000000000E+00 0. -1.
         11    1    3    3    0    0  0.65849982234E+01 -0.35634582918E+01 -0.54674469061E+01  0.92711063272E+01  0.51100000000E-03 0. -1.
        -11    1    3    3    0    0 -0.32075285972E+01 -0.34028943971E+02  0.19996502605E+02  0.39599461918E+02  0.51100000000E-03 0.  1.
         12    1    3    3    0    0 -0.35650202351E+01  0.38560309728E+02 -0.13880234900E+02  0.41137182408E+02  0.00000000000E+00 0. -1.
</event>
<event>
 7    1  0.2284751E-015  0.9000779E+02  0.7816164E-02  0.1186339E+00
        -11   -1    0    0    0    0  0.00000000000E+00  0.00000000000E+00  0.45593999997E+02  0.45594000000E+02  0.51100000000E-03 0.  1.
         11   -1    0    0    0    0 -0.00000000000E+00 -0.00000000000E+00 -0.45593999997E+02  0.45594000000E+02  0.51100000000E-03 0. -1.
    9900012    2    1    2    0    0  0.80042703813E+00  0.21969514992E+00  0.83901700994E+00  0.90007788601E+02  0.90000050611E+02 0.  0.
         12    1    1    2    0    0 -0.80042703813E+00 -0.21969514992E+00 -0.83901700994E+00  0.11802113985E+01  0.00000000000E+00 0. -1.
         11    1    3    3    0    0 -0.57134726867E+01 -0.48982553233E+01  0.53776803346E+01  0.92496552041E+01  0.51100000000E-03 0. -1.
        -11    1    3    3    0    0 -0.43851077704E+01 -0.34514151448E+02  0.11490272079E+02  0.36639898650E+02  0.51100000000E-03 0.  1.
         12    1    3    3    0    0  0.10899007495E+02  0.39632101921E+02 -0.16028935404E+02  0.44118234748E+02  0.00000000000E+00 0. -1.
</event>
<event>
 7    1  0.2284751E-015  0.9000769E+02  0.7816164E-02  0.1186339E+00
        -11   -1    0    0    0    0  0.00000000000E+00  0.00000000000E+00  0.45593999997E+02  0.45594000000E+02  0.51100000000E-03 0.  1.
         11   -1    0    0    0    0 -0.00000000000E+00 -0.00000000000E+00 -0.45593999997E+02  0.45594000000E+02  0.51100000000E-03 0. -1.
    9900012    2    1    2    0    0 -0.59211119108E+00  0.53396045895E+00  0.87029745591E+00  0.90007691949E+02  0.89999952682E+02 0.  0.
         12    1    1    2    0    0  0.59211119108E+00 -0.53396045895E+00 -0.87029745591E+00  0.11803080514E+01  0.00000000000E+00 0. -1.
         11    1    3    3    0    0  0.16085755162E+02  0.12178395044E+02 -0.21811773986E+02  0.29712258575E+02  0.51100000000E-03 0. -1.
        -11    1    3    3    0    0 -0.13087955055E+02  0.87023103593E+01 -0.12103037700E+02  0.19837043503E+02  0.51100000000E-03 0.  1.
        -12    1    3    3    0    0 -0.35899112978E+01 -0.20346744945E+02  0.34785109141E+02  0.40458389871E+02  0.00000000000E+00 0.  1.
</event>
<event>
 7    1  0.2284751E-015  0.9000761E+02  0.7816164E-02  0.1186339E+00
        -11   -1    0    0    0    0  0.00000000000E+00  0.00000000000E+00  0.45593999997E+02  0.45594000000E+02  0.51100000000E-03 0. -1.
         11   -1    0    0    0    0 -0.00000000000E+00 -0.00000000000E+00 -0.45593999997E+02  0.45594000000E+02  0.51100000000E-03 0.  1.
    9900012    2    1    2    0    0  0.71182889629E+00 -0.79436083133E+00 -0.50558628126E+00  0.90007607271E+02  0.89999866886E+02 0.  0.
         12    1    1    2    0    0 -0.71182889629E+00  0.79436083133E+00  0.50558628126E+00  0.11803927295E+01  0.00000000000E+00 0. -1.
         11    1    3    3    0    0 -0.76152880381E+01 -0.24937984735E+01 -0.24502676787E+01  0.83794662532E+01  0.51100000000E-03 0. -1.
        -11    1    3    3    0    0 -0.61363465748E+01 -0.94345074691E+01 -0.36970192696E+02  0.38645307978E+02  0.51100000000E-03 0.  1.
         12    1    3    3    0    0  0.14463463509E+02  0.11133945111E+02  0.38914874093E+02  0.42982833040E+02  0.00000000000E+00 0. -1.
</event>
<event>
 7    1  0.2284751E-015  0.9000778E+02  0.7816164E-02  0.1186339E+00
        -11   -1    0    0    0    0  0.00000000000E+00  0.00000000000E+00  0.45593999997E+02  0.45594000000E+02  0.51100000000E-03 0. -1.
         11   -1    0    0    0    0 -0.00000000000E+00 -0.00000000000E+00 -0.45593999997E+02  0.45594000000E+02  0.51100000000E-03 0.  1.
    9900012    2    1    2    0    0 -0.28638224749E+00 -0.10627261839E+01  0.42606105404E+00  0.90007775549E+02  0.90000037386E+02 0.  0.
         12    1    1    2    0    0  0.28638224749E+00  0.10627261839E+01 -0.42606105404E+00  0.11802244513E+01  0.00000000000E+00 0. -1.
         11    1    3    3    0    0 -0.91281600346E+01 -0.34201301059E+01  0.74269526965E+00  0.97761031134E+01  0.51100000000E-03 0. -1.
        -11    1    3    3    0    0 -0.13573691429E+02 -0.13986409852E+02 -0.32404750933E+02  0.37814450186E+02  0.51100000000E-03 0.  1.
         12    1    3    3    0    0  0.22415469216E+02  0.16343813774E+02  0.32088116718E+02  0.42417222249E+02  0.00000000000E+00 0. -1.
</event>
<event>
 7    1  0.2284751E-015  0.9000770E+02  0.7816164E-02  0.1186339E+00
        -11   -1    0    0    0    0  0.00000000000E+00  0.00000000000E+00  0.45593999997E+02  0.45594000000E+02  0.51100000000E-03 0. -1.
         11   -1    0    0    0    0 -0.00000000000E+00 -0.00000000000E+00 -0.45593999997E+02  0.45594000000E+02  0.51100000000E-03 0.  1.
    9900012    2    1    2    0    0 -0.91763555542E+00 -0.66758966776E-01 -0.73932806252E+00  0.90007695905E+02  0.89999956691E+02 0.  0.
         12    1    1    2    0    0  0.91763555542E+00  0.66758966776E-01  0.73932806252E+00  0.11803040948E+01  0.00000000000E+00 0. -1.
         11    1    3    3    0    0 -0.59347802198E+01 -0.80056278074E+01 -0.11894608035E+01  0.10036259767E+02  0.51100000000E-03 0. -1.
        -11    1    3    3    0    0  0.99854130864E+01 -0.60716380776E+01 -0.37465499643E+02  0.39245852357E+02  0.51100000000E-03 0.  1.
         12    1    3    3    0    0 -0.49682684220E+01  0.14010506918E+02  0.37915632384E+02  0.40725583781E+02  0.00000000000E+00 0. -1.
</event>
<event>
 7    1  0.2284751E-015  0.9000780E+02  0.7816164E-02  0.1186339E+00
        -11   -1    0    0    0    0  0.00000000000E+00  0.00000000000E+00  0.45593999997E+02  0.45594000000E+02  0.51100000000E-03 0.  1.
         11   -1    0    0    0    0 -0.00000000000E+00 -0.00000000000E+00 -0.45593999997E+02  0.45594000000E+02  0.51100000000E-03 0. -1.
    9900012    2    1    2    0    0 -0.16075752816E+00  0.10536585080E+00  0.11644418153E+01  0.90007800997E+02  0.90000063170E+02 0.  0.
         12    1    1    2    0    0  0.16075752816E+00 -0.10536585080E+00 -0.11644418153E+01  0.11801990030E+01  0.00000000000E+00 0. -1.
         11    1    3    3    0    0 -0.31677508854E+02 -0.63428799939E+01 -0.50063480346E+01  0.32691898304E+02  0.51100000000E-03 0. -1.
        -11    1    3    3    0    0 -0.50408336348E+01  0.14292733101E+02  0.12183785716E+02  0.19445741381E+02  0.51100000000E-03 0.  1.
        -12    1    3    3    0    0  0.36557584961E+02 -0.78444872565E+01 -0.60129958661E+01  0.37870161312E+02  0.00000000000E+00 0.  1.
</event>
<event>
 7    1  0.2284751E-015  0.9000756E+02  0.7816164E-02  0.1186339E+00
        -11   -1    0    0    0    0  0.00000000000E+00  0.00000000000E+00  0.45593999997E+02  0.45594000000E+02  0.51100000000E-03 0.  1.
         11   -1    0    0    0    0 -0.00000000000E+00 -0.00000000000E+00 -0.45593999997E+02  0.45594000000E+02  0.51100000000E-03 0. -1.
    9900012    2    1    2    0    0 -0.54304527894E+00 -0.10182385580E+01  0.24846402960E+00  0.90007558426E+02  0.89999817397E+02 0.  0.
         12    1    1    2    0    0  0.54304527894E+00  0.10182385580E+01 -0.24846402960E+00  0.11804415742E+01  0.00000000000E+00 0. -1.
         11    1    3    3    0    0 -0.32045285414E+01  0.37734354272E+00  0.78063661129E+01  0.84469369284E+01  0.51100000000E-03 0. -1.
        -11    1    3    3    0    0  0.64740385212E+01  0.17280444182E+02  0.32401464973E+02  0.37287824535E+02  0.51100000000E-03 0.  1.
         12    1    3    3    0    0 -0.38125552587E+01 -0.18676026283E+02 -0.39959367056E+02  0.44272796962E+02  0.00000000000E+00 0. -1.
</event>
<event>
 7    1  0.2284751E-015  0.9000770E+02  0.7816164E-02  0.1186339E+00
        -11   -1    0    0    0    0  0.00000000000E+00  0.00000000000E+00  0.45593999997E+02  0.45594000000E+02  0.51100000000E-03 0. -1.
         11   -1    0    0    0    0 -0.00000000000E+00 -0.00000000000E+00 -0.45593999997E+02  0.45594000000E+02  0.51100000000E-03 0.  1.
    9900012    2    1    2    0    0 -0.70934719591E+00 -0.27741850162E+00  0.90165077446E+00  0.90007699789E+02  0.89999960626E+02 0.  0.
         12    1    1    2    0    0  0.70934719591E+00  0.27741850162E+00 -0.90165077446E+00  0.11803002112E+01  0.00000000000E+00 0. -1.
         11    1    3    3    0    0  0.32840659480E+01  0.86365121695E+01 -0.58354649077E+00  0.92582373253E+01  0.51100000000E-03 0. -1.
        -11    1    3    3    0    0 -0.16554437217E+02  0.32375894650E+02  0.76340986399E+01  0.37155449240E+02  0.51100000000E-03 0.  1.
         12    1    3    3    0    0  0.12561024073E+02 -0.41289825321E+02 -0.61489013747E+01  0.43594013223E+02  0.00000000000E+00 0. -1.
</event>
<event>
 7    1  0.2284751E-015  0.9000779E+02  0.7816164E-02  0.1186339E+00
        -11   -1    0    0    0    0  0.00000000000E+00  0.00000000000E+00  0.45593999997E+02  0.45594000000E+02  0.51100000000E-03 0.  1.
         11   -1    0    0    0    0 -0.00000000000E+00 -0.00000000000E+00 -0.45593999997E+02  0.45594000000E+02  0.51100000000E-03 0. -1.
    9900012    2    1    2    0    0 -0.65379752037E+00 -0.62264680981E+00 -0.76010856240E+00  0.90007785920E+02  0.90000047894E+02 0.  0.
         12    1    1    2    0    0  0.65379752037E+00  0.62264680981E+00  0.76010856240E+00  0.11802140798E+01  0.00000000000E+00 0. -1.
         11    1    3    3    0    0  0.32244440460E+02 -0.14332083067E+02  0.46826374880E+01  0.35595500274E+02  0.51100000000E-03 0. -1.
        -11    1    3    3    0    0  0.73406307143E+01 -0.28946160624E+01 -0.74281586651E+01  0.10837029245E+02  0.51100000000E-03 0.  1.
        -12    1    3    3    0    0 -0.40238868695E+02  0.16604052319E+02  0.19854126147E+01  0.43575256402E+02  0.00000000000E+00 0.  1.
</event>
<event>
 7    1  0.2284751E-015  0.9000772E+02  0.7816164E-02  0.1186339E+00
        -11   -1    0    0    0    0  0.00000000000E+00  0.00000000000E+00  0.45593999997E+02  0.45594000000E+02  0.51100000000E-03 0. -1.
         11   -1    0    0    0    0 -0.00000000000E+00 -0.00000000000E+00 -0.45593999997E+02  0.45594000000E+02  0.51100000000E-03 0.  1.
    9900012    2    1    2    0    0 -0.25497296466E+00 -0.92342536663E-01 -0.11487085131E+01  0.90007716303E+02  0.89999977358E+02 0.  0.
         12    1    1    2    0    0  0.25497296466E+00  0.92342536663E-01  0.11487085131E+01  0.11802836968E+01  0.00000000000E+00 0. -1.
         11    1    3    3    0    0 -0.28845272253E+02  0.30208018322E+02  0.69225660914E+01  0.42337879303E+02  0.51100000000E-03 0. -1.
        -11    1    3    3    0    0  0.55986615866E+01 -0.30986718286E+01  0.65608503751E+01  0.91646896602E+01  0.51100000000E-03 0.  1.
        -12    1    3    3    0    0  0.22991637701E+02 -0.27201689030E+02 -0.14632124980E+02  0.38505147341E+02  0.00000000000E+00 0.  1.
</event>
<event>
 7    1  0.2284751E-015  0.9000787E+02  0.7816164E-02  0.1186339E+00
        -11   -1    0    0    0    0  0.00000000000E+00  0.00000000000E+00  0.45593999997E+02  0.45594000000E+02  0.51100000000E-03 0. -1.
         11   -1    0    0    0    0 -0.00000000000E+00 -0.00000000000E+00 -0.45593999997E+02  0.45594000000E+02  0.51100000000E-03 0.  1.
    9900012    2    1    2    0    0  0.10251855509E+01 -0.51190322359E+00 -0.28225130846E+00  0.90007866056E+02  0.90000129088E+02 0.  0.
         12    1    1    2    0    0 -0.10251855509E+01  0.51190322359E+00  0.28225130846E+00  0.11801339437E+01  0.00000000000E+00 0. -1.
         11    1    3    3    0    0 -0.45336694473E+01  0.12995962404E+01 -0.53581192543E+01  0.71381055785E+01  0.51100000000E-03 0. -1.
        -11    1    3    3    0    0  0.39441539634E+02  0.16703507753E+02  0.98891128871E+01  0.43959490146E+02  0.51100000000E-03 0.  1.
         12    1    3    3    0    0 -0.33882684636E+02 -0.18515007217E+02 -0.48132449413E+01  0.38910270331E+02  0.00000000000E+00 0. -1.
</event>
<event>
 7    1  0.2284751E-015  0.9000772E+02  0.7816164E-02  0.1186339E+00
        -11   -1    0    0    0    0  0.00000000000E+00  0.00000000000E+00  0.45593999997E+02  0.45594000000E+02  0.51100000000E-03 0. -1.
         11   -1    0    0    0    0 -0.00000000000E+00 -0.00000000000E+00 -0.45593999997E+02  0.45594000000E+02  0.51100000000E-03 0.  1.
    9900012    2    1    2    0    0  0.80299343025E+00 -0.66850179565E+00 -0.54897283704E+00  0.90007718561E+02  0.89999979646E+02 0.  0.
         12    1    1    2    0    0 -0.80299343025E+00  0.66850179565E+00  0.54897283704E+00  0.11802814392E+01  0.00000000000E+00 0. -1.
         11    1    3    3    0    0  0.85710949929E+01 -0.49908108283E+01  0.10675382412E+01  0.99755451108E+01  0.51100000000E-03 0. -1.
        -11    1    3    3    0    0 -0.71001545939E+01 -0.34285475761E+02  0.14878371219E+02  0.38043027926E+02  0.51100000000E-03 0.  1.
         12    1    3    3    0    0 -0.66794696867E+00  0.38607784794E+02 -0.16494882297E+02  0.41989145524E+02  0.00000000000E+00 0. -1.
</event>
<event>
 7    1  0.2357347E-015  0.9000785E+02  0.7816164E-02  0.1186339E+00
        -11   -1    0    0    0    0  0.00000000000E+00  0.00000000000E+00  0.45593999997E+02  0.45594000000E+02  0.51100000000E-03 0. -1.
         11   -1    0    0    0    0 -0.00000000000E+00 -0.00000000000E+00 -0.45593999997E+02  0.45594000000E+02  0.51100000000E-03 0.  1.
    9900012    2    1    2    0    0  0.23307502077E+00 -0.11569007478E+01  0.10783138816E-02  0.90007854048E+02  0.90000116921E+02 0.  0.
         12    1    1    2    0    0 -0.23307502077E+00  0.11569007478E+01 -0.10783138816E-02  0.11801459521E+01  0.00000000000E+00 0. -1.
         11    1    3    3    0    0  0.33444993463E+02 -0.61400002130E+01  0.20540555646E+02  0.39726334048E+02  0.51100000000E-03 0. -1.
        -11    1    3    3    0    0 -0.28457334665E+01  0.58106664285E+01  0.68191652141E+01  0.94001626467E+01  0.51100000000E-03 0.  1.
        -12    1    3    3    0    0 -0.30366184976E+02 -0.82756696334E+00 -0.27358642546E+02  0.40881357353E+02  0.00000000000E+00 0.  1.
</event>
<event>
 7    1  0.3262552E-015  0.9000774E+02  0.7816164E-02  0.1186339E+00
        -11   -1    0    0    0    0  0.00000000000E+00  0.00000000000E+00  0.45593999997E+02  0.45594000000E+02  0.51100000000E-03 0. -1.
         11   -1    0    0    0    0 -0.00000000000E+00 -0.00000000000E+00 -0.45593999997E+02  0.45594000000E+02  0.51100000000E-03 0.  1.
    9900012    2    1    2    0    0  0.52924324380E+00 -0.75521001729E+00 -0.73660157089E+00  0.90007736277E+02  0.89999997596E+02 0.  0.
         12    1    1    2    0    0 -0.52924324380E+00  0.75521001729E+00  0.73660157089E+00  0.11802637229E+01  0.00000000000E+00 0. -1.
         11    1    3    3    0    0  0.94295459705E+01 -0.10642404334E+02  0.34712040579E+02  0.37511369858E+02  0.51100000000E-03 0. -1.
        -11    1    3    3    0    0  0.69761034046E+01  0.48901882781E+01  0.41981104729E+01  0.94975834774E+01  0.51100000000E-03 0.  1.
        -12    1    3    3    0    0 -0.15876406131E+02  0.49970060382E+01 -0.39646752622E+02  0.42998782942E+02  0.00000000000E+00 0.  1.
</event>
<event>
 7    1  0.2284751E-015  0.9000773E+02  0.7816164E-02  0.1186339E+00
        -11   -1    0    0    0    0  0.00000000000E+00  0.00000000000E+00  0.45593999997E+02  0.45594000000E+02  0.51100000000E-03 0. -1.
         11   -1    0    0    0    0 -0.00000000000E+00 -0.00000000000E+00 -0.45593999997E+02  0.45594000000E+02  0.51100000000E-03 0.  1.
    9900012    2    1    2    0    0  0.27439129704E+00  0.87494981295E+00 -0.74310247079E+00  0.90007733487E+02  0.89999994769E+02 0.  0.
         12    1    1    2    0    0 -0.27439129704E+00 -0.87494981295E+00  0.74310247079E+00  0.11802665128E+01  0.00000000000E+00 0. -1.
         11    1    3    3    0    0 -0.95709608384E+01 -0.44658382225E+00 -0.25361583469E+01  0.99113484402E+01  0.51100000000E-03 0. -1.
        -11    1    3    3    0    0  0.17388011959E+01 -0.34996586621E+02 -0.16385490979E+02  0.38681634138E+02  0.51100000000E-03 0.  1.
         12    1    3    3    0    0  0.81065509395E+01  0.36318120256E+02  0.18178546855E+02  0.41414750909E+02  0.00000000000E+00 0. -1.
</event>
<event>
 7    1  0.2284751E-015  0.9000774E+02  0.7816164E-02  0.1186339E+00
        -11   -1    0    0    0    0  0.00000000000E+00  0.00000000000E+00  0.45593999997E+02  0.45594000000E+02  0.51100000000E-03 0.  1.
         11   -1    0    0    0    0 -0.00000000000E+00 -0.00000000000E+00 -0.45593999997E+02  0.45594000000E+02  0.51100000000E-03 0. -1.
    9900012    2    1    2    0    0 -0.32438375980E+00  0.78211136147E+00  0.82224847971E+00  0.90007739195E+02  0.90000000552E+02 0.  0.
         12    1    1    2    0    0  0.32438375980E+00 -0.78211136147E+00 -0.82224847971E+00  0.11802608050E+01  0.00000000000E+00 0. -1.
         11    1    3    3    0    0  0.41048924455E+01  0.47629813230E+01  0.90302120168E+01  0.11003674950E+02  0.51100000000E-03 0. -1.
        -11    1    3    3    0    0 -0.13303033688E+02 -0.85280595376E+01  0.33009981063E+02  0.36597231518E+02  0.51100000000E-03 0.  1.
         12    1    3    3    0    0  0.88737574829E+01  0.45471895761E+01 -0.41217944600E+02  0.42406832727E+02  0.00000000000E+00 0. -1.
</event>
<event>
 7    1  0.2284751E-015  0.9000774E+02  0.7816164E-02  0.1186339E+00
        -11   -1    0    0    0    0  0.00000000000E+00  0.00000000000E+00  0.45593999997E+02  0.45594000000E+02  0.51100000000E-03 0. -1.
         11   -1    0    0    0    0 -0.00000000000E+00 -0.00000000000E+00 -0.45593999997E+02  0.45594000000E+02  0.51100000000E-03 0.  1.
    9900012    2    1    2    0    0 -0.88952507499E+00  0.27472219095E+00 -0.72545277918E+00  0.90007742030E+02  0.90000003425E+02 0.  0.
         12    1    1    2    0    0  0.88952507499E+00 -0.27472219095E+00  0.72545277918E+00  0.11802579701E+01  0.00000000000E+00 0. -1.
         11    1    3    3    0    0  0.28519014622E+02 -0.27131121796E+02  0.15450072433E+02  0.42286365454E+02  0.51100000000E-03 0. -1.
        -11    1    3    3    0    0 -0.94547209196E+01  0.18518208582E+01  0.29538836392E+01  0.10077024212E+02  0.51100000000E-03 0.  1.
        -12    1    3    3    0    0 -0.19953818777E+02  0.25554023129E+02 -0.19129408852E+02  0.37644352363E+02  0.00000000000E+00 0.  1.
</event>
<event>
 7    1  0.2284751E-015  0.9000773E+02  0.7816164E-02  0.1186339E+00
        -11   -1    0    0    0    0  0.00000000000E+00  0.00000000000E+00  0.45593999997E+02  0.45594000000E+02  0.51100000000E-03 0.  1.
         11   -1    0    0    0    0 -0.00000000000E+00 -0.00000000000E+00 -0.45593999997E+02  0.45594000000E+02  0.51100000000E-03 0. -1.
    9900012    2    1    2    0    0 -0.10783057785E+01 -0.46422485178E+00  0.12158857643E+00  0.90007732299E+02  0.89999993565E+02 0.  0.
         12    1    1    2    0    0  0.10783057785E+01  0.46422485178E+00 -0.12158857643E+00  0.11802677014E+01  0.00000000000E+00 0. -1.
         11    1    3    3    0    0  0.11808487640E+02 -0.14436397669E+02 -0.23731356190E+01  0.18801109833E+02  0.51100000000E-03 0. -1.
        -11    1    3    3    0    0  0.15170426558E+02 -0.17973025956E+02  0.13725015505E+02  0.27231370785E+02  0.51100000000E-03 0.  1.
         12    1    3    3    0    0 -0.28057219976E+02  0.31945198774E+02 -0.11230291310E+02  0.43975251681E+02  0.00000000000E+00 0. -1.
</event>
<event>
 7    1  0.2284751E-015  0.9000776E+02  0.7816164E-02  0.1186339E+00
        -11   -1    0    0    0    0  0.00000000000E+00  0.00000000000E+00  0.45593999997E+02  0.45594000000E+02  0.51100000000E-03 0. -1.
         11   -1    0    0    0    0 -0.00000000000E+00 -0.00000000000E+00 -0.45593999997E+02  0.45594000000E+02  0.51100000000E-03 0.  1.
    9900012    2    1    2    0    0  0.90458640478E-01 -0.11536477123E+01 -0.23212538094E+00  0.90007759346E+02  0.90000020969E+02 0.  0.
         12    1    1    2    0    0 -0.90458640478E-01  0.11536477123E+01  0.23212538094E+00  0.11802406544E+01  0.00000000000E+00 0. -1.
         11    1    3    3    0    0  0.84773260127E+01 -0.28907297285E+01  0.53272841887E+01  0.10421196274E+02  0.51100000000E-03 0. -1.
        -11    1    3    3    0    0  0.17898294634E+01  0.19368393059E+02 -0.37190962839E+02  0.41970297311E+02  0.51100000000E-03 0.  1.
         12    1    3    3    0    0 -0.10176696836E+02 -0.17631311043E+02  0.31631553269E+02  0.37616265761E+02  0.00000000000E+00 0. -1.
</event>
<event>
 7    1  0.2284751E-015  0.9000775E+02  0.7816164E-02  0.1186339E+00
        -11   -1    0    0    0    0  0.00000000000E+00  0.00000000000E+00  0.45593999997E+02  0.45594000000E+02  0.51100000000E-03 0.  1.
         11   -1    0    0    0    0 -0.00000000000E+00 -0.00000000000E+00 -0.45593999997E+02  0.45594000000E+02  0.51100000000E-03 0. -1.
    9900012    2    1    2    0    0  0.24536309823E-01  0.10262381197E+00  0.11755189681E+01  0.90007754889E+02  0.90000016454E+02 0.  0.
         12    1    1    2    0    0 -0.24536309823E-01 -0.10262381197E+00 -0.11755189681E+01  0.11802451108E+01  0.00000000000E+00 0. -1.
         11    1    3    3    0    0  0.86998881050E+01 -0.31057693183E+02 -0.15390190072E+02  0.35736904029E+02  0.51100000000E-03 0. -1.
        -11    1    3    3    0    0 -0.73357624618E+01 -0.38981291288E+01 -0.79276218220E+01  0.11482857206E+02  0.51100000000E-03 0.  1.
        -12    1    3    3    0    0 -0.13395893334E+01  0.35058446124E+02  0.24493330862E+02  0.42787993654E+02  0.00000000000E+00 0.  1.
</event>
<event>
 7    1  0.2284751E-015  0.9000768E+02  0.7816164E-02  0.1186339E+00
        -11   -1    0    0    0    0  0.00000000000E+00  0.00000000000E+00  0.45593999997E+02  0.45594000000E+02  0.51100000000E-03 0. -1.
         11   -1    0    0    0    0 -0.00000000000E+00 -0.00000000000E+00 -0.45593999997E+02  0.45594000000E+02  0.51100000000E-03 0.  1.
    9900012    2    1    2    0    0 -0.46701210142E+00 -0.71140907200E+00  0.81788859152E+00  0.90007684399E+02  0.89999945033E+02 0.  0.
         12    1    1    2    0    0  0.46701210142E+00  0.71140907200E+00 -0.81788859152E+00  0.11803156013E+01  0.00000000000E+00 0. -1.
         11    1    3    3    0    0  0.32559096123E+02 -0.12299135782E+02  0.10686354391E+02  0.36408263510E+02  0.51100000000E-03 0. -1.
        -11    1    3    3    0    0  0.71502582434E+01  0.65882991764E+01  0.44006015639E+01  0.10672261868E+02  0.51100000000E-03 0.  1.
        -12    1    3    3    0    0 -0.40176366468E+02  0.49994275339E+01 -0.14269067363E+02  0.42927159022E+02  0.00000000000E+00 0.  1.
</event>
<event>
 7    1  0.2284751E-015  0.9000774E+02  0.7816164E-02  0.1186339E+00
        -11   -1    0    0    0    0  0.00000000000E+00  0.00000000000E+00  0.45593999997E+02  0.45594000000E+02  0.51100000000E-03 0.  1.
         11   -1    0    0    0    0 -0.00000000000E+00 -0.00000000000E+00 -0.45593999997E+02  0.45594000000E+02  0.51100000000E-03 0. -1.
    9900012    2    1    2    0    0 -0.96736050375E-01 -0.10317371780E+01  0.56495333438E+00  0.90007740817E+02  0.90000002196E+02 0.  0.
         12    1    1    2    0    0  0.96736050375E-01  0.10317371780E+01 -0.56495333438E+00  0.11802591826E+01  0.00000000000E+00 0. -1.
         11    1    3    3    0    0  0.61472341324E+01 -0.50856955386E+01 -0.59954692141E+01  0.99799017003E+01  0.51100000000E-03 0. -1.
        -11    1    3    3    0    0 -0.12189318156E+02 -0.36502057330E+02  0.65584843135E+01  0.39038357845E+02  0.51100000000E-03 0.  1.
         12    1    3    3    0    0  0.59453479729E+01  0.40556015691E+02  0.19382349302E-02  0.40989481273E+02  0.00000000000E+00 0. -1.
</event>
<event>
 7    1  0.2284751E-015  0.9000862E+02  0.7816164E-02  0.1186337E+00
        -11   -1    0    0    0    0  0.00000000000E+00  0.00000000000E+00  0.45593999997E+02  0.45594000000E+02  0.51100000000E-03 0. -1.
         11   -1    0    0    0    0 -0.00000000000E+00 -0.00000000000E+00 -0.45593999997E+02  0.45594000000E+02  0.51100000000E-03 0.  1.
    9900012    2    1    2    0    0  0.30102814172E+00  0.69171219356E+00  0.90655664559E+00  0.90008623617E+02  0.90000896644E+02 0.  0.
         12    1    1    2    0    0 -0.30102814172E+00 -0.69171219356E+00 -0.90655664559E+00  0.11793763829E+01  0.00000000000E+00 0. -1.
         11    1    3    3    0    0 -0.26022734016E+02 -0.25267397676E+01 -0.93255796829E+01  0.27758485841E+02  0.51100000000E-03 0. -1.
        -11    1    3    3    0    0  0.10162637247E+02  0.21916129116E+02 -0.13763513518E+02  0.27803420938E+02  0.51100000000E-03 0.  1.
         12    1    3    3    0    0  0.16161124911E+02 -0.18697677155E+02  0.23995649846E+02  0.34446716838E+02  0.00000000000E+00 0. -1.
</event>
<event>
 7    1  0.2284751E-015  0.9000790E+02  0.7816164E-02  0.1186339E+00
        -11   -1    0    0    0    0  0.00000000000E+00  0.00000000000E+00  0.45593999997E+02  0.45594000000E+02  0.51100000000E-03 0.  1.
         11   -1    0    0    0    0 -0.00000000000E+00 -0.00000000000E+00 -0.45593999997E+02  0.45594000000E+02  0.51100000000E-03 0. -1.
    9900012    2    1    2    0    0 -0.63728580796E-01 -0.66955038611E+00  0.96967915703E+00  0.90007899700E+02  0.90000163175E+02 0.  0.
         12    1    1    2    0    0  0.63728580796E-01  0.66955038611E+00 -0.96967915703E+00  0.11801003005E+01  0.00000000000E+00 0. -1.
         11    1    3    3    0    0  0.45257059632E+01 -0.99492991814E+01  0.32798916908E+01  0.11411759655E+02  0.51100000000E-03 0. -1.
        -11    1    3    3    0    0 -0.19344124200E+02  0.14336971693E+02  0.32502271987E+02  0.40449247001E+02  0.51100000000E-03 0.  1.
         12    1    3    3    0    0  0.14754689656E+02 -0.50572228975E+01 -0.34812484521E+02  0.38146893043E+02  0.00000000000E+00 0. -1.
</event>
<event>
 7    1  0.2284751E-015  0.9000770E+02  0.7816164E-02  0.1186339E+00
        -11   -1    0    0    0    0  0.00000000000E+00  0.00000000000E+00  0.45593999997E+02  0.45594000000E+02  0.51100000000E-03 0.  1.
         11   -1    0    0    0    0 -0.00000000000E+00 -0.00000000000E+00 -0.45593999997E+02  0.45594000000E+02  0.51100000000E-03 0. -1.
    9900012    2    1    2    0    0 -0.10791754350E+01  0.45519517905E+00 -0.14590691973E+00  0.90007698725E+02  0.89999959548E+02 0.  0.
         12    1    1    2    0    0  0.10791754350E+01 -0.45519517905E+00  0.14590691973E+00  0.11803012750E+01  0.00000000000E+00 0. -1.
         11    1    3    3    0    0  0.13362819547E+02 -0.26806032575E+00  0.14676108675E+02  0.19850062184E+02  0.51100000000E-03 0. -1.
        -11    1    3    3    0    0  0.12191155056E+02  0.20726794629E+02  0.12477725580E+02  0.27090919384E+02  0.51100000000E-03 0.  1.
         12    1    3    3    0    0 -0.26633150038E+02 -0.20003539124E+02 -0.27299741175E+02  0.43066717157E+02  0.00000000000E+00 0. -1.
</event>
<event>
 7    1  0.2284751E-015  0.9000776E+02  0.7816164E-02  0.1186339E+00
        -11   -1    0    0    0    0  0.00000000000E+00  0.00000000000E+00  0.45593999997E+02  0.45594000000E+02  0.51100000000E-03 0. -1.
         11   -1    0    0    0    0 -0.00000000000E+00 -0.00000000000E+00 -0.45593999997E+02  0.45594000000E+02  0.51100000000E-03 0.  1.
    9900012    2    1    2    0    0  0.19364519017E+00 -0.11353430722E+01 -0.25782230636E+00  0.90007756511E+02  0.90000018097E+02 0.  0.
         12    1    1    2    0    0 -0.19364519017E+00  0.11353430722E+01  0.25782230636E+00  0.11802434888E+01  0.00000000000E+00 0. -1.
         11    1    3    3    0    0  0.22397598815E+01 -0.10510625206E+02  0.62717684191E+01  0.12442863252E+02  0.51100000000E-03 0. -1.
        -11    1    3    3    0    0  0.20199876554E+02  0.28186168947E+02  0.18368878112E+02  0.39241697416E+02  0.51100000000E-03 0.  1.
         12    1    3    3    0    0 -0.22245991246E+02 -0.18810886813E+02 -0.24898468837E+02  0.38323195843E+02  0.00000000000E+00 0. -1.
</event>
<event>
 7    1  0.2284751E-015  0.9000776E+02  0.7816164E-02  0.1186339E+00
        -11   -1    0    0    0    0  0.00000000000E+00  0.00000000000E+00  0.45593999997E+02  0.45594000000E+02  0.51100000000E-03 0.  1.
         11   -1    0    0    0    0 -0.00000000000E+00 -0.00000000000E+00 -0.45593999997E+02  0.45594000000E+02  0.51100000000E-03 0. -1.
    9900012    2    1    2    0    0 -0.96800291218E+00  0.65860899436E+00 -0.14892174276E+00  0.90007757173E+02  0.90000018768E+02 0.  0.
         12    1    1    2    0    0  0.96800291218E+00 -0.65860899436E+00  0.14892174276E+00  0.11802428271E+01  0.00000000000E+00 0. -1.
         11    1    3    3    0    0 -0.32519386029E+02 -0.66687032115E+01  0.23321898493E+02  0.40569607094E+02  0.51100000000E-03 0. -1.
        -11    1    3    3    0    0 -0.28723705116E+01  0.26244604065E+01 -0.12365163772E+02  0.12962853858E+02  0.51100000000E-03 0.  1.
        -12    1    3    3    0    0  0.34423753628E+02  0.47028517993E+01 -0.11105656463E+02  0.36475296221E+02  0.00000000000E+00 0.  1.
</event>
<event>
 7    1  0.2284751E-015  0.9000828E+02  0.7816164E-02  0.1186338E+00
        -11   -1    0    0    0    0  0.00000000000E+00  0.00000000000E+00  0.45593999997E+02  0.45594000000E+02  0.51100000000E-03 0. -1.
         11   -1    0    0    0    0 -0.00000000000E+00 -0.00000000000E+00 -0.45593999997E+02  0.45594000000E+02  0.51100000000E-03 0.  1.
    9900012    2    1    2    0    0  0.10134857444E+01 -0.55912398261E+00  0.22794906813E+00  0.90008282339E+02  0.90000550864E+02 0.  0.
         12    1    1    2    0    0 -0.10134857444E+01  0.55912398261E+00 -0.22794906813E+00  0.11797176610E+01  0.00000000000E+00 0. -1.
         11    1    3    3    0    0  0.88020411397E+00  0.10279176686E+02 -0.37254760308E+01  0.10968837885E+02  0.51100000000E-03 0. -1.
        -11    1    3    3    0    0  0.40991009910E+01 -0.24459059097E+02 -0.31943765166E+02  0.40440726182E+02  0.51100000000E-03 0.  1.
         12    1    3    3    0    0 -0.39658193606E+01  0.13620758428E+02  0.35897190265E+02  0.38598718273E+02  0.00000000000E+00 0. -1.
</event>
<event>
 7    1  0.2284751E-015  0.9000773E+02  0.7816164E-02  0.1186339E+00
        -11   -1    0    0    0    0  0.00000000000E+00  0.00000000000E+00  0.45593999997E+02  0.45594000000E+02  0.51100000000E-03 0.  1.
         11   -1    0    0    0    0 -0.00000000000E+00 -0.00000000000E+00 -0.45593999997E+02  0.45594000000E+02  0.51100000000E-03 0. -1.
    9900012    2    1    2    0    0  0.43790941219E+00 -0.59063897776E+00  0.92325895305E+00  0.90007734712E+02  0.89999996010E+02 0.  0.
         12    1    1    2    0    0 -0.43790941219E+00  0.59063897776E+00 -0.92325895305E+00  0.11802652879E+01  0.00000000000E+00 0. -1.
         11    1    3    3    0    0 -0.17065319998E+02  0.14990568019E+01 -0.29559421369E+02  0.34164772938E+02  0.51100000000E-03 0. -1.
        -11    1    3    3    0    0 -0.11362876873E+02  0.84873228425E+01  0.27648990962E+01  0.14449715816E+02  0.51100000000E-03 0.  1.
        -12    1    3    3    0    0  0.28866106284E+02 -0.10577018622E+02  0.27717781226E+02  0.41393245959E+02  0.00000000000E+00 0.  1.
</event>
<event>
 7    1  0.2284751E-015  0.9000779E+02  0.7816164E-02  0.1186339E+00
        -11   -1    0    0    0    0  0.00000000000E+00  0.00000000000E+00  0.45593999997E+02  0.45594000000E+02  0.51100000000E-03 0.  1.
         11   -1    0    0    0    0 -0.00000000000E+00 -0.00000000000E+00 -0.45593999997E+02  0.45594000000E+02  0.51100000000E-03 0. -1.
    9900012    2    1    2    0    0  0.49066401325E+00  0.24286493200E+00  0.10455460461E+01  0.90007787696E+02  0.90000049693E+02 0.  0.
         12    1    1    2    0    0 -0.49066401325E+00 -0.24286493200E+00 -0.10455460461E+01  0.11802123045E+01  0.00000000000E+00 0. -1.
         11    1    3    3    0    0 -0.38873282542E+01 -0.40775621194E+01  0.89617535364E+01  0.10585407904E+02  0.51100000000E-03 0. -1.
        -11    1    3    3    0    0 -0.10531340290E+02  0.35671656393E+02  0.12390836525E+02  0.39203431332E+02  0.51100000000E-03 0.  1.
         12    1    3    3    0    0  0.14909332557E+02 -0.31351229342E+02 -0.20307044016E+02  0.40218948459E+02  0.00000000000E+00 0. -1.
</event>
<event>
 7    1  0.2284751E-015  0.9000774E+02  0.7816164E-02  0.1186339E+00
        -11   -1    0    0    0    0  0.00000000000E+00  0.00000000000E+00  0.45593999997E+02  0.45594000000E+02  0.51100000000E-03 0. -1.
         11   -1    0    0    0    0 -0.00000000000E+00 -0.00000000000E+00 -0.45593999997E+02  0.45594000000E+02  0.51100000000E-03 0.  1.
    9900012    2    1    2    0    0  0.98848792880E+00 -0.62154103610E+00  0.17201771621E+00  0.90007740817E+02  0.90000002196E+02 0.  0.
         12    1    1    2    0    0 -0.98848792880E+00  0.62154103610E+00 -0.17201771621E+00  0.11802591832E+01  0.00000000000E+00 0. -1.
         11    1    3    3    0    0 -0.27583038338E+02 -0.13560065690E+02  0.28037021682E+02  0.41602571681E+02  0.51100000000E-03 0. -1.
        -11    1    3    3    0    0 -0.34023042117E+01  0.52909178550E+01 -0.72594344725E+01  0.96056688898E+01  0.51100000000E-03 0.  1.
        -12    1    3    3    0    0  0.31973830478E+02  0.76476067987E+01 -0.20605569493E+02  0.38799500246E+02  0.00000000000E+00 0.  1.
</event>
<event>
 7    1  0.2284751E-015  0.9000770E+02  0.7816164E-02  0.1186339E+00
        -11   -1    0    0    0    0  0.00000000000E+00  0.00000000000E+00  0.45593999997E+02  0.45594000000E+02  0.51100000000E-03 0.  1.
         11   -1    0    0    0    0 -0.00000000000E+00 -0.00000000000E+00 -0.45593999997E+02  0.45594000000E+02  0.51100000000E-03 0. -1.
    9900012    2    1    2    0    0 -0.73744243483E+00 -0.91811542149E+00 -0.79752668893E-01  0.90007695904E+02  0.89999956689E+02 0.  0.
         12    1    1    2    0    0  0.73744243483E+00  0.91811542149E+00  0.79752668893E-01  0.11803040964E+01  0.00000000000E+00 0. -1.
         11    1    3    3    0    0 -0.12265013650E+02 -0.76963444511E+00 -0.11278977908E+02  0.16680474811E+02  0.51100000000E-03 0. -1.
        -11    1    3    3    0    0  0.20370065475E+02 -0.30225465026E+02 -0.69460171893E+01  0.37104790238E+02  0.51100000000E-03 0.  1.
         12    1    3    3    0    0 -0.88424942603E+01  0.30076984050E+02  0.18145242428E+02  0.36222430855E+02  0.00000000000E+00 0. -1.
</event>
<event>
 7    1  0.2961641E-015  0.9000773E+02  0.7816164E-02  0.1186339E+00
        -11   -1    0    0    0    0  0.00000000000E+00  0.00000000000E+00  0.45593999997E+02  0.45594000000E+02  0.51100000000E-03 0. -1.
         11   -1    0    0    0    0 -0.00000000000E+00 -0.00000000000E+00 -0.45593999997E+02  0.45594000000E+02  0.51100000000E-03 0.  1.
    9900012    2    1    2    0    0  0.15916397047E+00 -0.31252497776E+00 -0.11269587554E+01  0.90007728392E+02  0.89999989607E+02 0.  0.
         12    1    1    2    0    0 -0.15916397047E+00  0.31252497776E+00  0.11269587554E+01  0.11802716075E+01  0.00000000000E+00 0. -1.
         11    1    3    3    0    0 -0.25511322887E+02 -0.14521252143E+02  0.29772071672E+02  0.41809934360E+02  0.51100000000E-03 0. -1.
        -11    1    3    3    0    0 -0.24470865325E+01  0.77456641835E+01 -0.73903596408E+01  0.10981846931E+02  0.51100000000E-03 0.  1.
        -12    1    3    3    0    0  0.28117573390E+02  0.64630629818E+01 -0.23508670787E+02  0.37215947101E+02  0.00000000000E+00 0.  1.
</event>
<event>
 7    1  0.2284751E-015  0.9000769E+02  0.7816164E-02  0.1186339E+00
        -11   -1    0    0    0    0  0.00000000000E+00  0.00000000000E+00  0.45593999997E+02  0.45594000000E+02  0.51100000000E-03 0. -1.
         11   -1    0    0    0    0 -0.00000000000E+00 -0.00000000000E+00 -0.45593999997E+02  0.45594000000E+02  0.51100000000E-03 0.  1.
    9900012    2    1    2    0    0 -0.10305182067E+01 -0.43588832350E+00  0.37571858392E+00  0.90007690355E+02  0.89999951067E+02 0.  0.
         12    1    1    2    0    0  0.10305182067E+01  0.43588832350E+00 -0.37571858392E+00  0.11803096455E+01  0.00000000000E+00 0. -1.
         11    1    3    3    0    0  0.37737739343E+01 -0.71914158663E+01  0.37899058066E-01  0.81215311653E+01  0.51100000000E-03 0. -1.
        -11    1    3    3    0    0 -0.38280582096E+02 -0.86970306586E+01 -0.14902928752E+02  0.41989743909E+02  0.51100000000E-03 0.  1.
         12    1    3    3    0    0  0.33476289955E+02  0.15452558201E+02  0.15240748278E+02  0.39896415280E+02  0.00000000000E+00 0. -1.
</event>
<event>
 7    1  0.2284751E-015  0.9000770E+02  0.7816164E-02  0.1186339E+00
        -11   -1    0    0    0    0  0.00000000000E+00  0.00000000000E+00  0.45593999997E+02  0.45594000000E+02  0.51100000000E-03 0. -1.
         11   -1    0    0    0    0 -0.00000000000E+00 -0.00000000000E+00 -0.45593999997E+02  0.45594000000E+02  0.51100000000E-03 0.  1.
    9900012    2    1    2    0    0 -0.64294647028E+00  0.15290812197E+00 -0.97793254210E+00  0.90007697872E+02  0.89999958683E+02 0.  0.
         12    1    1    2    0    0  0.64294647028E+00 -0.15290812197E+00  0.97793254210E+00  0.11803021284E+01  0.00000000000E+00 0. -1.
         11    1    3    3    0    0 -0.16869117625E+02  0.20796173434E+02  0.21746618283E+02  0.34495845633E+02  0.51100000000E-03 0. -1.
        -11    1    3    3    0    0  0.13354191769E+02  0.73222193580E+01  0.49984742546E+01  0.16029163399E+02  0.51100000000E-03 0.  1.
        -12    1    3    3    0    0  0.28719793859E+01 -0.27965484671E+02 -0.27723025079E+02  0.39482688839E+02  0.00000000000E+00 0.  1.
</event>
<event>
 7    1  0.2284751E-015  0.9000790E+02  0.7816164E-02  0.1186339E+00
        -11   -1    0    0    0    0  0.00000000000E+00  0.00000000000E+00  0.45593999997E+02  0.45594000000E+02  0.51100000000E-03 0. -1.
         11   -1    0    0    0    0 -0.00000000000E+00 -0.00000000000E+00 -0.45593999997E+02  0.45594000000E+02  0.51100000000E-03 0.  1.
    9900012    2    1    2    0    0  0.40206048824E+00 -0.77630000648E+00 -0.79267685133E+00  0.90007902154E+02  0.90000165662E+02 0.  0.
         12    1    1    2    0    0 -0.40206048824E+00  0.77630000648E+00  0.79267685133E+00  0.11800978463E+01  0.00000000000E+00 0. -1.
         11    1    3    3    0    0 -0.57107059449E+01  0.36693784186E+01 -0.80935751015E+01  0.10563259845E+02  0.51100000000E-03 0. -1.
        -11    1    3    3    0    0  0.32350353870E+02  0.24084142204E+02  0.45492439502E+01  0.40586782602E+02  0.51100000000E-03 0.  1.
         12    1    3    3    0    0 -0.26237587437E+02 -0.28529820629E+02  0.27516542999E+01  0.38857859707E+02  0.00000000000E+00 0. -1.
</event>
<event>
 7    1  0.2284751E-015  0.9000774E+02  0.7816164E-02  0.1186339E+00
        -11   -1    0    0    0    0  0.00000000000E+00  0.00000000000E+00  0.45593999997E+02  0.45594000000E+02  0.51100000000E-03 0.  1.
         11   -1    0    0    0    0 -0.00000000000E+00 -0.00000000000E+00 -0.45593999997E+02  0.45594000000E+02  0.51100000000E-03 0. -1.
    9900012    2    1    2    0    0  0.11766028244E+01  0.83578896923E-01  0.40514654943E-01  0.90007736862E+02  0.89999998188E+02 0.  0.
         12    1    1    2    0    0 -0.11766028244E+01 -0.83578896923E-01 -0.40514654943E-01  0.11802631383E+01  0.00000000000E+00 0. -1.
         11    1    3    3    0    0 -0.83306819131E+01  0.51277262801E+00  0.92511206834E+01  0.12459792577E+02  0.51100000000E-03 0. -1.
        -11    1    3    3    0    0  0.67463228797E+01 -0.27127895499E+02  0.22585076138E+02  0.35937741318E+02  0.51100000000E-03 0.  1.
         12    1    3    3    0    0  0.27609618578E+01  0.26698701768E+02 -0.31795682167E+02  0.41610202967E+02  0.00000000000E+00 0. -1.
</event>
<event>
 7    1  0.2284751E-015  0.9000778E+02  0.7816164E-02  0.1186339E+00
        -11   -1    0    0    0    0  0.00000000000E+00  0.00000000000E+00  0.45593999997E+02  0.45594000000E+02  0.51100000000E-03 0.  1.
         11   -1    0    0    0    0 -0.00000000000E+00 -0.00000000000E+00 -0.45593999997E+02  0.45594000000E+02  0.51100000000E-03 0. -1.
    9900012    2    1    2    0    0 -0.91519971271E+00 -0.73995430351E+00  0.88285120835E-01  0.90007780890E+02  0.90000042798E+02 0.  0.
         12    1    1    2    0    0  0.91519971271E+00  0.73995430351E+00 -0.88285120835E-01  0.11802191102E+01  0.00000000000E+00 0. -1.
         11    1    3    3    0    0  0.35135560471E+02  0.13161949560E+02  0.12812320273E+02  0.39647195069E+02  0.51100000000E-03 0. -1.
        -11    1    3    3    0    0  0.30115274500E+01 -0.88285786995E+01 -0.28014368691E+01  0.97396687946E+01  0.51100000000E-03 0.  1.
        -12    1    3    3    0    0 -0.39062287633E+02 -0.50733251636E+01 -0.99225982829E+01  0.40620917026E+02  0.00000000000E+00 0.  1.
</event>
<event>
 7    1  0.2284751E-015  0.9000777E+02  0.7816164E-02  0.1186339E+00
        -11   -1    0    0    0    0  0.00000000000E+00  0.00000000000E+00  0.45593999997E+02  0.45594000000E+02  0.51100000000E-03 0. -1.
         11   -1    0    0    0    0 -0.00000000000E+00 -0.00000000000E+00 -0.45593999997E+02  0.45594000000E+02  0.51100000000E-03 0.  1.
    9900012    2    1    2    0    0  0.64553973774E+00 -0.28012450378E+00 -0.94749542853E+00  0.90007771684E+02  0.90000033470E+02 0.  0.
         12    1    1    2    0    0 -0.64553973774E+00  0.28012450378E+00  0.94749542853E+00  0.11802283159E+01  0.00000000000E+00 0. -1.
         11    1    3    3    0    0 -0.10250004174E+02 -0.23091640643E+02  0.33967983280E+02  0.42333324244E+02  0.51100000000E-03 0. -1.
        -11    1    3    3    0    0  0.78935097125E+01 -0.42846488053E+00 -0.39363190882E+01  0.88309504562E+01  0.51100000000E-03 0.  1.
        -12    1    3    3    0    0  0.30020341997E+01  0.23239981020E+02 -0.30979159621E+02  0.38843496984E+02  0.00000000000E+00 0.  1.
</event>
<event>
 7    1  0.2284751E-015  0.9000777E+02  0.7816164E-02  0.1186339E+00
        -11   -1    0    0    0    0  0.00000000000E+00  0.00000000000E+00  0.45593999997E+02  0.45594000000E+02  0.51100000000E-03 0. -1.
         11   -1    0    0    0    0 -0.00000000000E+00 -0.00000000000E+00 -0.45593999997E+02  0.45594000000E+02  0.51100000000E-03 0.  1.
    9900012    2    1    2    0    0 -0.76983470156E+00 -0.89458316738E+00 -0.41496931612E-02  0.90007770475E+02  0.90000032246E+02 0.  0.
         12    1    1    2    0    0  0.76983470156E+00  0.89458316738E+00  0.41496931612E-02  0.11802295247E+01  0.00000000000E+00 0. -1.
         11    1    3    3    0    0  0.59560630735E+00 -0.33651372914E+01 -0.13827823030E+02  0.14243861340E+02  0.51100000000E-03 0. -1.
        -11    1    3    3    0    0  0.31850978539E+02  0.28498088937E+01 -0.11510980554E+02  0.33986893330E+02  0.51100000000E-03 0.  1.
         12    1    3    3    0    0 -0.33216419548E+02 -0.37925476965E+00  0.25334653891E+02  0.41777015805E+02  0.00000000000E+00 0. -1.
</event>
<event>
 7    1  0.2284751E-015  0.9000781E+02  0.7816164E-02  0.1186339E+00
        -11   -1    0    0    0    0  0.00000000000E+00  0.00000000000E+00  0.45593999997E+02  0.45594000000E+02  0.51100000000E-03 0.  1.
         11   -1    0    0    0    0 -0.00000000000E+00 -0.00000000000E+00 -0.45593999997E+02  0.45594000000E+02  0.51100000000E-03 0. -1.
    9900012    2    1    2    0    0 -0.36345587387E+00 -0.82525934006E+00  0.76137030686E+00  0.90007814466E+02  0.90000076817E+02 0.  0.
         12    1    1    2    0    0  0.36345587387E+00  0.82525934006E+00 -0.76137030686E+00  0.11801855341E+01  0.00000000000E+00 0. -1.
         11    1    3    3    0    0  0.19565397763E+02 -0.28257325017E+02 -0.16789616760E+02  0.38251437070E+02  0.51100000000E-03 0. -1.
        -11    1    3    3    0    0  0.90822495531E+01  0.60106309329E+00  0.43939711786E+01  0.10107201233E+02  0.51100000000E-03 0.  1.
        -12    1    3    3    0    0 -0.29011103190E+02  0.26831002583E+02  0.13157015888E+02  0.41649176163E+02  0.00000000000E+00 0.  1.
</event>
<event>
 7    1  0.2284751E-015  0.9000780E+02  0.7816164E-02  0.1186339E+00
        -11   -1    0    0    0    0  0.00000000000E+00  0.00000000000E+00  0.45593999997E+02  0.45594000000E+02  0.51100000000E-03 0. -1.
         11   -1    0    0    0    0 -0.00000000000E+00 -0.00000000000E+00 -0.45593999997E+02  0.45594000000E+02  0.51100000000E-03 0.  1.
    9900012    2    1    2    0    0  0.83379365578E+00 -0.15106710482E-01 -0.83511706646E+00  0.90007804852E+02  0.90000067076E+02 0.  0.
         12    1    1    2    0    0 -0.83379365578E+00  0.15106710482E-01  0.83511706646E+00  0.11801951482E+01  0.00000000000E+00 0. -1.
         11    1    3    3    0    0  0.15099312789E+01  0.10981570622E+02 -0.12797897770E+01  0.11158523555E+02  0.51100000000E-03 0. -1.
        -11    1    3    3    0    0 -0.20766704925E+02  0.27781463999E+02 -0.41594965555E+01  0.34933754267E+02  0.51100000000E-03 0.  1.
         12    1    3    3    0    0  0.20090567302E+02 -0.38778141331E+02  0.46041692660E+01  0.43915527029E+02  0.00000000000E+00 0. -1.
</event>
<event>
 7    1  0.2284751E-015  0.9000772E+02  0.7816164E-02  0.1186339E+00
        -11   -1    0    0    0    0  0.00000000000E+00  0.00000000000E+00  0.45593999997E+02  0.45594000000E+02  0.51100000000E-03 0. -1.
         11   -1    0    0    0    0 -0.00000000000E+00 -0.00000000000E+00 -0.45593999997E+02  0.45594000000E+02  0.51100000000E-03 0.  1.
    9900012    2    1    2    0    0  0.83720720309E-01 -0.11733043631E+01  0.97035791381E-01  0.90007716885E+02  0.89999977948E+02 0.  0.
         12    1    1    2    0    0 -0.83720720309E-01  0.11733043631E+01 -0.97035791381E-01  0.11802831153E+01  0.00000000000E+00 0. -1.
         11    1    3    3    0    0  0.12384225167E+02  0.34443477536E+02  0.60255229638E+01  0.37094866289E+02  0.51100000000E-03 0. -1.
        -11    1    3    3    0    0  0.83052106628E+01  0.22972251467E+01  0.24429066946E+01  0.89566489776E+01  0.51100000000E-03 0.  1.
        -12    1    3    3    0    0 -0.20605715109E+02 -0.37914007046E+02 -0.83713938670E+01  0.43956201618E+02  0.00000000000E+00 0.  1.
</event>
<event>
 7    1  0.2284751E-015  0.9000771E+02  0.7816164E-02  0.1186339E+00
        -11   -1    0    0    0    0  0.00000000000E+00  0.00000000000E+00  0.45593999997E+02  0.45594000000E+02  0.51100000000E-03 0. -1.
         11   -1    0    0    0    0 -0.00000000000E+00 -0.00000000000E+00 -0.45593999997E+02  0.45594000000E+02  0.51100000000E-03 0.  1.
    9900012    2    1    2    0    0 -0.90283934227E+00 -0.62360544215E+00 -0.43483681626E+00  0.90007709492E+02  0.89999970458E+02 0.  0.
         12    1    1    2    0    0  0.90283934227E+00  0.62360544215E+00  0.43483681626E+00  0.11802905075E+01  0.00000000000E+00 0. -1.
         11    1    3    3    0    0 -0.18681517977E+01 -0.57428454063E+01  0.41484822614E+02  0.41922079768E+02  0.51100000000E-03 0. -1.
        -11    1    3    3    0    0 -0.58606141155E+01 -0.53328461007E+01 -0.56612175523E+01  0.97383484113E+01  0.51100000000E-03 0.  1.
        -12    1    3    3    0    0  0.68259265710E+01  0.10452086065E+02 -0.36258441878E+02  0.38347281313E+02  0.00000000000E+00 0.  1.
</event>
<event>
 7    1  0.2284751E-015  0.9000776E+02  0.7816164E-02  0.1186339E+00
        -11   -1    0    0    0    0  0.00000000000E+00  0.00000000000E+00  0.45593999997E+02  0.45594000000E+02  0.51100000000E-03 0.  1.
         11   -1    0    0    0    0 -0.00000000000E+00 -0.00000000000E+00 -0.45593999997E+02  0.45594000000E+02  0.51100000000E-03 0. -1.
    9900012    2    1    2    0    0  0.90654994052E+00  0.58901370277E+00  0.47348750289E+00  0.90007762587E+02  0.90000024253E+02 0.  0.
         12    1    1    2    0    0 -0.90654994052E+00 -0.58901370277E+00 -0.47348750289E+00  0.11802374134E+01  0.00000000000E+00 0. -1.
         11    1    3    3    0    0 -0.65686244800E+01 -0.10934490510E+02  0.39252707258E+01  0.13346072861E+02  0.51100000000E-03 0. -1.
        -11    1    3    3    0    0  0.20247824926E+02 -0.14267004655E+02  0.25702483718E+02  0.35695090777E+02  0.51100000000E-03 0.  1.
         12    1    3    3    0    0 -0.12772650505E+02  0.25790508867E+02 -0.29154266941E+02  0.40966598949E+02  0.00000000000E+00 0. -1.
</event>
<event>
 7    1  0.2284751E-015  0.9000776E+02  0.7816164E-02  0.1186339E+00
        -11   -1    0    0    0    0  0.00000000000E+00  0.00000000000E+00  0.45593999997E+02  0.45594000000E+02  0.51100000000E-03 0.  1.
         11   -1    0    0    0    0 -0.00000000000E+00 -0.00000000000E+00 -0.45593999997E+02  0.45594000000E+02  0.51100000000E-03 0. -1.
    9900012    2    1    2    0    0  0.30906086016E+00  0.26924151363E+00  0.11067734000E+01  0.90007764021E+02  0.90000025706E+02 0.  0.
         12    1    1    2    0    0 -0.30906086016E+00 -0.26924151363E+00 -0.11067734000E+01  0.11802359793E+01  0.00000000000E+00 0. -1.
         11    1    3    3    0    0 -0.18520023010E+01  0.28198522142E+00  0.94746952000E+01  0.96581197747E+01  0.51100000000E-03 0. -1.
        -11    1    3    3    0    0  0.18930066020E+02  0.35010490266E+02 -0.11399197829E+02  0.41400767379E+02  0.51100000000E-03 0.  1.
         12    1    3    3    0    0 -0.16769002859E+02 -0.35023233973E+02  0.30312760293E+01  0.38948876867E+02  0.00000000000E+00 0. -1.
</event>
<event>
 7    1  0.2284751E-015  0.9000768E+02  0.7816164E-02  0.1186339E+00
        -11   -1    0    0    0    0  0.00000000000E+00  0.00000000000E+00  0.45593999997E+02  0.45594000000E+02  0.51100000000E-03 0.  1.
         11   -1    0    0    0    0 -0.00000000000E+00 -0.00000000000E+00 -0.45593999997E+02  0.45594000000E+02  0.51100000000E-03 0. -1.
    9900012    2    1    2    0    0  0.68411553504E+00 -0.94836857616E+00  0.16042240135E+00  0.90007681243E+02  0.89999941835E+02 0.  0.
         12    1    1    2    0    0 -0.68411553504E+00  0.94836857616E+00 -0.16042240135E+00  0.11803187571E+01  0.00000000000E+00 0. -1.
         11    1    3    3    0    0  0.36260302525E+01 -0.43756266520E+01  0.18319488226E+02  0.19180663521E+02  0.51100000000E-03 0. -1.
        -11    1    3    3    0    0  0.33652552694E+00  0.28543118973E+02  0.12411556178E+02  0.31126670512E+02  0.51100000000E-03 0.  1.
         12    1    3    3    0    0 -0.32784402444E+01 -0.25115860897E+02 -0.30570622002E+02  0.39700347210E+02  0.00000000000E+00 0. -1.
</event>
<event>
 7    1  0.2284751E-015  0.9000775E+02  0.7816164E-02  0.1186339E+00
        -11   -1    0    0    0    0  0.00000000000E+00  0.00000000000E+00  0.45593999997E+02  0.45594000000E+02  0.51100000000E-03 0.  1.
         11   -1    0    0    0    0 -0.00000000000E+00 -0.00000000000E+00 -0.45593999997E+02  0.45594000000E+02  0.51100000000E-03 0. -1.
    9900012    2    1    2    0    0 -0.12593881894E+00  0.11660647979E+01  0.13197720133E+00  0.90007751856E+02  0.90000013381E+02 0.  0.
         12    1    1    2    0    0  0.12593881894E+00 -0.11660647979E+01 -0.13197720133E+00  0.11802481437E+01  0.00000000000E+00 0. -1.
         11    1    3    3    0    0 -0.26605060150E+02  0.29151141781E+02  0.32249924954E+01  0.39598218010E+02  0.51100000000E-03 0. -1.
        -11    1    3    3    0    0 -0.12773066981E+01 -0.13329782466E+01  0.96876879978E+01  0.98620303392E+01  0.51100000000E-03 0.  1.
        -12    1    3    3    0    0  0.27756428029E+02 -0.26652098737E+02 -0.12780703292E+02  0.40547503507E+02  0.00000000000E+00 0.  1.
</event>
<event>
 7    1  0.2284751E-015  0.9000773E+02  0.7816164E-02  0.1186339E+00
        -11   -1    0    0    0    0  0.00000000000E+00  0.00000000000E+00  0.45593999997E+02  0.45594000000E+02  0.51100000000E-03 0. -1.
         11   -1    0    0    0    0 -0.00000000000E+00 -0.00000000000E+00 -0.45593999997E+02  0.45594000000E+02  0.51100000000E-03 0.  1.
    9900012    2    1    2    0    0 -0.28771560173E+00 -0.61417230814E-01 -0.11430171798E+01  0.90007728583E+02  0.89999989801E+02 0.  0.
         12    1    1    2    0    0  0.28771560173E+00  0.61417230814E-01  0.11430171798E+01  0.11802714167E+01  0.00000000000E+00 0. -1.
         11    1    3    3    0    0 -0.92181622999E+01  0.32061142177E+02 -0.12838691158E+02  0.35745256256E+02  0.51100000000E-03 0. -1.
        -11    1    3    3    0    0 -0.45282407535E+01  0.87877761575E+01  0.29447529020E+01  0.10315112410E+02  0.51100000000E-03 0.  1.
        -12    1    3    3    0    0  0.13458687452E+02 -0.40910335566E+02  0.87509210758E+01  0.43947359917E+02  0.00000000000E+00 0.  1.
</event>
<event>
 7    1  0.2284751E-015  0.9000774E+02  0.7816164E-02  0.1186339E+00
        -11   -1    0    0    0    0  0.00000000000E+00  0.00000000000E+00  0.45593999997E+02  0.45594000000E+02  0.51100000000E-03 0. -1.
         11   -1    0    0    0    0 -0.00000000000E+00 -0.00000000000E+00 -0.45593999997E+02  0.45594000000E+02  0.51100000000E-03 0.  1.
    9900012    2    1    2    0    0 -0.74711176633E+00 -0.76764553666E+00  0.49553876788E+00  0.90007739719E+02  0.90000001083E+02 0.  0.
         12    1    1    2    0    0  0.74711176633E+00  0.76764553666E+00 -0.49553876788E+00  0.11802602814E+01  0.00000000000E+00 0. -1.
         11    1    3    3    0    0  0.57982192301E+00  0.39583041249E+02 -0.85788678789E+01  0.40506176348E+02  0.51100000000E-03 0. -1.
        -11    1    3    3    0    0  0.35098595032E+01 -0.18109617850E+01 -0.65387560571E+01  0.76389807798E+01  0.51100000000E-03 0.  1.
        -12    1    3    3    0    0 -0.48367931926E+01 -0.38539725001E+02  0.15613162704E+02  0.41862582591E+02  0.00000000000E+00 0.  1.
</event>
<event>
 7    1  0.2284751E-015  0.9000774E+02  0.7816164E-02  0.1186339E+00
        -11   -1    0    0    0    0  0.00000000000E+00  0.00000000000E+00  0.45593999997E+02  0.45594000000E+02  0.51100000000E-03 0.  1.
         11   -1    0    0    0    0 -0.00000000000E+00 -0.00000000000E+00 -0.45593999997E+02  0.45594000000E+02  0.51100000000E-03 0. -1.
    9900012    2    1    2    0    0 -0.37184975805E+00  0.97393274436E+00 -0.55335817288E+00  0.90007736258E+02  0.89999997577E+02 0.  0.
         12    1    1    2    0    0  0.37184975805E+00 -0.97393274436E+00  0.55335817288E+00  0.11802637420E+01  0.00000000000E+00 0. -1.
         11    1    3    3    0    0 -0.15489114567E+02  0.14050970120E+01  0.10657204226E+01  0.15589186251E+02  0.51100000000E-03 0. -1.
        -11    1    3    3    0    0 -0.21950755144E+02  0.27540346056E+01  0.21309022112E+02  0.30716360163E+02  0.51100000000E-03 0.  1.
         12    1    3    3    0    0  0.37068019953E+02 -0.31851988732E+01 -0.22928100708E+02  0.43702189844E+02  0.00000000000E+00 0. -1.
</event>
<event>
 7    1  0.2569415E-015  0.9000758E+02  0.7816164E-02  0.1186339E+00
        -11   -1    0    0    0    0  0.00000000000E+00  0.00000000000E+00  0.45593999997E+02  0.45594000000E+02  0.51100000000E-03 0.  1.
         11   -1    0    0    0    0 -0.00000000000E+00 -0.00000000000E+00 -0.45593999997E+02  0.45594000000E+02  0.51100000000E-03 0. -1.
    9900012    2    1    2    0    0 -0.41162667754E+00  0.49828726727E-01  0.11051977728E+01  0.90007584166E+02  0.89999843477E+02 0.  0.
         12    1    1    2    0    0  0.41162667754E+00 -0.49828726727E-01 -0.11051977728E+01  0.11804158338E+01  0.00000000000E+00 0. -1.
         11    1    3    3    0    0  0.74011051327E+01 -0.86023228504E+01 -0.34864434386E+02  0.36664766479E+02  0.51100000000E-03 0. -1.
        -11    1    3    3    0    0  0.16184994690E+01 -0.96551741898E+01 -0.21434285500E+01  0.10021787035E+02  0.51100000000E-03 0.  1.
        -12    1    3    3    0    0 -0.94312312792E+01  0.18307325767E+02  0.38113060709E+02  0.43321030652E+02  0.00000000000E+00 0.  1.
</event>
<event>
 7    1  0.2284751E-015  0.9000733E+02  0.7816164E-02  0.1186340E+00
        -11   -1    0    0    0    0  0.00000000000E+00  0.00000000000E+00  0.45593999997E+02  0.45594000000E+02  0.51100000000E-03 0. -1.
         11   -1    0    0    0    0 -0.00000000000E+00 -0.00000000000E+00 -0.45593999997E+02  0.45594000000E+02  0.51100000000E-03 0.  1.
    9900012    2    1    2    0    0 -0.42784886794E+00 -0.71381589389E-01 -0.10981043773E+01  0.90007329339E+02  0.89999585286E+02 0.  0.
         12    1    1    2    0    0  0.42784886794E+00  0.71381589389E-01  0.10981043773E+01  0.11806706605E+01  0.00000000000E+00 0. -1.
         11    1    3    3    0    0  0.29352553314E+02 -0.16078255737E+02  0.22156531656E+02  0.40137197073E+02  0.51100000000E-03 0. -1.
        -11    1    3    3    0    0 -0.43663452659E+01  0.87954473712E+01  0.51428757498E+01  0.11084856187E+02  0.51100000000E-03 0.  1.
        -12    1    3    3    0    0 -0.25414056916E+02  0.72114267766E+01 -0.28397511783E+02  0.38785276080E+02  0.00000000000E+00 0.  1.
</event>
<event>
 7    1  0.2284751E-015  0.9000774E+02  0.7816164E-02  0.1186339E+00
        -11   -1    0    0    0    0  0.00000000000E+00  0.00000000000E+00  0.45593999997E+02  0.45594000000E+02  0.51100000000E-03 0.  1.
         11   -1    0    0    0    0 -0.00000000000E+00 -0.00000000000E+00 -0.45593999997E+02  0.45594000000E+02  0.51100000000E-03 0. -1.
    9900012    2    1    2    0    0  0.51654942382E-02 -0.11757937314E+01  0.10248652465E+00  0.90007736865E+02  0.89999998191E+02 0.  0.
         12    1    1    2    0    0 -0.51654942382E-02  0.11757937314E+01 -0.10248652465E+00  0.11802631354E+01  0.00000000000E+00 0. -1.
         11    1    3    3    0    0  0.56432470246E+01  0.74584492032E+01  0.27011060431E+01  0.97350231440E+01  0.51100000000E-03 0. -1.
        -11    1    3    3    0    0  0.47864358421E+01  0.23521471620E+02  0.26439070661E+02  0.35709859324E+02  0.51100000000E-03 0.  1.
         12    1    3    3    0    0 -0.10424517373E+02 -0.32155714555E+02 -0.29037690180E+02  0.44562854396E+02  0.00000000000E+00 0. -1.
</event>
<event>
 7    1  0.2284751E-015  0.9000769E+02  0.7816164E-02  0.1186339E+00
        -11   -1    0    0    0    0  0.00000000000E+00  0.00000000000E+00  0.45593999997E+02  0.45594000000E+02  0.51100000000E-03 0.  1.
         11   -1    0    0    0    0 -0.00000000000E+00 -0.00000000000E+00 -0.45593999997E+02  0.45594000000E+02  0.51100000000E-03 0. -1.
    9900012    2    1    2    0    0  0.85901417667E+00 -0.74394925458E+00  0.31899075906E+00  0.90007694551E+02  0.89999955319E+02 0.  0.
         12    1    1    2    0    0 -0.85901417667E+00  0.74394925458E+00 -0.31899075906E+00  0.11803054492E+01  0.00000000000E+00 0. -1.
         11    1    3    3    0    0  0.32233903847E+02  0.20972413564E+02  0.60608530824E+01  0.38930715743E+02  0.51100000000E-03 0. -1.
        -11    1    3    3    0    0 -0.59180813857E+01  0.73565900548E+01  0.53780077869E+01  0.10865821301E+02  0.51100000000E-03 0.  1.
        -12    1    3    3    0    0 -0.25456808285E+02 -0.29072952873E+02 -0.11119870110E+02  0.40211157507E+02  0.00000000000E+00 0.  1.
</event>
<event>
 7    1  0.2284751E-015  0.9000730E+02  0.7816164E-02  0.1186340E+00
        -11   -1    0    0    0    0  0.00000000000E+00  0.00000000000E+00  0.45593999997E+02  0.45594000000E+02  0.51100000000E-03 0.  1.
         11   -1    0    0    0    0 -0.00000000000E+00 -0.00000000000E+00 -0.45593999997E+02  0.45594000000E+02  0.51100000000E-03 0. -1.
    9900012    2    1    2    0    0  0.93491737065E+00  0.71752470622E+00  0.71639730233E-01  0.90007303407E+02  0.89999559011E+02 0.  0.
         12    1    1    2    0    0 -0.93491737065E+00 -0.71752470622E+00 -0.71639730233E-01  0.11806965931E+01  0.00000000000E+00 0. -1.
         11    1    3    3    0    0 -0.69972870379E+01  0.34295712852E+02 -0.19407727459E+02  0.40022716441E+02  0.51100000000E-03 0. -1.
        -11    1    3    3    0    0  0.10663388487E+02  0.74758723964E+00  0.90486620067E+01  0.14005178510E+02  0.51100000000E-03 0.  1.
        -12    1    3    3    0    0 -0.27311840788E+01 -0.34325775385E+02  0.10430705183E+02  0.35979408457E+02  0.00000000000E+00 0.  1.
</event>
<event>
 7    1  0.2284751E-015  0.9000772E+02  0.7816164E-02  0.1186339E+00
        -11   -1    0    0    0    0  0.00000000000E+00  0.00000000000E+00  0.45593999997E+02  0.45594000000E+02  0.51100000000E-03 0.  1.
         11   -1    0    0    0    0 -0.00000000000E+00 -0.00000000000E+00 -0.45593999997E+02  0.45594000000E+02  0.51100000000E-03 0. -1.
    9900012    2    1    2    0    0  0.65774838919E+00 -0.11728631911E+00  0.97296469455E+00  0.90007724896E+02  0.89999986065E+02 0.  0.
         12    1    1    2    0    0 -0.65774838919E+00  0.11728631911E+00 -0.97296469455E+00  0.11802751039E+01  0.00000000000E+00 0. -1.
         11    1    3    3    0    0 -0.28340232460E+02 -0.10062087740E+02  0.20212740933E+02  0.36234917992E+02  0.51100000000E-03 0. -1.
        -11    1    3    3    0    0 -0.49650065749E+01 -0.90977732461E+01 -0.51904533652E-01  0.10364529062E+02  0.51100000000E-03 0.  1.
        -12    1    3    3    0    0  0.33962987424E+02  0.19042574667E+02 -0.19187871705E+02  0.43408277843E+02  0.00000000000E+00 0.  1.
</event>
<event>
 7    1  0.2284751E-015  0.9000769E+02  0.7816164E-02  0.1186339E+00
        -11   -1    0    0    0    0  0.00000000000E+00  0.00000000000E+00  0.45593999997E+02  0.45594000000E+02  0.51100000000E-03 0.  1.
         11   -1    0    0    0    0 -0.00000000000E+00 -0.00000000000E+00 -0.45593999997E+02  0.45594000000E+02  0.51100000000E-03 0. -1.
    9900012    2    1    2    0    0 -0.58090801171E+00  0.45831974619E+00  0.91957883485E+00  0.90007688032E+02  0.89999948714E+02 0.  0.
         12    1    1    2    0    0  0.58090801171E+00 -0.45831974619E+00 -0.91957883485E+00  0.11803119678E+01  0.00000000000E+00 0. -1.
         11    1    3    3    0    0  0.38735044333E+02  0.19421045031E+01 -0.33172069518E+00  0.38785119160E+02  0.51100000000E-03 0. -1.
        -11    1    3    3    0    0  0.22048846708E+01  0.80238846968E+01 -0.18146652668E+01  0.85168804342E+01  0.51100000000E-03 0.  1.
        -12    1    3    3    0    0 -0.41520837015E+02 -0.95076694537E+01  0.30659647968E+01  0.42705688438E+02  0.00000000000E+00 0.  1.
</event>
<event>
 7    1  0.2284751E-015  0.9000780E+02  0.7816164E-02  0.1186339E+00
        -11   -1    0    0    0    0  0.00000000000E+00  0.00000000000E+00  0.45593999997E+02  0.45594000000E+02  0.51100000000E-03 0. -1.
         11   -1    0    0    0    0 -0.00000000000E+00 -0.00000000000E+00 -0.45593999997E+02  0.45594000000E+02  0.51100000000E-03 0.  1.
    9900012    2    1    2    0    0 -0.12462037597E+00 -0.57484170837E+00 -0.10231775906E+01  0.90007802724E+02  0.90000064920E+02 0.  0.
         12    1    1    2    0    0  0.12462037597E+00  0.57484170837E+00  0.10231775906E+01  0.11801972757E+01  0.00000000000E+00 0. -1.
         11    1    3    3    0    0 -0.58100353989E+01  0.10624241167E+00 -0.16046837726E+02  0.17066598960E+02  0.51100000000E-03 0. -1.
        -11    1    3    3    0    0  0.13047765457E+02  0.11453051791E+02 -0.25021780880E+02  0.30454984771E+02  0.51100000000E-03 0.  1.
         12    1    3    3    0    0 -0.73623504344E+01 -0.12134135911E+02  0.40045441016E+02  0.42486218993E+02  0.00000000000E+00 0. -1.
</event>
<event>
 7    1  0.2284751E-015  0.9000776E+02  0.7816164E-02  0.1186339E+00
        -11   -1    0    0    0    0  0.00000000000E+00  0.00000000000E+00  0.45593999997E+02  0.45594000000E+02  0.51100000000E-03 0.  1.
         11   -1    0    0    0    0 -0.00000000000E+00 -0.00000000000E+00 -0.45593999997E+02  0.45594000000E+02  0.51100000000E-03 0. -1.
    9900012    2    1    2    0    0 -0.69093596085E+00  0.40923729778E+00  0.86493377280E+00  0.90007755068E+02  0.90000016635E+02 0.  0.
         12    1    1    2    0    0  0.69093596085E+00 -0.40923729778E+00 -0.86493377280E+00  0.11802449319E+01  0.00000000000E+00 0. -1.
         11    1    3    3    0    0  0.44118543221E+00  0.10687622359E+02  0.12005000915E+02  0.16079177949E+02  0.51100000000E-03 0. -1.
        -11    1    3    3    0    0 -0.35307344551E+02 -0.15406597534E+02 -0.62692645690E+01  0.39029162242E+02  0.51100000000E-03 0.  1.
         12    1    3    3    0    0  0.34175223158E+02  0.51282124721E+01 -0.48708025733E+01  0.34899414877E+02  0.00000000000E+00 0. -1.
</event>
<event>
 7    1  0.2284751E-015  0.9000774E+02  0.7816164E-02  0.1186339E+00
        -11   -1    0    0    0    0  0.00000000000E+00  0.00000000000E+00  0.45593999997E+02  0.45594000000E+02  0.51100000000E-03 0.  1.
         11   -1    0    0    0    0 -0.00000000000E+00 -0.00000000000E+00 -0.45593999997E+02  0.45594000000E+02  0.51100000000E-03 0. -1.
    9900012    2    1    2    0    0 -0.44535365610E+00 -0.10700833674E+01 -0.22270038918E+00  0.90007739963E+02  0.90000001330E+02 0.  0.
         12    1    1    2    0    0  0.44535365610E+00  0.10700833674E+01  0.22270038918E+00  0.11802600373E+01  0.00000000000E+00 0. -1.
         11    1    3    3    0    0  0.11823248682E+01  0.28501683998E+01  0.10636074288E+02  0.11074629950E+02  0.51100000000E-03 0. -1.
        -11    1    3    3    0    0  0.36394972383E+02 -0.13533054290E+02 -0.30922577982E+01  0.38952530492E+02  0.51100000000E-03 0.  1.
         12    1    3    3    0    0 -0.38022650907E+02  0.96128025228E+01 -0.77665168794E+01  0.39980579521E+02  0.00000000000E+00 0. -1.
</event>
<event>
 7    1  0.2284751E-015  0.9000772E+02  0.7816164E-02  0.1186339E+00
        -11   -1    0    0    0    0  0.00000000000E+00  0.00000000000E+00  0.45593999997E+02  0.45594000000E+02  0.51100000000E-03 0.  1.
         11   -1    0    0    0    0 -0.00000000000E+00 -0.00000000000E+00 -0.45593999997E+02  0.45594000000E+02  0.51100000000E-03 0. -1.
    9900012    2    1    2    0    0  0.36700405801E+00  0.11060102483E+01 -0.18740712776E+00  0.90007715255E+02  0.89999976296E+02 0.  0.
         12    1    1    2    0    0 -0.36700405801E+00 -0.11060102483E+01  0.18740712776E+00  0.11802847450E+01  0.00000000000E+00 0. -1.
         11    1    3    3    0    0 -0.84733785731E+01 -0.66808425696E+00  0.38089737425E+00  0.85082056915E+01  0.51100000000E-03 0. -1.
        -11    1    3    3    0    0 -0.28433008562E+02 -0.21750142542E+02 -0.83069602359E+01  0.36749289315E+02  0.51100000000E-03 0.  1.
         12    1    3    3    0    0  0.37273391194E+02  0.23524237047E+02  0.77386557339E+01  0.44750220249E+02  0.00000000000E+00 0. -1.
</event>
<event>
 7    1  0.2284751E-015  0.9000780E+02  0.7816164E-02  0.1186339E+00
        -11   -1    0    0    0    0  0.00000000000E+00  0.00000000000E+00  0.45593999997E+02  0.45594000000E+02  0.51100000000E-03 0.  1.
         11   -1    0    0    0    0 -0.00000000000E+00 -0.00000000000E+00 -0.45593999997E+02  0.45594000000E+02  0.51100000000E-03 0. -1.
    9900012    2    1    2    0    0 -0.55183472294E+00  0.10238787820E+01 -0.20007063884E+00  0.90007797652E+02  0.90000059781E+02 0.  0.
         12    1    1    2    0    0  0.55183472294E+00 -0.10238787820E+01  0.20007063884E+00  0.11802023480E+01  0.00000000000E+00 0. -1.
         11    1    3    3    0    0  0.24599672300E+02  0.28396192514E+02  0.94550858659E+01  0.38741273541E+02  0.51100000000E-03 0. -1.
        -11    1    3    3    0    0 -0.61487250657E+01  0.80422013857E+01 -0.27129631422E+01  0.10480648469E+02  0.51100000000E-03 0.  1.
        -12    1    3    3    0    0 -0.19002781958E+02 -0.35414515118E+02 -0.69421933626E+01  0.40785875642E+02  0.00000000000E+00 0.  1.
</event>
<event>
 7    1  0.2284751E-015  0.9000772E+02  0.7816164E-02  0.1186339E+00
        -11   -1    0    0    0    0  0.00000000000E+00  0.00000000000E+00  0.45593999997E+02  0.45594000000E+02  0.51100000000E-03 0. -1.
         11   -1    0    0    0    0 -0.00000000000E+00 -0.00000000000E+00 -0.45593999997E+02  0.45594000000E+02  0.51100000000E-03 0.  1.
    9900012    2    1    2    0    0  0.28814842624E+00 -0.19914935694E-02 -0.11445643534E+01  0.90007719931E+02  0.89999981034E+02 0.  0.
         12    1    1    2    0    0 -0.28814842624E+00  0.19914935694E-02  0.11445643534E+01  0.11802800688E+01  0.00000000000E+00 0. -1.
         11    1    3    3    0    0 -0.97976722750E+01  0.32732092056E+01 -0.12065083437E+01  0.10400189573E+02  0.51100000000E-03 0. -1.
        -11    1    3    3    0    0 -0.78478229154E+01  0.17522113289E+02 -0.32046206277E+02  0.37357356914E+02  0.51100000000E-03 0.  1.
         12    1    3    3    0    0  0.17933643617E+02 -0.20797313988E+02  0.32108150267E+02  0.42250173444E+02  0.00000000000E+00 0. -1.
</event>
<event>
 7    1  0.2284751E-015  0.9000780E+02  0.7816164E-02  0.1186339E+00
        -11   -1    0    0    0    0  0.00000000000E+00  0.00000000000E+00  0.45593999997E+02  0.45594000000E+02  0.51100000000E-03 0. -1.
         11   -1    0    0    0    0 -0.00000000000E+00 -0.00000000000E+00 -0.45593999997E+02  0.45594000000E+02  0.51100000000E-03 0.  1.
    9900012    2    1    2    0    0  0.38166232486E+00  0.69533258234E+00 -0.87390358900E+00  0.90007804672E+02  0.90000066893E+02 0.  0.
         12    1    1    2    0    0 -0.38166232486E+00 -0.69533258234E+00  0.87390358900E+00  0.11801953284E+01  0.00000000000E+00 0. -1.
         11    1    3    3    0    0 -0.22371333413E+01  0.73741829689E+01 -0.87857296925E+01  0.11686418893E+02  0.51100000000E-03 0. -1.
        -11    1    3    3    0    0 -0.16071339104E+02  0.21851979720E+02 -0.20443393019E+02  0.33966590595E+02  0.51100000000E-03 0.  1.
         12    1    3    3    0    0  0.18690134770E+02 -0.28530830106E+02  0.28355219123E+02  0.44354795184E+02  0.00000000000E+00 0. -1.
</event>
<event>
 7    1  0.2284751E-015  0.9000784E+02  0.7816164E-02  0.1186339E+00
        -11   -1    0    0    0    0  0.00000000000E+00  0.00000000000E+00  0.45593999997E+02  0.45594000000E+02  0.51100000000E-03 0.  1.
         11   -1    0    0    0    0 -0.00000000000E+00 -0.00000000000E+00 -0.45593999997E+02  0.45594000000E+02  0.51100000000E-03 0. -1.
    9900012    2    1    2    0    0  0.94134524934E+00 -0.29292778068E-01  0.71118774005E+00  0.90007840288E+02  0.90000102979E+02 0.  0.
         12    1    1    2    0    0 -0.94134524934E+00  0.29292778068E-01 -0.71118774005E+00  0.11801597125E+01  0.00000000000E+00 0. -1.
         11    1    3    3    0    0  0.19418459719E+01 -0.39336896732E+01 -0.12724262626E+02  0.13459254804E+02  0.51100000000E-03 0. -1.
        -11    1    3    3    0    0  0.12468527322E+02 -0.11280372568E+02 -0.26711144546E+02  0.31562576290E+02  0.51100000000E-03 0.  1.
        -12    1    3    3    0    0 -0.13469028044E+02  0.15184769463E+02  0.40146594913E+02  0.44986009194E+02  0.00000000000E+00 0.  1.
</event>
<event>
 7    1  0.2284751E-015  0.9000779E+02  0.7816164E-02  0.1186339E+00
        -11   -1    0    0    0    0  0.00000000000E+00  0.00000000000E+00  0.45593999997E+02  0.45594000000E+02  0.51100000000E-03 0. -1.
         11   -1    0    0    0    0 -0.00000000000E+00 -0.00000000000E+00 -0.45593999997E+02  0.45594000000E+02  0.51100000000E-03 0.  1.
    9900012    2    1    2    0    0  0.98679908659E+00  0.44950393726E+00 -0.46591938988E+00  0.90007785145E+02  0.90000047109E+02 0.  0.
         12    1    1    2    0    0 -0.98679908659E+00 -0.44950393726E+00  0.46591938988E+00  0.11802148553E+01  0.00000000000E+00 0. -1.
         11    1    3    3    0    0 -0.10630883967E+02  0.18449189912E+02 -0.73018441693E+01  0.22510113968E+02  0.51100000000E-03 0. -1.
        -11    1    3    3    0    0 -0.17409369445E+02 -0.79631618397E+01 -0.19288830032E+02  0.27176406223E+02  0.51100000000E-03 0.  1.
         12    1    3    3    0    0  0.29027052499E+02 -0.10036524135E+02  0.26124754811E+02  0.40321264953E+02  0.00000000000E+00 0. -1.
</event>
<event>
 7    1  0.2284751E-015  0.9000770E+02  0.7816164E-02  0.1186339E+00
        -11   -1    0    0    0    0  0.00000000000E+00  0.00000000000E+00  0.45593999997E+02  0.45594000000E+02  0.51100000000E-03 0.  1.
         11   -1    0    0    0    0 -0.00000000000E+00 -0.00000000000E+00 -0.45593999997E+02  0.45594000000E+02  0.51100000000E-03 0. -1.
    9900012    2    1    2    0    0 -0.97807642033E+00 -0.24582041383E+00  0.61321705546E+00  0.90007704987E+02  0.89999965893E+02 0.  0.
         12    1    1    2    0    0  0.97807642033E+00  0.24582041383E+00 -0.61321705546E+00  0.11802950127E+01  0.00000000000E+00 0. -1.
         11    1    3    3    0    0  0.23109344953E+02  0.25772230967E+02 -0.23270316843E+02  0.41710398697E+02  0.51100000000E-03 0. -1.
        -11    1    3    3    0    0  0.35292599142E+01 -0.76467749645E+01  0.23220222709E+01  0.87361679578E+01  0.51100000000E-03 0.  1.
        -12    1    3    3    0    0 -0.27616681288E+02 -0.18371276417E+02  0.21561511628E+02  0.39561138333E+02  0.00000000000E+00 0.  1.
</event>
<event>
 7    1  0.2284751E-015  0.9000763E+02  0.7816164E-02  0.1186339E+00
        -11   -1    0    0    0    0  0.00000000000E+00  0.00000000000E+00  0.45593999997E+02  0.45594000000E+02  0.51100000000E-03 0.  1.
         11   -1    0    0    0    0 -0.00000000000E+00 -0.00000000000E+00 -0.45593999997E+02  0.45594000000E+02  0.51100000000E-03 0. -1.
    9900012    2    1    2    0    0 -0.60599293907E-01  0.69466302378E+00  0.95238806524E+00  0.90007630559E+02  0.89999890482E+02 0.  0.
         12    1    1    2    0    0  0.60599293907E-01 -0.69466302378E+00 -0.95238806524E+00  0.11803694413E+01  0.00000000000E+00 0. -1.
         11    1    3    3    0    0  0.26780475859E+02  0.20805634378E+02 -0.17200233586E+02  0.38025206703E+02  0.51100000000E-03 0. -1.
        -11    1    3    3    0    0  0.45415265540E+01 -0.25696128530E+01 -0.65404056314E+01  0.83669157842E+01  0.51100000000E-03 0.  1.
        -12    1    3    3    0    0 -0.31382601707E+02 -0.17541358501E+02  0.24693027283E+02  0.43615508072E+02  0.00000000000E+00 0.  1.
</event>
<event>
 7    1  0.2284751E-015  0.9000775E+02  0.7816164E-02  0.1186339E+00
        -11   -1    0    0    0    0  0.00000000000E+00  0.00000000000E+00  0.45593999997E+02  0.45594000000E+02  0.51100000000E-03 0. -1.
         11   -1    0    0    0    0 -0.00000000000E+00 -0.00000000000E+00 -0.45593999997E+02  0.45594000000E+02  0.51100000000E-03 0.  1.
    9900012    2    1    2    0    0  0.89642781357E+00  0.68942081953E+00 -0.33781190148E+00  0.90007745463E+02  0.90000006903E+02 0.  0.
         12    1    1    2    0    0 -0.89642781357E+00 -0.68942081953E+00  0.33781190148E+00  0.11802545370E+01  0.00000000000E+00 0. -1.
         11    1    3    3    0    0 -0.31021172847E+02 -0.85723132975E+01  0.14592225270E+02  0.35337384717E+02  0.51100000000E-03 0. -1.
        -11    1    3    3    0    0 -0.25413586797E+01 -0.82374273731E+01  0.62047223606E+01  0.10621313172E+02  0.51100000000E-03 0.  1.
        -12    1    3    3    0    0  0.34458959340E+02  0.17499161490E+02 -0.21134759532E+02  0.44049047574E+02  0.00000000000E+00 0.  1.
</event>
<event>
 7    1  0.2284751E-015  0.9000778E+02  0.7816164E-02  0.1186339E+00
        -11   -1    0    0    0    0  0.00000000000E+00  0.00000000000E+00  0.45593999997E+02  0.45594000000E+02  0.51100000000E-03 0. -1.
         11   -1    0    0    0    0 -0.00000000000E+00 -0.00000000000E+00 -0.45593999997E+02  0.45594000000E+02  0.51100000000E-03 0.  1.
    9900012    2    1    2    0    0  0.10083721141E-01 -0.10988483332E+01 -0.43052466947E+00  0.90007779329E+02  0.90000041216E+02 0.  0.
         12    1    1    2    0    0 -0.10083721141E-01  0.10988483332E+01  0.43052466947E+00  0.11802206709E+01  0.00000000000E+00 0. -1.
         11    1    3    3    0    0 -0.24329733669E+01 -0.65330518401E+01 -0.77458058831E+01  0.10421018894E+02  0.51100000000E-03 0. -1.
        -11    1    3    3    0    0 -0.24240041202E+02 -0.24426628750E+02 -0.10178874823E+02  0.35886617039E+02  0.51100000000E-03 0.  1.
         12    1    3    3    0    0  0.26683098290E+02  0.29860832257E+02  0.17494156036E+02  0.43700143396E+02  0.00000000000E+00 0. -1.
</event>
<event>
 7    1  0.2284751E-015  0.9000774E+02  0.7816164E-02  0.1186339E+00
        -11   -1    0    0    0    0  0.00000000000E+00  0.00000000000E+00  0.45593999997E+02  0.45594000000E+02  0.51100000000E-03 0. -1.
         11   -1    0    0    0    0 -0.00000000000E+00 -0.00000000000E+00 -0.45593999997E+02  0.45594000000E+02  0.51100000000E-03 0.  1.
    9900012    2    1    2    0    0 -0.72256864400E+00 -0.46774175873E+00 -0.80754492969E+00  0.90007738753E+02  0.90000000104E+02 0.  0.
         12    1    1    2    0    0  0.72256864400E+00  0.46774175873E+00  0.80754492969E+00  0.11802612472E+01  0.00000000000E+00 0. -1.
         11    1    3    3    0    0  0.68891278171E+01 -0.65665521018E+01 -0.73132943242E+00  0.95453932127E+01  0.51100000000E-03 0. -1.
        -11    1    3    3    0    0 -0.46194915239E+01 -0.10476968764E+02 -0.37614305866E+02  0.39318476350E+02  0.51100000000E-03 0.  1.
         12    1    3    3    0    0 -0.29922049372E+01  0.16575779107E+02  0.37538090369E+02  0.41143869190E+02  0.00000000000E+00 0. -1.
</event>
<event>
 7    1  0.2284751E-015  0.9000781E+02  0.7816164E-02  0.1186339E+00
        -11   -1    0    0    0    0  0.00000000000E+00  0.00000000000E+00  0.45593999997E+02  0.45594000000E+02  0.51100000000E-03 0.  1.
         11   -1    0    0    0    0 -0.00000000000E+00 -0.00000000000E+00 -0.45593999997E+02  0.45594000000E+02  0.51100000000E-03 0. -1.
    9900012    2    1    2    0    0  0.16656083888E+00  0.33537962470E+00  0.11192114254E+01  0.90007806702E+02  0.90000068951E+02 0.  0.
         12    1    1    2    0    0 -0.16656083888E+00 -0.33537962470E+00 -0.11192114254E+01  0.11801932979E+01  0.00000000000E+00 0. -1.
         11    1    3    3    0    0 -0.37909498481E+01  0.53746063944E+01  0.80373365821E+01  0.10385397163E+02  0.51100000000E-03 0. -1.
        -11    1    3    3    0    0 -0.16353592575E+02  0.32477796320E+02  0.24172684899E+00  0.36363521227E+02  0.51100000000E-03 0.  1.
         12    1    3    3    0    0  0.20311103262E+02 -0.37517023089E+02 -0.71598520057E+01  0.43258888312E+02  0.00000000000E+00 0. -1.
</event>
<event>
 7    1  0.2284751E-015  0.9000779E+02  0.7816164E-02  0.1186339E+00
        -11   -1    0    0    0    0  0.00000000000E+00  0.00000000000E+00  0.45593999997E+02  0.45594000000E+02  0.51100000000E-03 0.  1.
         11   -1    0    0    0    0 -0.00000000000E+00 -0.00000000000E+00 -0.45593999997E+02  0.45594000000E+02  0.51100000000E-03 0. -1.
    9900012    2    1    2    0    0 -0.49369998950E+00 -0.44673018915E+00  0.97446639468E+00  0.90007791418E+02  0.90000053465E+02 0.  0.
         12    1    1    2    0    0  0.49369998950E+00  0.44673018915E+00 -0.97446639468E+00  0.11802085815E+01  0.00000000000E+00 0. -1.
         11    1    3    3    0    0  0.29081043590E+02  0.44191079963E+01 -0.24366545372E+02  0.38196389167E+02  0.51100000000E-03 0. -1.
        -11    1    3    3    0    0  0.39316546009E+01  0.62651595068E+01 -0.13909005095E+01  0.75262697290E+01  0.51100000000E-03 0.  1.
        -12    1    3    3    0    0 -0.33506398180E+02 -0.11130997692E+02  0.26731912276E+02  0.44285132523E+02  0.00000000000E+00 0.  1.
</event>
<event>
 7    1  0.2284751E-015  0.9000779E+02  0.7816164E-02  0.1186339E+00
        -11   -1    0    0    0    0  0.00000000000E+00  0.00000000000E+00  0.45593999997E+02  0.45594000000E+02  0.51100000000E-03 0. -1.
         11   -1    0    0    0    0 -0.00000000000E+00 -0.00000000000E+00 -0.45593999997E+02  0.45594000000E+02  0.51100000000E-03 0.  1.
    9900012    2    1    2    0    0 -0.25800267449E+00 -0.72981015180E-02 -0.11516399881E+01  0.90007790991E+02  0.90000053032E+02 0.  0.
         12    1    1    2    0    0  0.25800267449E+00  0.72981015180E-02  0.11516399881E+01  0.11802090088E+01  0.00000000000E+00 0. -1.
         11    1    3    3    0    0  0.29925629713E+02 -0.56940909671E+01  0.22124242321E+02  0.37649011730E+02  0.51100000000E-03 0. -1.
        -11    1    3    3    0    0  0.41883153394E+01 -0.79899464939E+01 -0.88945884906E+01  0.12668659560E+02  0.51100000000E-03 0.  1.
        -12    1    3    3    0    0 -0.34371947727E+02  0.13676739359E+02 -0.14381293818E+02  0.39690119702E+02  0.00000000000E+00 0.  1.
</event>
<event>
 7    1  0.2284751E-015  0.9000775E+02  0.7816164E-02  0.1186339E+00
        -11   -1    0    0    0    0  0.00000000000E+00  0.00000000000E+00  0.45593999997E+02  0.45594000000E+02  0.51100000000E-03 0.  1.
         11   -1    0    0    0    0 -0.00000000000E+00 -0.00000000000E+00 -0.45593999997E+02  0.45594000000E+02  0.51100000000E-03 0. -1.
    9900012    2    1    2    0    0 -0.10567829219E+01  0.65968237382E-01  0.52138370458E+00  0.90007753026E+02  0.90000014566E+02 0.  0.
         12    1    1    2    0    0  0.10567829219E+01 -0.65968237382E-01 -0.52138370458E+00  0.11802469740E+01  0.00000000000E+00 0. -1.
         11    1    3    3    0    0  0.25151287312E+02 -0.15633581072E+02 -0.19676444663E+02  0.35555007881E+02  0.51100000000E-03 0. -1.
        -11    1    3    3    0    0  0.10311927328E+02 -0.10212004543E+01  0.50270214517E+01  0.11517362568E+02  0.51100000000E-03 0.  1.
        -12    1    3    3    0    0 -0.36519997562E+02  0.16720749764E+02  0.15170806916E+02  0.42935382577E+02  0.00000000000E+00 0.  1.
</event>
<event>
 7    1  0.2284751E-015  0.9000771E+02  0.7816164E-02  0.1186339E+00
        -11   -1    0    0    0    0  0.00000000000E+00  0.00000000000E+00  0.45593999997E+02  0.45594000000E+02  0.51100000000E-03 0. -1.
         11   -1    0    0    0    0 -0.00000000000E+00 -0.00000000000E+00 -0.45593999997E+02  0.45594000000E+02  0.51100000000E-03 0.  1.
    9900012    2    1    2    0    0 -0.98020084662E+00  0.55350578051E+00 -0.35485511735E+00  0.90007709992E+02  0.89999970964E+02 0.  0.
         12    1    1    2    0    0  0.98020084662E+00 -0.55350578051E+00  0.35485511735E+00  0.11802900080E+01  0.00000000000E+00 0. -1.
         11    1    3    3    0    0  0.66847370508E+01 -0.14177249647E+01 -0.56858513880E+01  0.88895759056E+01  0.51100000000E-03 0. -1.
        -11    1    3    3    0    0 -0.43863368854E+02  0.69170475405E+01  0.26002389017E+01  0.44481478353E+02  0.51100000000E-03 0.  1.
         12    1    3    3    0    0  0.36198430957E+02 -0.49458167953E+01  0.27307573689E+01  0.36636655733E+02  0.00000000000E+00 0. -1.
</event>
<event>
 7    1  0.2284751E-015  0.9000773E+02  0.7816164E-02  0.1186339E+00
        -11   -1    0    0    0    0  0.00000000000E+00  0.00000000000E+00  0.45593999997E+02  0.45594000000E+02  0.51100000000E-03 0.  1.
         11   -1    0    0    0    0 -0.00000000000E+00 -0.00000000000E+00 -0.45593999997E+02  0.45594000000E+02  0.51100000000E-03 0. -1.
    9900012    2    1    2    0    0  0.26732778140E+00 -0.11414086436E+01  0.13694375837E+00  0.90007732476E+02  0.89999993745E+02 0.  0.
         12    1    1    2    0    0 -0.26732778140E+00  0.11414086436E+01 -0.13694375837E+00  0.11802675236E+01  0.00000000000E+00 0. -1.
         11    1    3    3    0    0  0.71132456459E+01  0.56971703383E+00  0.62300795233E+01  0.94729473896E+01  0.51100000000E-03 0. -1.
        -11    1    3    3    0    0  0.23639273492E+02 -0.47050588700E+01  0.26489539115E+02  0.35814082607E+02  0.51100000000E-03 0.  1.
         12    1    3    3    0    0 -0.30485191356E+02  0.29939331926E+01 -0.32582674880E+02  0.44720702480E+02  0.00000000000E+00 0. -1.
</event>
<event>
 7    1  0.2284751E-015  0.9000764E+02  0.7816164E-02  0.1186339E+00
        -11   -1    0    0    0    0  0.00000000000E+00  0.00000000000E+00  0.45593999997E+02  0.45594000000E+02  0.51100000000E-03 0. -1.
         11   -1    0    0    0    0 -0.00000000000E+00 -0.00000000000E+00 -0.45593999997E+02  0.45594000000E+02  0.51100000000E-03 0.  1.
    9900012    2    1    2    0    0 -0.83538909766E+00  0.72818385013E+00  0.40635271785E+00  0.90007640226E+02  0.89999900277E+02 0.  0.
         12    1    1    2    0    0  0.83538909766E+00 -0.72818385013E+00 -0.40635271785E+00  0.11803597737E+01  0.00000000000E+00 0. -1.
         11    1    3    3    0    0 -0.35067209950E+01  0.13337150558E+02  0.39396518877E+02  0.41740416589E+02  0.51100000000E-03 0. -1.
        -11    1    3    3    0    0 -0.16988563205E+01 -0.99423002118E+01 -0.12294663458E+01  0.10161054771E+02  0.51100000000E-03 0.  1.
        -12    1    3    3    0    0  0.43701882178E+01 -0.26666664956E+01 -0.37760699814E+02  0.38106168866E+02  0.00000000000E+00 0.  1.
</event>
<event>
 7    1  0.2284751E-015  0.9000742E+02  0.7816164E-02  0.1186340E+00
        -11   -1    0    0    0    0  0.00000000000E+00  0.00000000000E+00  0.45593999997E+02  0.45594000000E+02  0.51100000000E-03 0.  1.
         11   -1    0    0    0    0 -0.00000000000E+00 -0.00000000000E+00 -0.45593999997E+02  0.45594000000E+02  0.51100000000E-03 0. -1.
    9900012    2    1    2    0    0  0.10329745918E+00  0.11552523987E+01 -0.22023116976E+00  0.90007415298E+02  0.89999672380E+02 0.  0.
         12    1    1    2    0    0 -0.10329745918E+00 -0.11552523987E+01  0.22023116976E+00  0.11805847017E+01  0.00000000000E+00 0. -1.
         11    1    3    3    0    0  0.68187450004E+01  0.51414198117E-01  0.22048278372E+00  0.68225024529E+01  0.51100000000E-03 0. -1.
        -11    1    3    3    0    0 -0.31870849475E+02  0.18635916674E+01  0.29916827858E+02  0.43752035489E+02  0.51100000000E-03 0.  1.
         12    1    3    3    0    0  0.25155401933E+02 -0.75975346685E+00 -0.30357541811E+02  0.39432877356E+02  0.00000000000E+00 0. -1.
</event>
<event>
 7    1  0.2284751E-015  0.9000780E+02  0.7816164E-02  0.1186339E+00
        -11   -1    0    0    0    0  0.00000000000E+00  0.00000000000E+00  0.45593999997E+02  0.45594000000E+02  0.51100000000E-03 0. -1.
         11   -1    0    0    0    0 -0.00000000000E+00 -0.00000000000E+00 -0.45593999997E+02  0.45594000000E+02  0.51100000000E-03 0.  1.
    9900012    2    1    2    0    0 -0.96227710433E+00 -0.19677990774E+00 -0.65435223657E+00  0.90007798150E+02  0.90000060285E+02 0.  0.
         12    1    1    2    0    0  0.96227710433E+00  0.19677990774E+00  0.65435223657E+00  0.11802018502E+01  0.00000000000E+00 0. -1.
         11    1    3    3    0    0  0.97767054205E+01 -0.35210240632E+02  0.12139055165E+02  0.38505865460E+02  0.51100000000E-03 0. -1.
        -11    1    3    3    0    0  0.72516919623E+01  0.39698793278E+01  0.67246503437E+01  0.10656824138E+02  0.51100000000E-03 0.  1.
        -12    1    3    3    0    0 -0.17990674487E+02  0.31043581397E+02 -0.19518057746E+02  0.40845108552E+02  0.00000000000E+00 0.  1.
</event>
<event>
 7    1  0.2284751E-015  0.9000775E+02  0.7816164E-02  0.1186339E+00
        -11   -1    0    0    0    0  0.00000000000E+00  0.00000000000E+00  0.45593999997E+02  0.45594000000E+02  0.51100000000E-03 0. -1.
         11   -1    0    0    0    0 -0.00000000000E+00 -0.00000000000E+00 -0.45593999997E+02  0.45594000000E+02  0.51100000000E-03 0.  1.
    9900012    2    1    2    0    0  0.10297562334E+01  0.35683586998E+00 -0.45305028761E+00  0.90007752441E+02  0.90000013973E+02 0.  0.
         12    1    1    2    0    0 -0.10297562334E+01 -0.35683586998E+00  0.45305028761E+00  0.11802475594E+01  0.00000000000E+00 0. -1.
         11    1    3    3    0    0 -0.73854630448E+01  0.44841229114E+01  0.20466236210E+01  0.88792505978E+01  0.51100000000E-03 0. -1.
        -11    1    3    3    0    0 -0.19005743906E+02  0.10307164020E+01 -0.34050992065E+02  0.39009623666E+02  0.51100000000E-03 0.  1.
         12    1    3    3    0    0  0.27420963184E+02 -0.51580034434E+01  0.31551318156E+02  0.42118878177E+02  0.00000000000E+00 0. -1.
</event>
<event>
 7    1  0.2284751E-015  0.9000773E+02  0.7816164E-02  0.1186339E+00
        -11   -1    0    0    0    0  0.00000000000E+00  0.00000000000E+00  0.45593999997E+02  0.45594000000E+02  0.51100000000E-03 0. -1.
         11   -1    0    0    0    0 -0.00000000000E+00 -0.00000000000E+00 -0.45593999997E+02  0.45594000000E+02  0.51100000000E-03 0.  1.
    9900012    2    1    2    0    0 -0.11072492030E+01  0.39902931410E+00 -0.88380517465E-01  0.90007730409E+02  0.89999991651E+02 0.  0.
         12    1    1    2    0    0  0.11072492030E+01 -0.39902931410E+00  0.88380517465E-01  0.11802695907E+01  0.00000000000E+00 0. -1.
         11    1    3    3    0    0 -0.62703674649E+01  0.43127914879E+01  0.10313581583E+02  0.12817474162E+02  0.51100000000E-03 0. -1.
        -11    1    3    3    0    0  0.69358005753E+01 -0.21759619008E+02 -0.37965951310E+02  0.44305753668E+02  0.51100000000E-03 0.  1.
         12    1    3    3    0    0 -0.17726823134E+01  0.17845856834E+02  0.27563989210E+02  0.32884502579E+02  0.00000000000E+00 0. -1.
</event>
<event>
 7    1  0.2284751E-015  0.9000774E+02  0.7816164E-02  0.1186339E+00
        -11   -1    0    0    0    0  0.00000000000E+00  0.00000000000E+00  0.45593999997E+02  0.45594000000E+02  0.51100000000E-03 0.  1.
         11   -1    0    0    0    0 -0.00000000000E+00 -0.00000000000E+00 -0.45593999997E+02  0.45594000000E+02  0.51100000000E-03 0. -1.
    9900012    2    1    2    0    0 -0.30814771560E-01 -0.20819902906E-01  0.11796750024E+01  0.90007738957E+02  0.90000000311E+02 0.  0.
         12    1    1    2    0    0  0.30814771560E-01  0.20819902906E-01 -0.11796750024E+01  0.11802610431E+01  0.00000000000E+00 0. -1.
         11    1    3    3    0    0  0.25517228826E+01  0.83897584051E+01  0.30550156084E+01  0.92861432465E+01  0.51100000000E-03 0. -1.
        -11    1    3    3    0    0 -0.39867252070E+02 -0.87029119189E+01  0.91905753761E+01  0.41828281574E+02  0.51100000000E-03 0.  1.
         12    1    3    3    0    0  0.37284714415E+02  0.29233361090E+00 -0.11065915982E+02  0.38893314136E+02  0.00000000000E+00 0. -1.
</event>
<event>
 7    1  0.2284751E-015  0.9000781E+02  0.7816164E-02  0.1186339E+00
        -11   -1    0    0    0    0  0.00000000000E+00  0.00000000000E+00  0.45593999997E+02  0.45594000000E+02  0.51100000000E-03 0.  1.
         11   -1    0    0    0    0 -0.00000000000E+00 -0.00000000000E+00 -0.45593999997E+02  0.45594000000E+02  0.51100000000E-03 0. -1.
    9900012    2    1    2    0    0  0.30572401829E+00 -0.89358961668E+00  0.70772606723E+00  0.90007811132E+02  0.90000073439E+02 0.  0.
         12    1    1    2    0    0 -0.30572401829E+00  0.89358961668E+00 -0.70772606723E+00  0.11801888682E+01  0.00000000000E+00 0. -1.
         11    1    3    3    0    0  0.82119604431E+00 -0.12187770909E+01  0.10157552527E+02  0.10263315942E+02  0.51100000000E-03 0. -1.
        -11    1    3    3    0    0  0.56014342651E+01  0.15002826923E+02  0.31762287972E+02  0.35571109330E+02  0.51100000000E-03 0.  1.
         12    1    3    3    0    0 -0.61169062911E+01 -0.14677639449E+02 -0.41212114431E+02  0.44173385859E+02  0.00000000000E+00 0. -1.
</event>
<event>
 7    1  0.2284751E-015  0.9000771E+02  0.7816164E-02  0.1186339E+00
        -11   -1    0    0    0    0  0.00000000000E+00  0.00000000000E+00  0.45593999997E+02  0.45594000000E+02  0.51100000000E-03 0.  1.
         11   -1    0    0    0    0 -0.00000000000E+00 -0.00000000000E+00 -0.45593999997E+02  0.45594000000E+02  0.51100000000E-03 0. -1.
    9900012    2    1    2    0    0 -0.81006643558E+00  0.36770056363E+00 -0.77567792128E+00  0.90007708692E+02  0.89999969647E+02 0.  0.
         12    1    1    2    0    0  0.81006643558E+00 -0.36770056363E+00  0.77567792128E+00  0.11802913082E+01  0.00000000000E+00 0. -1.
         11    1    3    3    0    0  0.25641610916E+02 -0.29321442913E+02 -0.82430194356E+01  0.39814401849E+02  0.51100000000E-03 0. -1.
        -11    1    3    3    0    0  0.61209164699E+01  0.45961041310E+01 -0.21811663842E+01  0.79591003682E+01  0.51100000000E-03 0.  1.
        -12    1    3    3    0    0 -0.32572593822E+02  0.25093039346E+02  0.96485078985E+01  0.42234206475E+02  0.00000000000E+00 0.  1.
</event>
<event>
 7    1  0.2284751E-015  0.9000769E+02  0.7816164E-02  0.1186339E+00
        -11   -1    0    0    0    0  0.00000000000E+00  0.00000000000E+00  0.45593999997E+02  0.45594000000E+02  0.51100000000E-03 0. -1.
         11   -1    0    0    0    0 -0.00000000000E+00 -0.00000000000E+00 -0.45593999997E+02  0.45594000000E+02  0.51100000000E-03 0.  1.
    9900012    2    1    2    0    0 -0.22873413726E+00 -0.46196858712E+00 -0.10617884895E+01  0.90007691109E+02  0.89999951832E+02 0.  0.
         12    1    1    2    0    0  0.22873413726E+00  0.46196858712E+00  0.10617884895E+01  0.11803088907E+01  0.00000000000E+00 0. -1.
         11    1    3    3    0    0  0.95024889754E+01 -0.36299066079E+02  0.96908462148E+01  0.38753477206E+02  0.51100000000E-03 0. -1.
        -11    1    3    3    0    0  0.82532250785E+01 -0.92147629780E+00  0.17050470124E+01  0.84777372181E+01  0.51100000000E-03 0.  1.
        -12    1    3    3    0    0 -0.17984448191E+02  0.36758573790E+02 -0.12457681717E+02  0.42776476685E+02  0.00000000000E+00 0.  1.
</event>
<event>
 7    1  0.2284751E-015  0.9000772E+02  0.7816164E-02  0.1186339E+00
        -11   -1    0    0    0    0  0.00000000000E+00  0.00000000000E+00  0.45593999997E+02  0.45594000000E+02  0.51100000000E-03 0.  1.
         11   -1    0    0    0    0 -0.00000000000E+00 -0.00000000000E+00 -0.45593999997E+02  0.45594000000E+02  0.51100000000E-03 0. -1.
    9900012    2    1    2    0    0 -0.80842021877E+00 -0.84714143972E+00 -0.14787937366E+00  0.90007720297E+02  0.89999981405E+02 0.  0.
         12    1    1    2    0    0  0.80842021877E+00  0.84714143972E+00  0.14787937366E+00  0.11802797034E+01  0.00000000000E+00 0. -1.
         11    1    3    3    0    0 -0.84762808546E+01 -0.95014622879E+00  0.27216018486E+01  0.89530571240E+01  0.51100000000E-03 0. -1.
        -11    1    3    3    0    0 -0.37409914420E+01  0.33950650375E+02  0.19086780303E+02  0.39127316040E+02  0.51100000000E-03 0.  1.
         12    1    3    3    0    0  0.11408852078E+02 -0.33847645586E+02 -0.21956261525E+02  0.41927347133E+02  0.00000000000E+00 0. -1.
</event>
<event>
 7    1  0.2284751E-015  0.9000770E+02  0.7816164E-02  0.1186339E+00
        -11   -1    0    0    0    0  0.00000000000E+00  0.00000000000E+00  0.45593999997E+02  0.45594000000E+02  0.51100000000E-03 0. -1.
         11   -1    0    0    0    0 -0.00000000000E+00 -0.00000000000E+00 -0.45593999997E+02  0.45594000000E+02  0.51100000000E-03 0.  1.
    9900012    2    1    2    0    0 -0.71524779769E+00 -0.47942379445E+00  0.80727124087E+00  0.90007697732E+02  0.89999958542E+02 0.  0.
         12    1    1    2    0    0  0.71524779769E+00  0.47942379445E+00 -0.80727124087E+00  0.11803022677E+01  0.00000000000E+00 0. -1.
         11    1    3    3    0    0 -0.62562081848E+01  0.59912861571E+01  0.67673695746E+01  0.10992403827E+02  0.51100000000E-03 0. -1.
        -11    1    3    3    0    0 -0.49804726171E+01  0.18194191868E+02 -0.34831869962E+02  0.39611777169E+02  0.51100000000E-03 0.  1.
         12    1    3    3    0    0  0.10521433004E+02 -0.24664901820E+02  0.28871771628E+02  0.39403516736E+02  0.00000000000E+00 0. -1.
</event>
<event>
 7    1  0.2284751E-015  0.9000777E+02  0.7816164E-02  0.1186339E+00
        -11   -1    0    0    0    0  0.00000000000E+00  0.00000000000E+00  0.45593999997E+02  0.45594000000E+02  0.51100000000E-03 0. -1.
         11   -1    0    0    0    0 -0.00000000000E+00 -0.00000000000E+00 -0.45593999997E+02  0.45594000000E+02  0.51100000000E-03 0.  1.
    9900012    2    1    2    0    0  0.84593020413E+00  0.81877903621E+00  0.83371899498E-01  0.90007767864E+02  0.90000029600E+02 0.  0.
         12    1    1    2    0    0 -0.84593020413E+00 -0.81877903621E+00 -0.83371899498E-01  0.11802321356E+01  0.00000000000E+00 0. -1.
         11    1    3    3    0    0 -0.27423042616E+01 -0.58097851688E+01  0.44767141229E+00  0.64400501804E+01  0.51100000000E-03 0. -1.
        -11    1    3    3    0    0  0.14081226183E+02  0.13378896826E+00 -0.39815047113E+02  0.42231940604E+02  0.51100000000E-03 0.  1.
         12    1    3    3    0    0 -0.10492991717E+02  0.64947752367E+01  0.39450747600E+02  0.41335777080E+02  0.00000000000E+00 0. -1.
</event>
<event>
 7    1  0.2284751E-015  0.9000765E+02  0.7816164E-02  0.1186339E+00
        -11   -1    0    0    0    0  0.00000000000E+00  0.00000000000E+00  0.45593999997E+02  0.45594000000E+02  0.51100000000E-03 0.  1.
         11   -1    0    0    0    0 -0.00000000000E+00 -0.00000000000E+00 -0.45593999997E+02  0.45594000000E+02  0.51100000000E-03 0. -1.
    9900012    2    1    2    0    0 -0.10880156147E+01  0.22507518582E+00 -0.39847840603E+00  0.90007651807E+02  0.89999912011E+02 0.  0.
         12    1    1    2    0    0  0.10880156147E+01 -0.22507518582E+00  0.39847840603E+00  0.11803481932E+01  0.00000000000E+00 0. -1.
         11    1    3    3    0    0 -0.11755742580E+01 -0.11268001122E+02 -0.19408290768E+02  0.22472907576E+02  0.51100000000E-03 0. -1.
        -11    1    3    3    0    0  0.21924651735E+02  0.17324972515E+02 -0.10943837548E+02  0.30010208378E+02  0.51100000000E-03 0.  1.
        -12    1    3    3    0    0 -0.21837093092E+02 -0.58318962069E+01  0.29953649910E+02  0.37524535853E+02  0.00000000000E+00 0.  1.
</event>
<event>
 7    1  0.2284751E-015  0.9000760E+02  0.7816164E-02  0.1186339E+00
        -11   -1    0    0    0    0  0.00000000000E+00  0.00000000000E+00  0.45593999997E+02  0.45594000000E+02  0.51100000000E-03 0.  1.
         11   -1    0    0    0    0 -0.00000000000E+00 -0.00000000000E+00 -0.45593999997E+02  0.45594000000E+02  0.51100000000E-03 0. -1.
    9900012    2    1    2    0    0  0.51447707328E+00 -0.10429327586E+01  0.20237345059E+00  0.90007597352E+02  0.89999856837E+02 0.  0.
         12    1    1    2    0    0 -0.51447707328E+00  0.10429327586E+01 -0.20237345059E+00  0.11804026480E+01  0.00000000000E+00 0. -1.
         11    1    3    3    0    0  0.33187919593E+02 -0.12080850911E+02 -0.21357496837E+02  0.41273812969E+02  0.51100000000E-03 0. -1.
        -11    1    3    3    0    0  0.81559760773E+00 -0.28909184370E+01  0.10340553703E+02  0.10767992385E+02  0.51100000000E-03 0.  1.
        -12    1    3    3    0    0 -0.33489040127E+02  0.13928836589E+02  0.11219316585E+02  0.37965791998E+02  0.00000000000E+00 0.  1.
</event>
<event>
 7    1  0.2284751E-015  0.9000776E+02  0.7816164E-02  0.1186339E+00
        -11   -1    0    0    0    0  0.00000000000E+00  0.00000000000E+00  0.45593999997E+02  0.45594000000E+02  0.51100000000E-03 0. -1.
         11   -1    0    0    0    0 -0.00000000000E+00 -0.00000000000E+00 -0.45593999997E+02  0.45594000000E+02  0.51100000000E-03 0.  1.
    9900012    2    1    2    0    0  0.83141927228E-01  0.95833098967E+00 -0.68386188692E+00  0.90007755133E+02  0.90000016701E+02 0.  0.
         12    1    1    2    0    0 -0.83141927228E-01 -0.95833098967E+00  0.68386188692E+00  0.11802448671E+01  0.00000000000E+00 0. -1.
         11    1    3    3    0    0 -0.52887710132E+01 -0.82599853466E+01  0.76509150736E+00  0.98378769067E+01  0.51100000000E-03 0. -1.
        -11    1    3    3    0    0 -0.22233199905E+02  0.26695359095E+01 -0.31625489679E+02  0.38750654158E+02  0.51100000000E-03 0.  1.
         12    1    3    3    0    0  0.27605112845E+02  0.65487804267E+01  0.30176536285E+02  0.41419224068E+02  0.00000000000E+00 0. -1.
</event>
<event>
 7    1  0.2284751E-015  0.9000773E+02  0.7816164E-02  0.1186339E+00
        -11   -1    0    0    0    0  0.00000000000E+00  0.00000000000E+00  0.45593999997E+02  0.45594000000E+02  0.51100000000E-03 0.  1.
         11   -1    0    0    0    0 -0.00000000000E+00 -0.00000000000E+00 -0.45593999997E+02  0.45594000000E+02  0.51100000000E-03 0. -1.
    9900012    2    1    2    0    0  0.51270708041E+00 -0.79382794375E+00  0.70711391729E+00  0.90007728232E+02  0.89999989445E+02 0.  0.
         12    1    1    2    0    0 -0.51270708041E+00  0.79382794375E+00 -0.70711391729E+00  0.11802717681E+01  0.00000000000E+00 0. -1.
         11    1    3    3    0    0  0.34071503861E+01  0.27210500753E+01 -0.80850288491E+01  0.91858847705E+01  0.51100000000E-03 0. -1.
        -11    1    3    3    0    0 -0.15763586786E+02  0.35640682136E+02  0.67806403455E+01  0.39556617338E+02  0.51100000000E-03 0.  1.
         12    1    3    3    0    0  0.12869143481E+02 -0.39155560155E+02  0.20115024209E+01  0.41265226123E+02  0.00000000000E+00 0. -1.
</event>
<event>
 7    1  0.2284751E-015  0.9000766E+02  0.7816164E-02  0.1186339E+00
        -11   -1    0    0    0    0  0.00000000000E+00  0.00000000000E+00  0.45593999997E+02  0.45594000000E+02  0.51100000000E-03 0.  1.
         11   -1    0    0    0    0 -0.00000000000E+00 -0.00000000000E+00 -0.45593999997E+02  0.45594000000E+02  0.51100000000E-03 0. -1.
    9900012    2    1    2    0    0  0.11487638000E+01  0.91575304231E-01  0.25528108833E+00  0.90007655670E+02  0.89999915924E+02 0.  0.
         12    1    1    2    0    0 -0.11487638000E+01 -0.91575304231E-01 -0.25528108833E+00  0.11803443305E+01  0.00000000000E+00 0. -1.
         11    1    3    3    0    0 -0.17933966528E+02 -0.12601363517E+01 -0.36357466809E+02  0.40559591863E+02  0.51100000000E-03 0. -1.
        -11    1    3    3    0    0 -0.25961186400E+00 -0.10430516498E+02  0.94008010821E+01  0.14044149457E+02  0.51100000000E-03 0.  1.
        -12    1    3    3    0    0  0.19342342192E+02  0.11782228154E+02  0.27211946816E+02  0.35403914349E+02  0.00000000000E+00 0.  1.
</event>
<event>
 7    1  0.2284751E-015  0.9000755E+02  0.7816164E-02  0.1186339E+00
        -11   -1    0    0    0    0  0.00000000000E+00  0.00000000000E+00  0.45593999997E+02  0.45594000000E+02  0.51100000000E-03 0.  1.
         11   -1    0    0    0    0 -0.00000000000E+00 -0.00000000000E+00 -0.45593999997E+02  0.45594000000E+02  0.51100000000E-03 0. -1.
    9900012    2    1    2    0    0  0.10835392205E+01  0.13120878945E+00  0.44965731825E+00  0.90007548945E+02  0.89999807791E+02 0.  0.
         12    1    1    2    0    0 -0.10835392205E+01 -0.13120878945E+00 -0.44965731825E+00  0.11804510548E+01  0.00000000000E+00 0. -1.
         11    1    3    3    0    0 -0.11732749977E+02 -0.14203416855E+02 -0.31349223629E+02  0.36361632180E+02  0.51100000000E-03 0. -1.
        -11    1    3    3    0    0 -0.30251430208E+01 -0.15238464642E+01 -0.75979194426E+01  0.83187726535E+01  0.51100000000E-03 0.  1.
        -12    1    3    3    0    0  0.15841432219E+02  0.15858472108E+02  0.39396800390E+02  0.45327144112E+02  0.00000000000E+00 0.  1.
</event>
<event>
 7    1  0.2284751E-015  0.9000768E+02  0.7816164E-02  0.1186339E+00
        -11   -1    0    0    0    0  0.00000000000E+00  0.00000000000E+00  0.45593999997E+02  0.45594000000E+02  0.51100000000E-03 0. -1.
         11   -1    0    0    0    0 -0.00000000000E+00 -0.00000000000E+00 -0.45593999997E+02  0.45594000000E+02  0.51100000000E-03 0.  1.
    9900012    2    1    2    0    0  0.82990812498E+00 -0.30870342342E+00  0.78045590330E+00  0.90007679401E+02  0.89999939969E+02 0.  0.
         12    1    1    2    0    0 -0.82990812498E+00  0.30870342342E+00 -0.78045590330E+00  0.11803205990E+01  0.00000000000E+00 0. -1.
         11    1    3    3    0    0 -0.37100790708E+01  0.33803812433E+01 -0.78190056575E+01  0.92913138896E+01  0.51100000000E-03 0. -1.
        -11    1    3    3    0    0 -0.14256482854E+02 -0.36034882049E+02 -0.83552174725E+01  0.39643028226E+02  0.51100000000E-03 0.  1.
         12    1    3    3    0    0  0.18796470050E+02  0.32345797382E+02  0.16954679033E+02  0.41073337285E+02  0.00000000000E+00 0. -1.
</event>
<event>
 7    1  0.2284751E-015  0.9000769E+02  0.7816164E-02  0.1186339E+00
        -11   -1    0    0    0    0  0.00000000000E+00  0.00000000000E+00  0.45593999997E+02  0.45594000000E+02  0.51100000000E-03 0. -1.
         11   -1    0    0    0    0 -0.00000000000E+00 -0.00000000000E+00 -0.45593999997E+02  0.45594000000E+02  0.51100000000E-03 0.  1.
    9900012    2    1    2    0    0  0.11285532340E+01  0.32862379515E+00 -0.10726094733E+00  0.90007690332E+02  0.89999951045E+02 0.  0.
         12    1    1    2    0    0 -0.11285532340E+01 -0.32862379515E+00  0.10726094733E+00  0.11803096676E+01  0.00000000000E+00 0. -1.
         11    1    3    3    0    0  0.30858295358E+02 -0.10681496887E+02  0.13945216036E+02  0.35507714918E+02  0.51100000000E-03 0. -1.
        -11    1    3    3    0    0  0.44209705490E+01 -0.42566637046E+01  0.87518553920E+01  0.10689206685E+02  0.51100000000E-03 0.  1.
        -12    1    3    3    0    0 -0.34150712673E+02  0.15266784387E+02 -0.22804332376E+02  0.43810768730E+02  0.00000000000E+00 0.  1.
</event>
<event>
 7    1  0.2284751E-015  0.9000778E+02  0.7816164E-02  0.1186339E+00
        -11   -1    0    0    0    0  0.00000000000E+00  0.00000000000E+00  0.45593999997E+02  0.45594000000E+02  0.51100000000E-03 0. -1.
         11   -1    0    0    0    0 -0.00000000000E+00 -0.00000000000E+00 -0.45593999997E+02  0.45594000000E+02  0.51100000000E-03 0.  1.
    9900012    2    1    2    0    0  0.95171218905E+00  0.69337811022E+00  0.79942250818E-01  0.90007779657E+02  0.90000041548E+02 0.  0.
         12    1    1    2    0    0 -0.95171218905E+00 -0.69337811022E+00 -0.79942250818E-01  0.11802203430E+01  0.00000000000E+00 0. -1.
         11    1    3    3    0    0 -0.19535039512E+02 -0.30817627372E+02  0.11842161904E+02  0.38361187735E+02  0.51100000000E-03 0. -1.
        -11    1    3    3    0    0 -0.25732935675E+01  0.48839391198E-01  0.76527478817E+01  0.80739566182E+01  0.51100000000E-03 0.  1.
        -12    1    3    3    0    0  0.23060045269E+02  0.31462166091E+02 -0.19414967535E+02  0.43572635304E+02  0.00000000000E+00 0.  1.
</event>
<event>
 7    1  0.2284751E-015  0.9000773E+02  0.7816164E-02  0.1186339E+00
        -11   -1    0    0    0    0  0.00000000000E+00  0.00000000000E+00  0.45593999997E+02  0.45594000000E+02  0.51100000000E-03 0. -1.
         11   -1    0    0    0    0 -0.00000000000E+00 -0.00000000000E+00 -0.45593999997E+02  0.45594000000E+02  0.51100000000E-03 0.  1.
    9900012    2    1    2    0    0  0.82102620150E-01  0.11463819689E+01 -0.26850848724E+00  0.90007733392E+02  0.89999994673E+02 0.  0.
         12    1    1    2    0    0 -0.82102620150E-01 -0.11463819689E+01  0.26850848724E+00  0.11802666083E+01  0.00000000000E+00 0. -1.
         11    1    3    3    0    0  0.49976264632E+01  0.41293295097E+01 -0.66807386173E+01  0.93091299915E+01  0.51100000000E-03 0. -1.
        -11    1    3    3    0    0  0.22749215937E+02 -0.32064693132E+02 -0.31370129131E+01  0.39439982526E+02  0.51100000000E-03 0.  1.
         12    1    3    3    0    0 -0.27664739781E+02  0.29081745591E+02  0.95492430431E+01  0.41258620874E+02  0.00000000000E+00 0. -1.
</event>
<event>
 7    1  0.2284751E-015  0.9000775E+02  0.7816164E-02  0.1186339E+00
        -11   -1    0    0    0    0  0.00000000000E+00  0.00000000000E+00  0.45593999997E+02  0.45594000000E+02  0.51100000000E-03 0.  1.
         11   -1    0    0    0    0 -0.00000000000E+00 -0.00000000000E+00 -0.45593999997E+02  0.45594000000E+02  0.51100000000E-03 0. -1.
    9900012    2    1    2    0    0 -0.35133004498E-01 -0.52448699319E+00  0.10567291294E+01  0.90007746897E+02  0.90000008356E+02 0.  0.
         12    1    1    2    0    0  0.35133004498E-01  0.52448699319E+00 -0.10567291294E+01  0.11802531029E+01  0.00000000000E+00 0. -1.
         11    1    3    3    0    0 -0.32212201234E+02  0.19777654175E+02  0.10816876878E+02  0.39316489400E+02  0.51100000000E-03 0. -1.
        -11    1    3    3    0    0  0.37382751905E+01  0.75926537544E+01  0.28132225706E+01  0.89183694657E+01  0.51100000000E-03 0.  1.
        -12    1    3    3    0    0  0.28438793039E+02 -0.27894794923E+02 -0.12573370320E+02  0.41772888032E+02  0.00000000000E+00 0.  1.
</event>
<event>
 7    1  0.2284751E-015  0.9000776E+02  0.7816164E-02  0.1186339E+00
        -11   -1    0    0    0    0  0.00000000000E+00  0.00000000000E+00  0.45593999997E+02  0.45594000000E+02  0.51100000000E-03 0.  1.
         11   -1    0    0    0    0 -0.00000000000E+00 -0.00000000000E+00 -0.45593999997E+02  0.45594000000E+02  0.51100000000E-03 0. -1.
    9900012    2    1    2    0    0  0.94712184602E+00  0.67578477651E+00 -0.19809328767E+00  0.90007760276E+02  0.90000021912E+02 0.  0.
         12    1    1    2    0    0 -0.94712184602E+00 -0.67578477651E+00  0.19809328767E+00  0.11802397240E+01  0.00000000000E+00 0. -1.
         11    1    3    3    0    0 -0.19017363504E+02 -0.22870536558E+02  0.13866961492E+02  0.32817894179E+02  0.51100000000E-03 0. -1.
        -11    1    3    3    0    0 -0.35876019235E+00 -0.11218275144E+02  0.54085855231E+01  0.12459181502E+02  0.51100000000E-03 0.  1.
        -12    1    3    3    0    0  0.20323245542E+02  0.34764596478E+02 -0.19473640303E+02  0.44730684595E+02  0.00000000000E+00 0.  1.
</event>
<event>
 7    1  0.2284751E-015  0.9000769E+02  0.7816164E-02  0.1186339E+00
        -11   -1    0    0    0    0  0.00000000000E+00  0.00000000000E+00  0.45593999997E+02  0.45594000000E+02  0.51100000000E-03 0. -1.
         11   -1    0    0    0    0 -0.00000000000E+00 -0.00000000000E+00 -0.45593999997E+02  0.45594000000E+02  0.51100000000E-03 0.  1.
    9900012    2    1    2    0    0  0.57342976064E+00 -0.95400024715E+00 -0.39268107137E+00  0.90007687929E+02  0.89999948609E+02 0.  0.
         12    1    1    2    0    0 -0.57342976064E+00  0.95400024715E+00  0.39268107137E+00  0.11803120713E+01  0.00000000000E+00 0. -1.
         11    1    3    3    0    0 -0.13146239044E+02  0.19420666798E+02  0.27604502076E+02  0.36221463734E+02  0.51100000000E-03 0. -1.
        -11    1    3    3    0    0 -0.36719411319E+01  0.64104992857E+01  0.41489751151E+01  0.84729951927E+01  0.51100000000E-03 0.  1.
        -12    1    3    3    0    0  0.17391609937E+02 -0.26785166330E+02 -0.32146158263E+02  0.45313229002E+02  0.00000000000E+00 0.  1.
</event>
<event>
 7    1  0.2284751E-015  0.9000778E+02  0.7816164E-02  0.1186339E+00
        -11   -1    0    0    0    0  0.00000000000E+00  0.00000000000E+00  0.45593999997E+02  0.45594000000E+02  0.51100000000E-03 0. -1.
         11   -1    0    0    0    0 -0.00000000000E+00 -0.00000000000E+00 -0.45593999997E+02  0.45594000000E+02  0.51100000000E-03 0.  1.
    9900012    2    1    2    0    0  0.65117123321E+00  0.59491599276E+00 -0.78420516685E+00  0.90007776819E+02  0.90000038673E+02 0.  0.
         12    1    1    2    0    0 -0.65117123321E+00 -0.59491599276E+00  0.78420516685E+00  0.11802231811E+01  0.00000000000E+00 0. -1.
         11    1    3    3    0    0  0.54570839101E+01  0.88877486422E+01 -0.16170505215E+00  0.10430627475E+02  0.51100000000E-03 0. -1.
        -11    1    3    3    0    0  0.97068523356E+01  0.16108835236E+02  0.31511683830E+02  0.36697462759E+02  0.51100000000E-03 0.  1.
         12    1    3    3    0    0 -0.14512765012E+02 -0.24401667885E+02 -0.32134183944E+02  0.42879686585E+02  0.00000000000E+00 0. -1.
</event>
<event>
 7    1  0.2284751E-015  0.9000778E+02  0.7816164E-02  0.1186339E+00
        -11   -1    0    0    0    0  0.00000000000E+00  0.00000000000E+00  0.45593999997E+02  0.45594000000E+02  0.51100000000E-03 0. -1.
         11   -1    0    0    0    0 -0.00000000000E+00 -0.00000000000E+00 -0.45593999997E+02  0.45594000000E+02  0.51100000000E-03 0.  1.
    9900012    2    1    2    0    0 -0.10253662768E+01 -0.58440984835E+00 -0.11550528211E-02  0.90007782983E+02  0.90000044919E+02 0.  0.
         12    1    1    2    0    0  0.10253662768E+01  0.58440984835E+00  0.11550528211E-02  0.11802170167E+01  0.00000000000E+00 0. -1.
         11    1    3    3    0    0 -0.59664637374E+01 -0.49948655258E+00 -0.71976813051E+01  0.93624138328E+01  0.51100000000E-03 0. -1.
        -11    1    3    3    0    0  0.60450634003E+01  0.30330116232E+02 -0.22404556944E+02  0.38189303663E+02  0.51100000000E-03 0.  1.
         12    1    3    3    0    0 -0.11039659397E+01 -0.30415039528E+02  0.29601083197E+02  0.42456065487E+02  0.00000000000E+00 0. -1.
</event>
<event>
 7    1  0.2284751E-015  0.9000773E+02  0.7816164E-02  0.1186339E+00
        -11   -1    0    0    0    0  0.00000000000E+00  0.00000000000E+00  0.45593999997E+02  0.45594000000E+02  0.51100000000E-03 0. -1.
         11   -1    0    0    0    0 -0.00000000000E+00 -0.00000000000E+00 -0.45593999997E+02  0.45594000000E+02  0.51100000000E-03 0.  1.
    9900012    2    1    2    0    0  0.11794059019E+01  0.84580154371E-02  0.44429548189E-01  0.90007727233E+02  0.89999988433E+02 0.  0.
         12    1    1    2    0    0 -0.11794059019E+01 -0.84580154371E-02 -0.44429548189E-01  0.11802727669E+01  0.00000000000E+00 0. -1.
         11    1    3    3    0    0 -0.17320384921E+02  0.50852682986E+01 -0.19441127092E+02  0.26529476255E+02  0.51100000000E-03 0. -1.
        -11    1    3    3    0    0 -0.10531585311E+02  0.16067857840E+02 -0.51931496616E+01  0.19901234846E+02  0.51100000000E-03 0.  1.
         12    1    3    3    0    0  0.29031376134E+02 -0.21144668123E+02  0.24678706302E+02  0.43577016132E+02  0.00000000000E+00 0. -1.
</event>
<event>
 7    1  0.2284751E-015  0.9000773E+02  0.7816164E-02  0.1186339E+00
        -11   -1    0    0    0    0  0.00000000000E+00  0.00000000000E+00  0.45593999997E+02  0.45594000000E+02  0.51100000000E-03 0.  1.
         11   -1    0    0    0    0 -0.00000000000E+00 -0.00000000000E+00 -0.45593999997E+02  0.45594000000E+02  0.51100000000E-03 0. -1.
    9900012    2    1    2    0    0  0.69035746950E+00  0.10038234181E+00  0.95203503926E+00  0.90007728520E+02  0.89999989737E+02 0.  0.
         12    1    1    2    0    0 -0.69035746950E+00 -0.10038234181E+00 -0.95203503926E+00  0.11802714799E+01  0.00000000000E+00 0. -1.
         11    1    3    3    0    0 -0.41201364202E+01 -0.59880529770E+01 -0.57250963557E+01  0.92525148538E+01  0.51100000000E-03 0. -1.
        -11    1    3    3    0    0 -0.23595643508E+02  0.29845313845E+02  0.17920108890E+02  0.42055052657E+02  0.51100000000E-03 0.  1.
         12    1    3    3    0    0  0.28406137398E+02 -0.23756878526E+02 -0.11242977495E+02  0.38700161009E+02  0.00000000000E+00 0. -1.
</event>
<event>
 7    1  0.2808129E-015  0.9000778E+02  0.7816164E-02  0.1186339E+00
        -11   -1    0    0    0    0  0.00000000000E+00  0.00000000000E+00  0.45593999997E+02  0.45594000000E+02  0.51100000000E-03 0.  1.
         11   -1    0    0    0    0 -0.00000000000E+00 -0.00000000000E+00 -0.45593999997E+02  0.45594000000E+02  0.51100000000E-03 0. -1.
    9900012    2    1    2    0    0 -0.10153928523E+01 -0.34103585420E+00  0.49557625887E+00  0.90007778018E+02  0.90000039888E+02 0.  0.
         12    1    1    2    0    0  0.10153928523E+01  0.34103585420E+00 -0.49557625887E+00  0.11802219820E+01  0.00000000000E+00 0. -1.
         11    1    3    3    0    0 -0.17851738559E+01 -0.39950963396E+01 -0.37871646974E+02  0.38123605354E+02  0.51100000000E-03 0. -1.
        -11    1    3    3    0    0 -0.59665182592E+01 -0.61090848668E+01 -0.28435403628E+01  0.90003322218E+01  0.51100000000E-03 0.  1.
        -12    1    3    3    0    0  0.67362992629E+01  0.97631453522E+01  0.41210763595E+02  0.42883840442E+02  0.00000000000E+00 0.  1.
</event>
<event>
 7    1  0.2284751E-015  0.9000726E+02  0.7816164E-02  0.1186340E+00
        -11   -1    0    0    0    0  0.00000000000E+00  0.00000000000E+00  0.45593999997E+02  0.45594000000E+02  0.51100000000E-03 0.  1.
         11   -1    0    0    0    0 -0.00000000000E+00 -0.00000000000E+00 -0.45593999997E+02  0.45594000000E+02  0.51100000000E-03 0. -1.
    9900012    2    1    2    0    0 -0.88687624844E+00 -0.37445951238E+00 -0.68364464195E+00  0.90007263195E+02  0.89999518268E+02 0.  0.
         12    1    1    2    0    0  0.88687624844E+00  0.37445951238E+00  0.68364464195E+00  0.11807368051E+01  0.00000000000E+00 0. -1.
         11    1    3    3    0    0 -0.27990415849E+02 -0.17726020547E+02 -0.77372418972E+01  0.34022640936E+02  0.51100000000E-03 0. -1.
        -11    1    3    3    0    0 -0.12069333519E+02 -0.88811194786E+00  0.36465017576E+01  0.12639403853E+02  0.51100000000E-03 0.  1.
        -12    1    3    3    0    0  0.39172873120E+02  0.18239672982E+02  0.34070954977E+01  0.43345218406E+02  0.00000000000E+00 0.  1.
</event>
<event>
 7    1  0.2284751E-015  0.9000774E+02  0.7816164E-02  0.1186339E+00
        -11   -1    0    0    0    0  0.00000000000E+00  0.00000000000E+00  0.45593999997E+02  0.45594000000E+02  0.51100000000E-03 0. -1.
         11   -1    0    0    0    0 -0.00000000000E+00 -0.00000000000E+00 -0.45593999997E+02  0.45594000000E+02  0.51100000000E-03 0.  1.
    9900012    2    1    2    0    0 -0.65325707495E+00 -0.36412240543E+00  0.91305749819E+00  0.90007744126E+02  0.90000005549E+02 0.  0.
         12    1    1    2    0    0  0.65325707495E+00  0.36412240543E+00 -0.91305749819E+00  0.11802558736E+01  0.00000000000E+00 0. -1.
         11    1    3    3    0    0  0.80346678250E+01 -0.29059353531E+01  0.13797587476E+02  0.16228794402E+02  0.51100000000E-03 0. -1.
        -11    1    3    3    0    0  0.13804286885E+02 -0.19394776185E+02 -0.29764223573E+02  0.38113313748E+02  0.51100000000E-03 0.  1.
         12    1    3    3    0    0 -0.22492211785E+02  0.21936589132E+02  0.16879693596E+02  0.35665635977E+02  0.00000000000E+00 0. -1.
</event>
<event>
 7    1  0.2284751E-015  0.9000802E+02  0.7816164E-02  0.1186338E+00
        -11   -1    0    0    0    0  0.00000000000E+00  0.00000000000E+00  0.45593999997E+02  0.45594000000E+02  0.51100000000E-03 0. -1.
         11   -1    0    0    0    0 -0.00000000000E+00 -0.00000000000E+00 -0.45593999997E+02  0.45594000000E+02  0.51100000000E-03 0.  1.
    9900012    2    1    2    0    0  0.11021884752E+00 -0.11747810771E+01  0.10039307955E-01  0.90008017135E+02  0.90000282161E+02 0.  0.
         12    1    1    2    0    0 -0.11021884752E+00  0.11747810771E+01 -0.10039307955E-01  0.11799828647E+01  0.00000000000E+00 0. -1.
         11    1    3    3    0    0  0.74152529020E+01  0.12628410608E+01 -0.67967223639E+01  0.10137858664E+02  0.51100000000E-03 0. -1.
        -11    1    3    3    0    0 -0.12117361242E+02 -0.28415189621E+02 -0.24122143711E+02  0.39193510459E+02  0.51100000000E-03 0.  1.
         12    1    3    3    0    0  0.48123271873E+01  0.25977567483E+02  0.30928905383E+02  0.40676648012E+02  0.00000000000E+00 0. -1.
</event>
<event>
 7    1  0.2284751E-015  0.9000772E+02  0.7816164E-02  0.1186339E+00
        -11   -1    0    0    0    0  0.00000000000E+00  0.00000000000E+00  0.45593999997E+02  0.45594000000E+02  0.51100000000E-03 0. -1.
         11   -1    0    0    0    0 -0.00000000000E+00 -0.00000000000E+00 -0.45593999997E+02  0.45594000000E+02  0.51100000000E-03 0.  1.
    9900012    2    1    2    0    0 -0.53258751087E+00  0.49817886852E+00 -0.92803071425E+00  0.90007715014E+02  0.89999976052E+02 0.  0.
         12    1    1    2    0    0  0.53258751087E+00 -0.49817886852E+00  0.92803071425E+00  0.11802849861E+01  0.00000000000E+00 0. -1.
         11    1    3    3    0    0 -0.10897344174E+02  0.30234887623E+02 -0.17459586136E+02  0.36575096554E+02  0.51100000000E-03 0. -1.
        -11    1    3    3    0    0  0.27506011047E+01  0.35616909285E+01 -0.94828864581E+01  0.10496503444E+02  0.51100000000E-03 0.  1.
        -12    1    3    3    0    0  0.76141555586E+01 -0.33298399683E+02  0.26014441880E+02  0.42936115016E+02  0.00000000000E+00 0.  1.
</event>
<event>
 7    1  0.2284751E-015  0.9000776E+02  0.7816164E-02  0.1186339E+00
        -11   -1    0    0    0    0  0.00000000000E+00  0.00000000000E+00  0.45593999997E+02  0.45594000000E+02  0.51100000000E-03 0. -1.
         11   -1    0    0    0    0 -0.00000000000E+00 -0.00000000000E+00 -0.45593999997E+02  0.45594000000E+02  0.51100000000E-03 0.  1.
    9900012    2    1    2    0    0 -0.91171214606E+00 -0.48545289413E+00  0.57103595169E+00  0.90007760360E+02  0.90000021997E+02 0.  0.
         12    1    1    2    0    0  0.91171214606E+00  0.48545289413E+00 -0.57103595169E+00  0.11802396400E+01  0.00000000000E+00 0. -1.
         11    1    3    3    0    0 -0.34683884774E+02 -0.10953828601E+02 -0.18832728496E+02  0.40958880440E+02  0.51100000000E-03 0. -1.
        -11    1    3    3    0    0 -0.82397534919E+00  0.90137303870E+01  0.93014866000E+01  0.12978594843E+02  0.51100000000E-03 0.  1.
        -12    1    3    3    0    0  0.34596147977E+02  0.14546453197E+01  0.10102277848E+02  0.36070285077E+02  0.00000000000E+00 0.  1.
</event>
<event>
 7    1  0.2284751E-015  0.9000765E+02  0.7816164E-02  0.1186339E+00
        -11   -1    0    0    0    0  0.00000000000E+00  0.00000000000E+00  0.45593999997E+02  0.45594000000E+02  0.51100000000E-03 0.  1.
         11   -1    0    0    0    0 -0.00000000000E+00 -0.00000000000E+00 -0.45593999997E+02  0.45594000000E+02  0.51100000000E-03 0. -1.
    9900012    2    1    2    0    0 -0.11828698177E+00 -0.11201188413E+01  0.35295576593E+00  0.90007645900E+02  0.89999906026E+02 0.  0.
         12    1    1    2    0    0  0.11828698177E+00  0.11201188413E+01 -0.35295576593E+00  0.11803541000E+01  0.00000000000E+00 0. -1.
         11    1    3    3    0    0  0.18299489506E+02 -0.91203200193E+01 -0.33287362706E+02  0.39065330788E+02  0.51100000000E-03 0. -1.
        -11    1    3    3    0    0 -0.15597944983E+01  0.66297309581E+01 -0.52066985863E+01  0.85729809217E+01  0.51100000000E-03 0.  1.
        -12    1    3    3    0    0 -0.16857981989E+02  0.13704702200E+01  0.38847017058E+02  0.42369334190E+02  0.00000000000E+00 0.  1.
</event>
<event>
 7    1  0.2284751E-015  0.9000771E+02  0.7816164E-02  0.1186339E+00
        -11   -1    0    0    0    0  0.00000000000E+00  0.00000000000E+00  0.45593999997E+02  0.45594000000E+02  0.51100000000E-03 0.  1.
         11   -1    0    0    0    0 -0.00000000000E+00 -0.00000000000E+00 -0.45593999997E+02  0.45594000000E+02  0.51100000000E-03 0. -1.
    9900012    2    1    2    0    0  0.26010120257E+00 -0.53952439725E+00  0.10170312384E+01  0.90007706922E+02  0.89999967853E+02 0.  0.
         12    1    1    2    0    0 -0.26010120257E+00  0.53952439725E+00 -0.10170312384E+01  0.11802930783E+01  0.00000000000E+00 0. -1.
         11    1    3    3    0    0 -0.17654557367E+01  0.53478977043E+01 -0.47467661424E+00  0.56517397289E+01  0.51100000000E-03 0. -1.
        -11    1    3    3    0    0 -0.12479028196E+02 -0.16827463503E+02  0.38104281714E+02  0.43483628618E+02  0.51100000000E-03 0.  1.
         12    1    3    3    0    0  0.14504585135E+02  0.10940041401E+02 -0.36612573861E+02  0.40872338574E+02  0.00000000000E+00 0. -1.
</event>
<event>
 7    1  0.2284751E-015  0.9000779E+02  0.7816164E-02  0.1186339E+00
        -11   -1    0    0    0    0  0.00000000000E+00  0.00000000000E+00  0.45593999997E+02  0.45594000000E+02  0.51100000000E-03 0.  1.
         11   -1    0    0    0    0 -0.00000000000E+00 -0.00000000000E+00 -0.45593999997E+02  0.45594000000E+02  0.51100000000E-03 0. -1.
    9900012    2    1    2    0    0  0.11683304470E+00 -0.11493760264E+01  0.24119888275E+00  0.90007791497E+02  0.90000053544E+02 0.  0.
         12    1    1    2    0    0 -0.11683304470E+00  0.11493760264E+01 -0.24119888275E+00  0.11802085034E+01  0.00000000000E+00 0. -1.
         11    1    3    3    0    0  0.31063353211E+01  0.86722209555E+01  0.82135905421E+01  0.12341791008E+02  0.51100000000E-03 0. -1.
        -11    1    3    3    0    0 -0.14039337371E+02  0.15756257244E+02  0.26156241841E+02  0.33608207682E+02  0.51100000000E-03 0.  1.
         12    1    3    3    0    0  0.11049835094E+02 -0.25577854225E+02 -0.34128633500E+02  0.44057792806E+02  0.00000000000E+00 0. -1.
</event>
<event>
 7    1  0.2284751E-015  0.9000771E+02  0.7816164E-02  0.1186339E+00
        -11   -1    0    0    0    0  0.00000000000E+00  0.00000000000E+00  0.45593999997E+02  0.45594000000E+02  0.51100000000E-03 0. -1.
         11   -1    0    0    0    0 -0.00000000000E+00 -0.00000000000E+00 -0.45593999997E+02  0.45594000000E+02  0.51100000000E-03 0.  1.
    9900012    2    1    2    0    0 -0.99882716263E+00  0.24275212229E+00 -0.58007718373E+00  0.90007714512E+02  0.89999975544E+02 0.  0.
         12    1    1    2    0    0  0.99882716263E+00 -0.24275212229E+00  0.58007718373E+00  0.11802854878E+01  0.00000000000E+00 0. -1.
         11    1    3    3    0    0 -0.56683105660E+01  0.25759918786E+02  0.20526160565E+02  0.33421945311E+02  0.51100000000E-03 0. -1.
        -11    1    3    3    0    0 -0.61614631477E+01  0.34940390250E+01  0.10286722959E+02  0.12489539876E+02  0.51100000000E-03 0.  1.
        -12    1    3    3    0    0  0.10830946551E+02 -0.29011205689E+02 -0.31392960708E+02  0.44096229325E+02  0.00000000000E+00 0.  1.
</event>
<event>
 7    1  0.2284751E-015  0.9000768E+02  0.7816164E-02  0.1186339E+00
        -11   -1    0    0    0    0  0.00000000000E+00  0.00000000000E+00  0.45593999997E+02  0.45594000000E+02  0.51100000000E-03 0.  1.
         11   -1    0    0    0    0 -0.00000000000E+00 -0.00000000000E+00 -0.45593999997E+02  0.45594000000E+02  0.51100000000E-03 0. -1.
    9900012    2    1    2    0    0  0.76240879599E+00 -0.76086973594E+00  0.48266597535E+00  0.90007679547E+02  0.89999940117E+02 0.  0.
         12    1    1    2    0    0 -0.76240879599E+00  0.76086973594E+00 -0.48266597535E+00  0.11803204527E+01  0.00000000000E+00 0. -1.
         11    1    3    3    0    0  0.25154240171E+02  0.56105801858E+01 -0.18234864092E+00  0.25773002539E+02  0.51100000000E-03 0. -1.
        -11    1    3    3    0    0  0.13010382039E+02  0.26410796598E+01 -0.17273203154E+02  0.21785520191E+02  0.51100000000E-03 0.  1.
        -12    1    3    3    0    0 -0.37402213414E+02 -0.90125295815E+01  0.17938217770E+02  0.42449156817E+02  0.00000000000E+00 0.  1.
</event>
<event>
 7    1  0.2284751E-015  0.9000752E+02  0.7816164E-02  0.1186339E+00
        -11   -1    0    0    0    0  0.00000000000E+00  0.00000000000E+00  0.45593999997E+02  0.45594000000E+02  0.51100000000E-03 0.  1.
         11   -1    0    0    0    0 -0.00000000000E+00 -0.00000000000E+00 -0.45593999997E+02  0.45594000000E+02  0.51100000000E-03 0. -1.
    9900012    2    1    2    0    0  0.82742902590E+00 -0.70186630370E+00  0.46504829864E+00  0.90007523392E+02  0.89999781901E+02 0.  0.
         12    1    1    2    0    0 -0.82742902590E+00  0.70186630370E+00 -0.46504829864E+00  0.11804766077E+01  0.00000000000E+00 0. -1.
         11    1    3    3    0    0 -0.34604905387E+01 -0.10113260474E+02  0.33432048512E+01  0.11199555845E+02  0.51100000000E-03 0. -1.
        -11    1    3    3    0    0  0.36731125290E+02  0.23248071914E+02 -0.23462026515E+01  0.43533355946E+02  0.51100000000E-03 0.  1.
         12    1    3    3    0    0 -0.32443205725E+02 -0.13836677744E+02 -0.53195390113E+00  0.35274611602E+02  0.00000000000E+00 0. -1.
</event>
<event>
 7    1  0.2284751E-015  0.9000737E+02  0.7816164E-02  0.1186340E+00
        -11   -1    0    0    0    0  0.00000000000E+00  0.00000000000E+00  0.45593999997E+02  0.45594000000E+02  0.51100000000E-03 0. -1.
         11   -1    0    0    0    0 -0.00000000000E+00 -0.00000000000E+00 -0.45593999997E+02  0.45594000000E+02  0.51100000000E-03 0.  1.
    9900012    2    1    2    0    0 -0.85591231306E+00  0.65586080919E+00 -0.48078192442E+00  0.90007368581E+02  0.89999625045E+02 0.  0.
         12    1    1    2    0    0  0.85591231306E+00 -0.65586080919E+00  0.48078192442E+00  0.11806314190E+01  0.00000000000E+00 0. -1.
         11    1    3    3    0    0 -0.17262356782E+01 -0.90033258086E+01 -0.49102458462E+00  0.91804613520E+01  0.51100000000E-03 0. -1.
        -11    1    3    3    0    0 -0.36491200427E+02  0.16180680094E+02  0.10879476524E+02  0.41373725076E+02  0.51100000000E-03 0.  1.
         12    1    3    3    0    0  0.37361523792E+02 -0.65214934766E+01 -0.10869233863E+02  0.39453182153E+02  0.00000000000E+00 0. -1.
</event>
<event>
 7    1  0.2284751E-015  0.9000774E+02  0.7816164E-02  0.1186339E+00
        -11   -1    0    0    0    0  0.00000000000E+00  0.00000000000E+00  0.45593999997E+02  0.45594000000E+02  0.51100000000E-03 0. -1.
         11   -1    0    0    0    0 -0.00000000000E+00 -0.00000000000E+00 -0.45593999997E+02  0.45594000000E+02  0.51100000000E-03 0.  1.
    9900012    2    1    2    0    0  0.75724371606E+00 -0.81039532136E+00 -0.40356343322E+00  0.90007736442E+02  0.89999997763E+02 0.  0.
         12    1    1    2    0    0 -0.75724371606E+00  0.81039532136E+00  0.40356343322E+00  0.11802635583E+01  0.00000000000E+00 0. -1.
         11    1    3    3    0    0 -0.84096640176E+01  0.35665379231E+01  0.43807984807E+01  0.10130845830E+02  0.51100000000E-03 0. -1.
        -11    1    3    3    0    0 -0.14365225388E+02  0.31851331813E+02  0.57501675538E+01  0.35410894734E+02  0.51100000000E-03 0.  1.
         12    1    3    3    0    0  0.23532133121E+02 -0.36228265057E+02 -0.10534529468E+02  0.44465995878E+02  0.00000000000E+00 0. -1.
</event>
<event>
 7    1  0.2284751E-015  0.9000823E+02  0.7816164E-02  0.1186338E+00
        -11   -1    0    0    0    0  0.00000000000E+00  0.00000000000E+00  0.45593999997E+02  0.45594000000E+02  0.51100000000E-03 0.  1.
         11   -1    0    0    0    0 -0.00000000000E+00 -0.00000000000E+00 -0.45593999997E+02  0.45594000000E+02  0.51100000000E-03 0. -1.
    9900012    2    1    2    0    0  0.79814500476E+00  0.26284316969E-02  0.86880268229E+00  0.90008228642E+02  0.90000496458E+02 0.  0.
         12    1    1    2    0    0 -0.79814500476E+00 -0.26284316969E-02 -0.86880268229E+00  0.11797713584E+01  0.00000000000E+00 0. -1.
         11    1    3    3    0    0  0.58575231235E+01  0.85215424604E+01 -0.46872786384E-01  0.10340670209E+02  0.51100000000E-03 0. -1.
        -11    1    3    3    0    0  0.36448371807E+02  0.30404632070E+01  0.47020326583E+00  0.36577989492E+02  0.51100000000E-03 0.  1.
         12    1    3    3    0    0 -0.41507749926E+02 -0.11559377236E+02  0.44547220284E+00  0.43089568941E+02  0.00000000000E+00 0. -1.
</event>
<event>
 7    1  0.2284751E-015  0.9000778E+02  0.7816164E-02  0.1186339E+00
        -11   -1    0    0    0    0  0.00000000000E+00  0.00000000000E+00  0.45593999997E+02  0.45594000000E+02  0.51100000000E-03 0.  1.
         11   -1    0    0    0    0 -0.00000000000E+00 -0.00000000000E+00 -0.45593999997E+02  0.45594000000E+02  0.51100000000E-03 0. -1.
    9900012    2    1    2    0    0 -0.79663632478E+00  0.85179972390E+00  0.18089926770E+00  0.90007781059E+02  0.90000042969E+02 0.  0.
         12    1    1    2    0    0  0.79663632478E+00 -0.85179972390E+00 -0.18089926770E+00  0.11802189410E+01  0.00000000000E+00 0. -1.
         11    1    3    3    0    0 -0.25493135792E+02 -0.13839518829E+02 -0.34728005928E+01  0.29214595635E+02  0.51100000000E-03 0. -1.
        -11    1    3    3    0    0  0.74569968996E+01 -0.20153740173E+02 -0.16702507450E+01  0.21553880939E+02  0.51100000000E-03 0.  1.
         12    1    3    3    0    0  0.17239502567E+02  0.34845058726E+02  0.53239506055E+01  0.39239304485E+02  0.00000000000E+00 0. -1.
</event>
<event>
 7    1  0.2284751E-015  0.9000762E+02  0.7816164E-02  0.1186339E+00
        -11   -1    0    0    0    0  0.00000000000E+00  0.00000000000E+00  0.45593999997E+02  0.45594000000E+02  0.51100000000E-03 0. -1.
         11   -1    0    0    0    0 -0.00000000000E+00 -0.00000000000E+00 -0.45593999997E+02  0.45594000000E+02  0.51100000000E-03 0.  1.
    9900012    2    1    2    0    0  0.68743506310E+00 -0.50700798105E+00 -0.81466224215E+00  0.90007619287E+02  0.89999879062E+02 0.  0.
         12    1    1    2    0    0 -0.68743506310E+00  0.50700798105E+00  0.81466224215E+00  0.11803807130E+01  0.00000000000E+00 0. -1.
         11    1    3    3    0    0 -0.42088792468E+01  0.63987921205E+01 -0.67484254143E+01  0.10207862212E+02  0.51100000000E-03 0. -1.
        -11    1    3    3    0    0 -0.43058736256E+01  0.35703351258E+02  0.36832353046E+01  0.36150187569E+02  0.51100000000E-03 0.  1.
         12    1    3    3    0    0  0.92021879356E+01 -0.42609151359E+02  0.22505278675E+01  0.43649569506E+02  0.00000000000E+00 0. -1.
</event>
<event>
 7    1  0.2284751E-015  0.9000773E+02  0.7816164E-02  0.1186339E+00
        -11   -1    0    0    0    0  0.00000000000E+00  0.00000000000E+00  0.45593999997E+02  0.45594000000E+02  0.51100000000E-03 0. -1.
         11   -1    0    0    0    0 -0.00000000000E+00 -0.00000000000E+00 -0.45593999997E+02  0.45594000000E+02  0.51100000000E-03 0.  1.
    9900012    2    1    2    0    0 -0.69742197256E+00 -0.58198884567E+00 -0.75361369335E+00  0.90007727988E+02  0.89999989197E+02 0.  0.
         12    1    1    2    0    0  0.69742197256E+00  0.58198884567E+00  0.75361369335E+00  0.11802720123E+01  0.00000000000E+00 0. -1.
         11    1    3    3    0    0 -0.29593516102E+01  0.31421996623E+02  0.46347645397E+01  0.31899540378E+02  0.51100000000E-03 0. -1.
        -11    1    3    3    0    0 -0.38745517680E+01  0.11803239123E+02  0.36733654515E+01  0.12954621538E+02  0.51100000000E-03 0.  1.
        -12    1    3    3    0    0  0.61364814057E+01 -0.43807224591E+02 -0.90617436845E+01  0.45153566072E+02  0.00000000000E+00 0.  1.
</event>
<event>
 7    1  0.2781841E-015  0.9000771E+02  0.7816164E-02  0.1186339E+00
        -11   -1    0    0    0    0  0.00000000000E+00  0.00000000000E+00  0.45593999997E+02  0.45594000000E+02  0.51100000000E-03 0.  1.
         11   -1    0    0    0    0 -0.00000000000E+00 -0.00000000000E+00 -0.45593999997E+02  0.45594000000E+02  0.51100000000E-03 0. -1.
    9900012    2    1    2    0    0 -0.78377325447E+00 -0.20963822642E+00  0.85723225953E+00  0.90007705186E+02  0.89999966095E+02 0.  0.
         12    1    1    2    0    0  0.78377325447E+00  0.20963822642E+00 -0.85723225953E+00  0.11802948137E+01  0.00000000000E+00 0. -1.
         11    1    3    3    0    0 -0.11871075384E+02 -0.30498340537E+02 -0.20626635071E+02  0.38685000723E+02  0.51100000000E-03 0. -1.
        -11    1    3    3    0    0 -0.51735109300E+01  0.43241074006E+01 -0.68364061224E+01  0.96020606688E+01  0.51100000000E-03 0.  1.
        -12    1    3    3    0    0  0.16260813060E+02  0.25964594910E+02  0.28320273453E+02  0.41720643795E+02  0.00000000000E+00 0.  1.
</event>
<event>
 7    1  0.2284751E-015  0.9000780E+02  0.7816164E-02  0.1186339E+00
        -11   -1    0    0    0    0  0.00000000000E+00  0.00000000000E+00  0.45593999997E+02  0.45594000000E+02  0.51100000000E-03 0.  1.
         11   -1    0    0    0    0 -0.00000000000E+00 -0.00000000000E+00 -0.45593999997E+02  0.45594000000E+02  0.51100000000E-03 0. -1.
    9900012    2    1    2    0    0  0.85721707514E+00  0.22866423298E+00  0.77830711541E+00  0.90007800690E+02  0.90000062859E+02 0.  0.
         12    1    1    2    0    0 -0.85721707514E+00 -0.22866423298E+00 -0.77830711541E+00  0.11801993100E+01  0.00000000000E+00 0. -1.
         11    1    3    3    0    0  0.14878481849E+01  0.82373146374E+01 -0.66842327744E+01  0.10711956530E+02  0.51100000000E-03 0. -1.
        -11    1    3    3    0    0 -0.36779739520E+02 -0.18665915743E+02  0.45721084903E+01  0.41497829172E+02  0.51100000000E-03 0.  1.
         12    1    3    3    0    0  0.36149108410E+02  0.10657265339E+02  0.28904313995E+01  0.37798014988E+02  0.00000000000E+00 0. -1.
</event>
<event>
 7    1  0.2284751E-015  0.9000770E+02  0.7816164E-02  0.1186339E+00
        -11   -1    0    0    0    0  0.00000000000E+00  0.00000000000E+00  0.45593999997E+02  0.45594000000E+02  0.51100000000E-03 0. -1.
         11   -1    0    0    0    0 -0.00000000000E+00 -0.00000000000E+00 -0.45593999997E+02  0.45594000000E+02  0.51100000000E-03 0.  1.
    9900012    2    1    2    0    0  0.29761380700E+00  0.97919272080E+00 -0.58797914449E+00  0.90007698413E+02  0.89999959232E+02 0.  0.
         12    1    1    2    0    0 -0.29761380700E+00 -0.97919272080E+00  0.58797914449E+00  0.11803015873E+01  0.00000000000E+00 0. -1.
         11    1    3    3    0    0  0.22969265380E+01 -0.68113225115E+01 -0.44392322048E+01  0.84484773010E+01  0.51100000000E-03 0. -1.
        -11    1    3    3    0    0 -0.40832383509E+02 -0.15428297435E+01 -0.32630388541E+01  0.40991600231E+02  0.51100000000E-03 0.  1.
         12    1    3    3    0    0  0.38833070778E+02  0.93333449758E+01  0.71142919144E+01  0.40567620881E+02  0.00000000000E+00 0. -1.
</event>
<event>
 7    1  0.2284751E-015  0.9000774E+02  0.7816164E-02  0.1186339E+00
        -11   -1    0    0    0    0  0.00000000000E+00  0.00000000000E+00  0.45593999997E+02  0.45594000000E+02  0.51100000000E-03 0. -1.
         11   -1    0    0    0    0 -0.00000000000E+00 -0.00000000000E+00 -0.45593999997E+02  0.45594000000E+02  0.51100000000E-03 0.  1.
    9900012    2    1    2    0    0  0.41350444871E+00 -0.40446378810E+00 -0.10288035710E+01  0.90007739998E+02  0.90000001366E+02 0.  0.
         12    1    1    2    0    0 -0.41350444871E+00  0.40446378810E+00  0.10288035710E+01  0.11802600022E+01  0.00000000000E+00 0. -1.
         11    1    3    3    0    0  0.57446782893E+01  0.22317093763E+01 -0.17398936691E+01  0.64038336665E+01  0.51100000000E-03 0. -1.
        -11    1    3    3    0    0  0.16992649506E+02 -0.37858689080E+02 -0.37421169430E+01  0.41665740310E+02  0.51100000000E-03 0.  1.
         12    1    3    3    0    0 -0.22323823347E+02  0.35222515916E+02  0.44532070411E+01  0.41938166021E+02  0.00000000000E+00 0. -1.
</event>
<event>
 7    1  0.2284751E-015  0.9000771E+02  0.7816164E-02  0.1186339E+00
        -11   -1    0    0    0    0  0.00000000000E+00  0.00000000000E+00  0.45593999997E+02  0.45594000000E+02  0.51100000000E-03 0.  1.
         11   -1    0    0    0    0 -0.00000000000E+00 -0.00000000000E+00 -0.45593999997E+02  0.45594000000E+02  0.51100000000E-03 0. -1.
    9900012    2    1    2    0    0  0.33182270449E-01 -0.62410713977E+00  0.10012329125E+01  0.90007712692E+02  0.89999973699E+02 0.  0.
         12    1    1    2    0    0 -0.33182270449E-01  0.62410713977E+00 -0.10012329125E+01  0.11802873083E+01  0.00000000000E+00 0. -1.
         11    1    3    3    0    0 -0.12343538818E+02  0.35126910181E+02 -0.49142801729E+01  0.37555464573E+02  0.51100000000E-03 0. -1.
        -11    1    3    3    0    0 -0.81193218991E+01  0.19672343376E+01 -0.24738828461E+01  0.87128351091E+01  0.51100000000E-03 0.  1.
        -12    1    3    3    0    0  0.20496042987E+02 -0.37718251659E+02  0.83893959315E+01  0.43739413009E+02  0.00000000000E+00 0.  1.
</event>
<event>
 7    1  0.2284751E-015  0.9000775E+02  0.7816164E-02  0.1186339E+00
        -11   -1    0    0    0    0  0.00000000000E+00  0.00000000000E+00  0.45593999997E+02  0.45594000000E+02  0.51100000000E-03 0.  1.
         11   -1    0    0    0    0 -0.00000000000E+00 -0.00000000000E+00 -0.45593999997E+02  0.45594000000E+02  0.51100000000E-03 0. -1.
    9900012    2    1    2    0    0 -0.86198125046E+00  0.88125435169E-01  0.80138172766E+00  0.90007749839E+02  0.90000011337E+02 0.  0.
         12    1    1    2    0    0  0.86198125046E+00 -0.88125435169E-01 -0.80138172766E+00  0.11802501607E+01  0.00000000000E+00 0. -1.
         11    1    3    3    0    0 -0.32470137626E+02 -0.18491213168E+01  0.47041459107E+01  0.32861194077E+02  0.51100000000E-03 0. -1.
        -11    1    3    3    0    0 -0.60876780899E+01 -0.12584331362E+02  0.65233589341E+01  0.15426582006E+02  0.51100000000E-03 0.  1.
        -12    1    3    3    0    0  0.37695834466E+02  0.14521578114E+02 -0.10426123117E+02  0.41719973757E+02  0.00000000000E+00 0.  1.
</event>
<event>
 7    1  0.2284751E-015  0.9000774E+02  0.7816164E-02  0.1186339E+00
        -11   -1    0    0    0    0  0.00000000000E+00  0.00000000000E+00  0.45593999997E+02  0.45594000000E+02  0.51100000000E-03 0. -1.
         11   -1    0    0    0    0 -0.00000000000E+00 -0.00000000000E+00 -0.45593999997E+02  0.45594000000E+02  0.51100000000E-03 0.  1.
    9900012    2    1    2    0    0 -0.48758517930E+00 -0.84946939148E+00 -0.65853447891E+00  0.90007743581E+02  0.90000004997E+02 0.  0.
         12    1    1    2    0    0  0.48758517930E+00  0.84946939148E+00  0.65853447891E+00  0.11802564188E+01  0.00000000000E+00 0. -1.
         11    1    3    3    0    0 -0.42104030428E+00 -0.10938422459E+02 -0.78331917953E+01  0.13460507226E+02  0.51100000000E-03 0. -1.
        -11    1    3    3    0    0  0.65570735024E+01  0.20244279888E+02 -0.30375772995E+02  0.37087918066E+02  0.51100000000E-03 0.  1.
         12    1    3    3    0    0 -0.66236183774E+01 -0.10155326821E+02  0.37550430312E+02  0.39459318289E+02  0.00000000000E+00 0. -1.
</event>
<event>
 7    1  0.2284751E-015  0.9000778E+02  0.7816164E-02  0.1186339E+00
        -11   -1    0    0    0    0  0.00000000000E+00  0.00000000000E+00  0.45593999997E+02  0.45594000000E+02  0.51100000000E-03 0.  1.
         11   -1    0    0    0    0 -0.00000000000E+00 -0.00000000000E+00 -0.45593999997E+02  0.45594000000E+02  0.51100000000E-03 0. -1.
    9900012    2    1    2    0    0  0.46849742879E+00  0.48548079969E+00  0.96836502996E+00  0.90007782953E+02  0.90000044888E+02 0.  0.
         12    1    1    2    0    0 -0.46849742879E+00 -0.48548079969E+00 -0.96836502996E+00  0.11802170474E+01  0.00000000000E+00 0. -1.
         11    1    3    3    0    0 -0.56064333032E+01  0.94188373722E+01  0.45354010488E+01  0.11862396670E+02  0.51100000000E-03 0. -1.
        -11    1    3    3    0    0  0.40162655711E+02 -0.14256178102E+02 -0.79961163693E+01  0.43361450680E+02  0.51100000000E-03 0.  1.
         12    1    3    3    0    0 -0.34087724979E+02  0.53228215292E+01  0.44290803505E+01  0.34783935603E+02  0.00000000000E+00 0. -1.
</event>
<event>
 7    1  0.2284751E-015  0.9000776E+02  0.7816164E-02  0.1186339E+00
        -11   -1    0    0    0    0  0.00000000000E+00  0.00000000000E+00  0.45593999997E+02  0.45594000000E+02  0.51100000000E-03 0.  1.
         11   -1    0    0    0    0 -0.00000000000E+00 -0.00000000000E+00 -0.45593999997E+02  0.45594000000E+02  0.51100000000E-03 0. -1.
    9900012    2    1    2    0    0 -0.83035546509E+00  0.82600621384E+00  0.14556358326E+00  0.90007760524E+02  0.90000022163E+02 0.  0.
         12    1    1    2    0    0  0.83035546509E+00 -0.82600621384E+00 -0.14556358326E+00  0.11802394759E+01  0.00000000000E+00 0. -1.
         11    1    3    3    0    0  0.22846691010E+02 -0.23408835688E+02 -0.19090048309E+02  0.37873141183E+02  0.51100000000E-03 0. -1.
        -11    1    3    3    0    0  0.27334741326E+01  0.68438789676E+01 -0.76541920564E+01  0.10625310182E+02  0.51100000000E-03 0.  1.
        -12    1    3    3    0    0 -0.26410520608E+02  0.17390962934E+02  0.26889803949E+02  0.41509309160E+02  0.00000000000E+00 0.  1.
</event>
<event>
 7    1  0.2284751E-015  0.9000769E+02  0.7816164E-02  0.1186339E+00
        -11   -1    0    0    0    0  0.00000000000E+00  0.00000000000E+00  0.45593999997E+02  0.45594000000E+02  0.51100000000E-03 0. -1.
         11   -1    0    0    0    0 -0.00000000000E+00 -0.00000000000E+00 -0.45593999997E+02  0.45594000000E+02  0.51100000000E-03 0.  1.
    9900012    2    1    2    0    0 -0.32509786689E+00 -0.92478339670E+00 -0.65742889589E+00  0.90007692537E+02  0.89999953279E+02 0.  0.
         12    1    1    2    0    0  0.32509786689E+00  0.92478339670E+00  0.65742889589E+00  0.11803074629E+01  0.00000000000E+00 0. -1.
         11    1    3    3    0    0 -0.80547708376E+01  0.15903497453E+01  0.89977266221E+01  0.12180625197E+02  0.51100000000E-03 0. -1.
        -11    1    3    3    0    0 -0.21497578368E+02 -0.24131938827E+02 -0.22380596822E+02  0.39311416428E+02  0.51100000000E-03 0.  1.
         12    1    3    3    0    0  0.29227251338E+02  0.21616805685E+02  0.12725441304E+02  0.38515650912E+02  0.00000000000E+00 0. -1.
</event>
<event>
 7    1  0.2284751E-015  0.9000903E+02  0.7816164E-02  0.1186336E+00
        -11   -1    0    0    0    0  0.00000000000E+00  0.00000000000E+00  0.45593999997E+02  0.45594000000E+02  0.51100000000E-03 0.  1.
         11   -1    0    0    0    0 -0.00000000000E+00 -0.00000000000E+00 -0.45593999997E+02  0.45594000000E+02  0.51100000000E-03 0. -1.
    9900012    2    1    2    0    0 -0.86601196422E+00 -0.74352185335E+00 -0.29525676334E+00  0.90009026707E+02  0.90001305050E+02 0.  0.
         12    1    1    2    0    0  0.86601196422E+00  0.74352185335E+00  0.29525676334E+00  0.11789732927E+01  0.00000000000E+00 0. -1.
         11    1    3    3    0    0  0.19640471615E+02 -0.70546015004E+00 -0.32959888937E+02  0.38374471700E+02  0.51100000000E-03 0. -1.
        -11    1    3    3    0    0 -0.61832159161E+01 -0.49172021887E+01 -0.61261197426E+01  0.99970185451E+01  0.51100000000E-03 0.  1.
        -12    1    3    3    0    0 -0.14323267663E+02  0.48791404853E+01  0.38790751916E+02  0.41637536462E+02  0.00000000000E+00 0.  1.
</event>
<event>
 7    1  0.2284751E-015  0.9000774E+02  0.7816164E-02  0.1186339E+00
        -11   -1    0    0    0    0  0.00000000000E+00  0.00000000000E+00  0.45593999997E+02  0.45594000000E+02  0.51100000000E-03 0. -1.
         11   -1    0    0    0    0 -0.00000000000E+00 -0.00000000000E+00 -0.45593999997E+02  0.45594000000E+02  0.51100000000E-03 0.  1.
    9900012    2    1    2    0    0  0.88930247281E+00 -0.45217245842E+00 -0.63062631202E+00  0.90007742246E+02  0.90000003644E+02 0.  0.
         12    1    1    2    0    0 -0.88930247281E+00  0.45217245842E+00  0.63062631202E+00  0.11802577539E+01  0.00000000000E+00 0. -1.
         11    1    3    3    0    0  0.50875036890E+01  0.69999778311E+01  0.35727518371E+01  0.93619944121E+01  0.51100000000E-03 0. -1.
        -11    1    3    3    0    0  0.27553394281E+02  0.17062970176E+02 -0.19374453363E+02  0.37758494819E+02  0.51100000000E-03 0.  1.
         12    1    3    3    0    0 -0.31751595497E+02 -0.24515120465E+02  0.15171075214E+02  0.42887253015E+02  0.00000000000E+00 0. -1.
</event>
<event>
 7    1  0.2284751E-015  0.9000764E+02  0.7816164E-02  0.1186339E+00
        -11   -1    0    0    0    0  0.00000000000E+00  0.00000000000E+00  0.45593999997E+02  0.45594000000E+02  0.51100000000E-03 0. -1.
         11   -1    0    0    0    0 -0.00000000000E+00 -0.00000000000E+00 -0.45593999997E+02  0.45594000000E+02  0.51100000000E-03 0.  1.
    9900012    2    1    2    0    0  0.22350315577E+00  0.11585178487E+01  0.33605876590E-01  0.90007641317E+02  0.89999901382E+02 0.  0.
         12    1    1    2    0    0 -0.22350315577E+00 -0.11585178487E+01 -0.33605876590E-01  0.11803586834E+01  0.00000000000E+00 0. -1.
         11    1    3    3    0    0  0.89073130623E+01  0.29315965380E+01 -0.50436080220E+01  0.10647650745E+02  0.51100000000E-03 0. -1.
        -11    1    3    3    0    0 -0.18258243980E+02  0.33495710754E+02 -0.10600007446E+02  0.39594018112E+02  0.51100000000E-03 0.  1.
         12    1    3    3    0    0  0.95744340731E+01 -0.35268789443E+02  0.15677221345E+02  0.39765972460E+02  0.00000000000E+00 0. -1.
</event>
<event>
 7    1  0.2284751E-015  0.9000771E+02  0.7816164E-02  0.1186339E+00
        -11   -1    0    0    0    0  0.00000000000E+00  0.00000000000E+00  0.45593999997E+02  0.45594000000E+02  0.51100000000E-03 0.  1.
         11   -1    0    0    0    0 -0.00000000000E+00 -0.00000000000E+00 -0.45593999997E+02  0.45594000000E+02  0.51100000000E-03 0. -1.
    9900012    2    1    2    0    0  0.37697930998E+00  0.63072517826E+00  0.92366553174E+00  0.90007709500E+02  0.89999970465E+02 0.  0.
         12    1    1    2    0    0 -0.37697930998E+00 -0.63072517826E+00 -0.92366553174E+00  0.11802905003E+01  0.00000000000E+00 0. -1.
         11    1    3    3    0    0 -0.22415539038E+02  0.26525722466E+02  0.10548161627E+02  0.36295096868E+02  0.51100000000E-03 0. -1.
        -11    1    3    3    0    0  0.17195763130E+02  0.68325881501E+01 -0.88251886533E+01  0.20500304522E+02  0.51100000000E-03 0.  1.
        -12    1    3    3    0    0  0.55967552174E+01 -0.32727585438E+02 -0.79930744185E+00  0.33212308110E+02  0.00000000000E+00 0.  1.
</event>
<event>
 7    1  0.2284751E-015  0.9000772E+02  0.7816164E-02  0.1186339E+00
        -11   -1    0    0    0    0  0.00000000000E+00  0.00000000000E+00  0.45593999997E+02  0.45594000000E+02  0.51100000000E-03 0.  1.
         11   -1    0    0    0    0 -0.00000000000E+00 -0.00000000000E+00 -0.45593999997E+02  0.45594000000E+02  0.51100000000E-03 0. -1.
    9900012    2    1    2    0    0 -0.11767434042E+01  0.79942586924E-01 -0.43978994050E-01  0.90007724605E+02  0.89999985770E+02 0.  0.
         12    1    1    2    0    0  0.11767434042E+01 -0.79942586924E-01  0.43978994050E-01  0.11802753952E+01  0.00000000000E+00 0. -1.
         11    1    3    3    0    0  0.68715418040E+01  0.42134704303E+01  0.26086274692E+01  0.84720928563E+01  0.51100000000E-03 0. -1.
        -11    1    3    3    0    0  0.36612202639E+02 -0.30625647437E+01  0.58967398134E+00  0.36744801000E+02  0.51100000000E-03 0.  1.
         12    1    3    3    0    0 -0.44660487847E+02 -0.10709630996E+01 -0.32422804446E+01  0.44790830749E+02  0.00000000000E+00 0. -1.
</event>
<event>
 7    1  0.2284751E-015  0.9000768E+02  0.7816164E-02  0.1186339E+00
        -11   -1    0    0    0    0  0.00000000000E+00  0.00000000000E+00  0.45593999997E+02  0.45594000000E+02  0.51100000000E-03 0. -1.
         11   -1    0    0    0    0 -0.00000000000E+00 -0.00000000000E+00 -0.45593999997E+02  0.45594000000E+02  0.51100000000E-03 0.  1.
    9900012    2    1    2    0    0 -0.41230399969E+00  0.57017336748E+00 -0.94766112250E+00  0.90007680611E+02  0.89999941195E+02 0.  0.
         12    1    1    2    0    0  0.41230399969E+00 -0.57017336748E+00  0.94766112250E+00  0.11803193891E+01  0.00000000000E+00 0. -1.
         11    1    3    3    0    0  0.18674611713E+02 -0.18032204488E+02 -0.27302603732E+02  0.37674045338E+02  0.51100000000E-03 0. -1.
        -11    1    3    3    0    0  0.75027743406E+00 -0.79951992041E+01 -0.24484102240E+01  0.83952867389E+01  0.51100000000E-03 0.  1.
        -12    1    3    3    0    0 -0.19837193146E+02  0.26597577060E+02  0.28803352834E+02  0.43938348534E+02  0.00000000000E+00 0.  1.
</event>
<event>
 7    1  0.2284751E-015  0.9000727E+02  0.7816164E-02  0.1186340E+00
        -11   -1    0    0    0    0  0.00000000000E+00  0.00000000000E+00  0.45593999997E+02  0.45594000000E+02  0.51100000000E-03 0. -1.
         11   -1    0    0    0    0 -0.00000000000E+00 -0.00000000000E+00 -0.45593999997E+02  0.45594000000E+02  0.51100000000E-03 0.  1.
    9900012    2    1    2    0    0 -0.60715161758E+00  0.14608170615E+00  0.10020769131E+01  0.90007266715E+02  0.89999521834E+02 0.  0.
         12    1    1    2    0    0  0.60715161758E+00 -0.14608170615E+00 -0.10020769131E+01  0.11807332854E+01  0.00000000000E+00 0. -1.
         11    1    3    3    0    0 -0.11774835487E+02  0.23217293346E+02  0.28151439665E+02  0.38343096074E+02  0.51100000000E-03 0. -1.
        -11    1    3    3    0    0  0.43856318243E+01  0.66636433123E+01  0.32397141630E+01  0.86100904067E+01  0.51100000000E-03 0.  1.
        -12    1    3    3    0    0  0.67820520449E+01 -0.29734854952E+02 -0.30389076915E+02  0.43054080234E+02  0.00000000000E+00 0.  1.
</event>
<event>
 7    1  0.2284751E-015  0.9000790E+02  0.7816164E-02  0.1186339E+00
        -11   -1    0    0    0    0  0.00000000000E+00  0.00000000000E+00  0.45593999997E+02  0.45594000000E+02  0.51100000000E-03 0. -1.
         11   -1    0    0    0    0 -0.00000000000E+00 -0.00000000000E+00 -0.45593999997E+02  0.45594000000E+02  0.51100000000E-03 0.  1.
    9900012    2    1    2    0    0  0.23287797507E+00 -0.11054716367E+00 -0.11516047434E+01  0.90007895635E+02  0.90000159057E+02 0.  0.
         12    1    1    2    0    0 -0.23287797507E+00  0.11054716367E+00  0.11516047434E+01  0.11801043648E+01  0.00000000000E+00 0. -1.
         11    1    3    3    0    0 -0.10643371467E+02  0.38119061158E+02 -0.67044840037E+01  0.40140930305E+02  0.51100000000E-03 0. -1.
        -11    1    3    3    0    0  0.69981416297E+01  0.29430834587E+01 -0.19469109218E+01  0.78374861348E+01  0.51100000000E-03 0.  1.
        -12    1    3    3    0    0  0.38781078119E+01 -0.41172691780E+02  0.74997901821E+01  0.42029479195E+02  0.00000000000E+00 0.  1.
</event>
<event>
 7    1  0.2284751E-015  0.9000768E+02  0.7816164E-02  0.1186339E+00
        -11   -1    0    0    0    0  0.00000000000E+00  0.00000000000E+00  0.45593999997E+02  0.45594000000E+02  0.51100000000E-03 0.  1.
         11   -1    0    0    0    0 -0.00000000000E+00 -0.00000000000E+00 -0.45593999997E+02  0.45594000000E+02  0.51100000000E-03 0. -1.
    9900012    2    1    2    0    0  0.34859318421E+00  0.20202694796E+00  0.11094280107E+01  0.90007676906E+02  0.89999937441E+02 0.  0.
         12    1    1    2    0    0 -0.34859318421E+00 -0.20202694796E+00 -0.11094280107E+01  0.11803230942E+01  0.00000000000E+00 0. -1.
         11    1    3    3    0    0  0.19924815428E+01  0.82735485878E+01 -0.41948934062E+01  0.94878195537E+01  0.51100000000E-03 0. -1.
        -11    1    3    3    0    0 -0.30296856362E+02  0.18280443965E+02 -0.12745959452E+02  0.37610286088E+02  0.51100000000E-03 0.  1.
         12    1    3    3    0    0  0.28652968004E+02 -0.26351965604E+02  0.18050280869E+02  0.42909571264E+02  0.00000000000E+00 0. -1.
</event>
<event>
 7    1  0.2284751E-015  0.9000775E+02  0.7816164E-02  0.1186339E+00
        -11   -1    0    0    0    0  0.00000000000E+00  0.00000000000E+00  0.45593999997E+02  0.45594000000E+02  0.51100000000E-03 0.  1.
         11   -1    0    0    0    0 -0.00000000000E+00 -0.00000000000E+00 -0.45593999997E+02  0.45594000000E+02  0.51100000000E-03 0. -1.
    9900012    2    1    2    0    0  0.89367169068E+00  0.32489652532E+00  0.69912320262E+00  0.90007754222E+02  0.90000015778E+02 0.  0.
         12    1    1    2    0    0 -0.89367169068E+00 -0.32489652532E+00 -0.69912320262E+00  0.11802457775E+01  0.00000000000E+00 0. -1.
         11    1    3    3    0    0 -0.35103134717E+02  0.10447595235E+02 -0.11758595529E+01  0.36643757437E+02  0.51100000000E-03 0. -1.
        -11    1    3    3    0    0 -0.59646284720E+01  0.40201965162E+01  0.53242836147E+01  0.89491211362E+01  0.51100000000E-03 0.  1.
        -12    1    3    3    0    0  0.41961434880E+02 -0.14142895226E+02 -0.34493008592E+01  0.44414875649E+02  0.00000000000E+00 0.  1.
</event>
<event>
 7    1  0.2284751E-015  0.9000771E+02  0.7816164E-02  0.1186339E+00
        -11   -1    0    0    0    0  0.00000000000E+00  0.00000000000E+00  0.45593999997E+02  0.45594000000E+02  0.51100000000E-03 0. -1.
         11   -1    0    0    0    0 -0.00000000000E+00 -0.00000000000E+00 -0.45593999997E+02  0.45594000000E+02  0.51100000000E-03 0.  1.
    9900012    2    1    2    0    0  0.41429379674E+00  0.57242734053E+00 -0.94539045789E+00  0.90007713794E+02  0.89999974816E+02 0.  0.
         12    1    1    2    0    0 -0.41429379674E+00 -0.57242734053E+00  0.94539045789E+00  0.11802862060E+01  0.00000000000E+00 0. -1.
         11    1    3    3    0    0  0.20808310941E+01 -0.75096978695E+01  0.39778658569E+01  0.87492192320E+01  0.51100000000E-03 0. -1.
        -11    1    3    3    0    0  0.26096488472E+02 -0.19741415555E+01  0.27117361491E+02  0.37686539241E+02  0.51100000000E-03 0.  1.
         12    1    3    3    0    0 -0.27763025770E+02  0.10056266766E+02 -0.32040617806E+02  0.43571955321E+02  0.00000000000E+00 0. -1.
</event>
<event>
 7    1  0.2284751E-015  0.9000774E+02  0.7816164E-02  0.1186339E+00
        -11   -1    0    0    0    0  0.00000000000E+00  0.00000000000E+00  0.45593999997E+02  0.45594000000E+02  0.51100000000E-03 0.  1.
         11   -1    0    0    0    0 -0.00000000000E+00 -0.00000000000E+00 -0.45593999997E+02  0.45594000000E+02  0.51100000000E-03 0. -1.
    9900012    2    1    2    0    0  0.49573208314E+00  0.63217704072E+00 -0.86464902892E+00  0.90007738990E+02  0.90000000344E+02 0.  0.
         12    1    1    2    0    0 -0.49573208314E+00 -0.63217704072E+00  0.86464902892E+00  0.11802610102E+01  0.00000000000E+00 0. -1.
         11    1    3    3    0    0  0.12056099822E+02  0.31737358346E+01  0.22409814971E+01  0.12666654665E+02  0.51100000000E-03 0. -1.
        -11    1    3    3    0    0 -0.20979869544E+02 -0.26741887383E+02  0.22587283128E+02  0.40810155920E+02  0.51100000000E-03 0.  1.
         12    1    3    3    0    0  0.94195018053E+01  0.24200328589E+02 -0.25692913654E+02  0.36530928405E+02  0.00000000000E+00 0. -1.
</event>
<event>
 7    1  0.2284751E-015  0.9000772E+02  0.7816164E-02  0.1186339E+00
        -11   -1    0    0    0    0  0.00000000000E+00  0.00000000000E+00  0.45593999997E+02  0.45594000000E+02  0.51100000000E-03 0.  1.
         11   -1    0    0    0    0 -0.00000000000E+00 -0.00000000000E+00 -0.45593999997E+02  0.45594000000E+02  0.51100000000E-03 0. -1.
    9900012    2    1    2    0    0  0.11261415446E+01  0.34894175525E+00  0.55831226557E-01  0.90007715181E+02  0.89999976222E+02 0.  0.
         12    1    1    2    0    0 -0.11261415446E+01 -0.34894175525E+00 -0.55831226557E-01  0.11802848186E+01  0.00000000000E+00 0. -1.
         11    1    3    3    0    0 -0.44280162567E+01  0.28341138261E+01 -0.38491638333E+02  0.38849012227E+02  0.51100000000E-03 0. -1.
        -11    1    3    3    0    0  0.97662636537E+01 -0.71849723365E+01  0.26878114063E-01  0.12124539411E+02  0.51100000000E-03 0.  1.
        -12    1    3    3    0    0 -0.42121058524E+01  0.46998002656E+01  0.38520591446E+02  0.39034163544E+02  0.00000000000E+00 0.  1.
</event>
<event>
 7    1  0.2284751E-015  0.9000772E+02  0.7816164E-02  0.1186339E+00
        -11   -1    0    0    0    0  0.00000000000E+00  0.00000000000E+00  0.45593999997E+02  0.45594000000E+02  0.51100000000E-03 0. -1.
         11   -1    0    0    0    0 -0.00000000000E+00 -0.00000000000E+00 -0.45593999997E+02  0.45594000000E+02  0.51100000000E-03 0.  1.
    9900012    2    1    2    0    0 -0.59405177013E+00  0.10177484804E+01 -0.65875850878E-01  0.90007724989E+02  0.89999986158E+02 0.  0.
         12    1    1    2    0    0  0.59405177013E+00 -0.10177484804E+01  0.65875850878E-01  0.11802750115E+01  0.00000000000E+00 0. -1.
         11    1    3    3    0    0 -0.61789416456E+01 -0.39182745706E+02  0.45507770943E+01  0.39927139308E+02  0.51100000000E-03 0. -1.
        -11    1    3    3    0    0 -0.22435888665E+00  0.17730649199E+01  0.87894376524E+01  0.89692982238E+01  0.51100000000E-03 0.  1.
        -12    1    3    3    0    0  0.58092487621E+01  0.38427429267E+02 -0.13406090598E+02  0.41111287456E+02  0.00000000000E+00 0.  1.
</event>
<event>
 7    1  0.2284751E-015  0.9000774E+02  0.7816164E-02  0.1186339E+00
        -11   -1    0    0    0    0  0.00000000000E+00  0.00000000000E+00  0.45593999997E+02  0.45594000000E+02  0.51100000000E-03 0.  1.
         11   -1    0    0    0    0 -0.00000000000E+00 -0.00000000000E+00 -0.45593999997E+02  0.45594000000E+02  0.51100000000E-03 0. -1.
    9900012    2    1    2    0    0  0.80500810735E+00  0.83678293419E+00 -0.21157212446E+00  0.90007743038E+02  0.90000004446E+02 0.  0.
         12    1    1    2    0    0 -0.80500810735E+00 -0.83678293419E+00  0.21157212446E+00  0.11802569617E+01  0.00000000000E+00 0. -1.
         11    1    3    3    0    0  0.38239181510E+02  0.15810381129E+02  0.28692573572E+01  0.41478136313E+02  0.51100000000E-03 0. -1.
        -11    1    3    3    0    0  0.42251992212E+01 -0.25183458821E+01 -0.84396425207E+00  0.49906563056E+01  0.51100000000E-03 0.  1.
        -12    1    3    3    0    0 -0.41659372624E+02 -0.12455252313E+02 -0.22368652296E+01  0.43538950419E+02  0.00000000000E+00 0.  1.
</event>
<event>
 7    1  0.2284751E-015  0.9000775E+02  0.7816164E-02  0.1186339E+00
        -11   -1    0    0    0    0  0.00000000000E+00  0.00000000000E+00  0.45593999997E+02  0.45594000000E+02  0.51100000000E-03 0.  1.
         11   -1    0    0    0    0 -0.00000000000E+00 -0.00000000000E+00 -0.45593999997E+02  0.45594000000E+02  0.51100000000E-03 0. -1.
    9900012    2    1    2    0    0 -0.68344503659E+00  0.37437317544E+00  0.88641958591E+00  0.90007749148E+02  0.90000010636E+02 0.  0.
         12    1    1    2    0    0  0.68344503659E+00 -0.37437317544E+00 -0.88641958591E+00  0.11802508525E+01  0.00000000000E+00 0. -1.
         11    1    3    3    0    0 -0.55213901912E+01  0.70311931690E+01 -0.19121521245E+01  0.91421962915E+01  0.51100000000E-03 0. -1.
        -11    1    3    3    0    0 -0.97401036285E+01 -0.10550050235E+02  0.39046266494E+02  0.41602693495E+02  0.51100000000E-03 0.  1.
         12    1    3    3    0    0  0.14578048783E+02  0.38932302415E+01 -0.36247694784E+02  0.39262859361E+02  0.00000000000E+00 0. -1.
</event>
<event>
 7    1  0.2284751E-015  0.9000783E+02  0.7816164E-02  0.1186339E+00
        -11   -1    0    0    0    0  0.00000000000E+00  0.00000000000E+00  0.45593999997E+02  0.45594000000E+02  0.51100000000E-03 0.  1.
         11   -1    0    0    0    0 -0.00000000000E+00 -0.00000000000E+00 -0.45593999997E+02  0.45594000000E+02  0.51100000000E-03 0. -1.
    9900012    2    1    2    0    0 -0.98327768007E+00 -0.51791310383E+00  0.39714644607E+00  0.90007832945E+02  0.90000095539E+02 0.  0.
         12    1    1    2    0    0  0.98327768007E+00  0.51791310383E+00 -0.39714644607E+00  0.11801670555E+01  0.00000000000E+00 0. -1.
         11    1    3    3    0    0 -0.20596592489E+01 -0.85681948696E+01  0.59826058688E+01  0.10651184572E+02  0.51100000000E-03 0. -1.
        -11    1    3    3    0    0  0.10344109566E+02 -0.32203733748E+02  0.98983929964E+01  0.35242861039E+02  0.51100000000E-03 0.  1.
         12    1    3    3    0    0 -0.92677279969E+01  0.40254015514E+02 -0.15483852419E+02  0.44113787334E+02  0.00000000000E+00 0. -1.
</event>
<event>
 7    1  0.2284751E-015  0.9000782E+02  0.7816164E-02  0.1186339E+00
        -11   -1    0    0    0    0  0.00000000000E+00  0.00000000000E+00  0.45593999997E+02  0.45594000000E+02  0.51100000000E-03 0.  1.
         11   -1    0    0    0    0 -0.00000000000E+00 -0.00000000000E+00 -0.45593999997E+02  0.45594000000E+02  0.51100000000E-03 0. -1.
    9900012    2    1    2    0    0 -0.46387782810E+00 -0.57214373167E+00 -0.92211549679E+00  0.90007818625E+02  0.90000081031E+02 0.  0.
         12    1    1    2    0    0  0.46387782810E+00  0.57214373167E+00  0.92211549679E+00  0.11801813753E+01  0.00000000000E+00 0. -1.
         11    1    3    3    0    0  0.76087213178E+01 -0.31895830372E+02 -0.21612064553E+02  0.39272356304E+02  0.51100000000E-03 0. -1.
        -11    1    3    3    0    0  0.70554597095E+01  0.71646507898E+01 -0.59802527868E+01  0.11699365637E+02  0.51100000000E-03 0.  1.
        -12    1    3    3    0    0 -0.15128058855E+02  0.24159035850E+02  0.26670201843E+02  0.39036096684E+02  0.00000000000E+00 0.  1.
</event>
<event>
 7    1  0.2284751E-015  0.9000768E+02  0.7816164E-02  0.1186339E+00
        -11   -1    0    0    0    0  0.00000000000E+00  0.00000000000E+00  0.45593999997E+02  0.45594000000E+02  0.51100000000E-03 0.  1.
         11   -1    0    0    0    0 -0.00000000000E+00 -0.00000000000E+00 -0.45593999997E+02  0.45594000000E+02  0.51100000000E-03 0. -1.
    9900012    2    1    2    0    0 -0.27885242624E+00  0.98612368176E+00  0.58563025674E+00  0.90007677422E+02  0.89999937964E+02 0.  0.
         12    1    1    2    0    0  0.27885242624E+00 -0.98612368176E+00 -0.58563025674E+00  0.11803225784E+01  0.00000000000E+00 0. -1.
         11    1    3    3    0    0 -0.29993568705E+02 -0.15820675665E+02 -0.16375371194E+02  0.37657147053E+02  0.51100000000E-03 0. -1.
        -11    1    3    3    0    0 -0.44104943253E+01 -0.65571078563E+01  0.78017097660E+00  0.79408306018E+01  0.51100000000E-03 0.  1.
        -12    1    3    3    0    0  0.34125210604E+02  0.23363907203E+02  0.16180830474E+02  0.44409699767E+02  0.00000000000E+00 0.  1.
</event>
<event>
 7    1  0.2284751E-015  0.9000787E+02  0.7816164E-02  0.1186339E+00
        -11   -1    0    0    0    0  0.00000000000E+00  0.00000000000E+00  0.45593999997E+02  0.45594000000E+02  0.51100000000E-03 0. -1.
         11   -1    0    0    0    0 -0.00000000000E+00 -0.00000000000E+00 -0.45593999997E+02  0.45594000000E+02  0.51100000000E-03 0.  1.
    9900012    2    1    2    0    0  0.10226084917E+01  0.20040026278E+00 -0.55390492942E+00  0.90007873285E+02  0.90000136412E+02 0.  0.
         12    1    1    2    0    0 -0.10226084917E+01 -0.20040026278E+00  0.55390492942E+00  0.11801267150E+01  0.00000000000E+00 0. -1.
         11    1    3    3    0    0  0.38083556424E+01 -0.97595940486E+01 -0.11572362854E+01  0.10540040075E+02  0.51100000000E-03 0. -1.
        -11    1    3    3    0    0  0.24493269359E+02 -0.23869260351E+02  0.86366334436E+01  0.35273974416E+02  0.51100000000E-03 0.  1.
         12    1    3    3    0    0 -0.27279016509E+02  0.33829254662E+02 -0.80333020877E+01  0.44193858795E+02  0.00000000000E+00 0. -1.
</event>
<event>
 7    1  0.2284751E-015  0.9000771E+02  0.7816164E-02  0.1186339E+00
        -11   -1    0    0    0    0  0.00000000000E+00  0.00000000000E+00  0.45593999997E+02  0.45594000000E+02  0.51100000000E-03 0.  1.
         11   -1    0    0    0    0 -0.00000000000E+00 -0.00000000000E+00 -0.45593999997E+02  0.45594000000E+02  0.51100000000E-03 0. -1.
    9900012    2    1    2    0    0 -0.85375999575E+00 -0.79321377468E+00  0.18706560062E+00  0.90007708612E+02  0.89999969565E+02 0.  0.
         12    1    1    2    0    0  0.85375999575E+00  0.79321377468E+00 -0.18706560062E+00  0.11802913884E+01  0.00000000000E+00 0. -1.
         11    1    3    3    0    0  0.23335355851E+02 -0.20840546470E+02  0.37128183631E+01  0.31506383961E+02  0.51100000000E-03 0. -1.
        -11    1    3    3    0    0  0.11800427093E+02 -0.44505484256E+01  0.59516248778E+01  0.13945583524E+02  0.51100000000E-03 0.  1.
        -12    1    3    3    0    0 -0.35989542940E+02  0.24497881121E+02 -0.94773776403E+01  0.44555741127E+02  0.00000000000E+00 0.  1.
</event>
<event>
 7    1  0.2284751E-015  0.9000753E+02  0.7816164E-02  0.1186339E+00
        -11   -1    0    0    0    0  0.00000000000E+00  0.00000000000E+00  0.45593999997E+02  0.45594000000E+02  0.51100000000E-03 0. -1.
         11   -1    0    0    0    0 -0.00000000000E+00 -0.00000000000E+00 -0.45593999997E+02  0.45594000000E+02  0.51100000000E-03 0.  1.
    9900012    2    1    2    0    0  0.42311371664E+00 -0.10533579037E+01 -0.32393105569E+00  0.90007525765E+02  0.89999784305E+02 0.  0.
         12    1    1    2    0    0 -0.42311371664E+00  0.10533579037E+01  0.32393105569E+00  0.11804742350E+01  0.00000000000E+00 0. -1.
         11    1    3    3    0    0 -0.74945252741E+01 -0.56050997063E+01  0.24003136679E+01  0.96616022360E+01  0.51100000000E-03 0. -1.
        -11    1    3    3    0    0  0.32424240682E+02 -0.11522500152E+02  0.22967299072E+02  0.41371442089E+02  0.51100000000E-03 0.  1.
         12    1    3    3    0    0 -0.24506601692E+02  0.16074241955E+02 -0.25691543796E+02  0.38974481440E+02  0.00000000000E+00 0. -1.
</event>
<event>
 7    1  0.2284751E-015  0.9000779E+02  0.7816164E-02  0.1186339E+00
        -11   -1    0    0    0    0  0.00000000000E+00  0.00000000000E+00  0.45593999997E+02  0.45594000000E+02  0.51100000000E-03 0.  1.
         11   -1    0    0    0    0 -0.00000000000E+00 -0.00000000000E+00 -0.45593999997E+02  0.45594000000E+02  0.51100000000E-03 0. -1.
    9900012    2    1    2    0    0  0.26353489695E+00  0.11197529769E+01 -0.26383112622E+00  0.90007786361E+02  0.90000048341E+02 0.  0.
         12    1    1    2    0    0 -0.26353489695E+00 -0.11197529769E+01  0.26383112622E+00  0.11802136393E+01  0.00000000000E+00 0. -1.
         11    1    3    3    0    0 -0.53656371611E+00 -0.50495592946E+01  0.93274284802E+01  0.10620116384E+02  0.51100000000E-03 0. -1.
        -11    1    3    3    0    0  0.30451079272E+02  0.82189407231E+00 -0.30191543090E+02  0.42889078017E+02  0.51100000000E-03 0.  1.
         12    1    3    3    0    0 -0.29650980659E+02  0.53474181992E+01  0.20600283484E+02  0.36498591960E+02  0.00000000000E+00 0. -1.
</event>
<event>
 7    1  0.2284751E-015  0.9000773E+02  0.7816164E-02  0.1186339E+00
        -11   -1    0    0    0    0  0.00000000000E+00  0.00000000000E+00  0.45593999997E+02  0.45594000000E+02  0.51100000000E-03 0.  1.
         11   -1    0    0    0    0 -0.00000000000E+00 -0.00000000000E+00 -0.45593999997E+02  0.45594000000E+02  0.51100000000E-03 0. -1.
    9900012    2    1    2    0    0  0.11191913794E+01 -0.37470457965E+00  0.64450917341E-02  0.90007731215E+02  0.89999992467E+02 0.  0.
         12    1    1    2    0    0 -0.11191913794E+01  0.37470457965E+00 -0.64450917341E-02  0.11802687851E+01  0.00000000000E+00 0. -1.
         11    1    3    3    0    0 -0.20699743030E+02  0.25898083222E+02 -0.38743249850E+01  0.33379641556E+02  0.51100000000E-03 0. -1.
        -11    1    3    3    0    0 -0.36211556928E+01  0.93844676576E+01 -0.60174488400E+01  0.11721377588E+02  0.51100000000E-03 0.  1.
        -12    1    3    3    0    0  0.25440090102E+02 -0.35657255459E+02  0.98982189167E+01  0.44906712071E+02  0.00000000000E+00 0.  1.
</event>
<event>
 7    1  0.2284751E-015  0.9000780E+02  0.7816164E-02  0.1186339E+00
        -11   -1    0    0    0    0  0.00000000000E+00  0.00000000000E+00  0.45593999997E+02  0.45594000000E+02  0.51100000000E-03 0.  1.
         11   -1    0    0    0    0 -0.00000000000E+00 -0.00000000000E+00 -0.45593999997E+02  0.45594000000E+02  0.51100000000E-03 0. -1.
    9900012    2    1    2    0    0 -0.10462845338E+01  0.32672836873E+00  0.43750427089E+00  0.90007799704E+02  0.90000061860E+02 0.  0.
         12    1    1    2    0    0  0.10462845338E+01 -0.32672836873E+00 -0.43750427089E+00  0.11802002964E+01  0.00000000000E+00 0. -1.
         11    1    3    3    0    0  0.13166814295E+02  0.37698406657E+01  0.11230261873E+02  0.17711450514E+02  0.51100000000E-03 0. -1.
        -11    1    3    3    0    0  0.11128147819E+02 -0.28671080741E+02  0.81698028033E+01  0.31821568516E+02  0.51100000000E-03 0.  1.
         12    1    3    3    0    0 -0.25341246648E+02  0.25227968444E+02 -0.18962560405E+02  0.40474780674E+02  0.00000000000E+00 0. -1.
</event>
<event>
 7    1  0.2284751E-015  0.9000775E+02  0.7816164E-02  0.1186339E+00
        -11   -1    0    0    0    0  0.00000000000E+00  0.00000000000E+00  0.45593999997E+02  0.45594000000E+02  0.51100000000E-03 0.  1.
         11   -1    0    0    0    0 -0.00000000000E+00 -0.00000000000E+00 -0.45593999997E+02  0.45594000000E+02  0.51100000000E-03 0. -1.
    9900012    2    1    2    0    0  0.10152094873E+01  0.45837979520E+00  0.39017295436E+00  0.90007746945E+02  0.90000008405E+02 0.  0.
         12    1    1    2    0    0 -0.10152094873E+01 -0.45837979520E+00 -0.39017295436E+00  0.11802530551E+01  0.00000000000E+00 0. -1.
         11    1    3    3    0    0 -0.79021322367E+01  0.32357184184E+01  0.34942009503E+01  0.92262130970E+01  0.51100000000E-03 0. -1.
        -11    1    3    3    0    0 -0.27651313797E+02 -0.25440621224E+02  0.80058967518E+00  0.37582726179E+02  0.51100000000E-03 0.  1.
         12    1    3    3    0    0  0.36568655521E+02  0.22663282601E+02 -0.39046176711E+01  0.43198807669E+02  0.00000000000E+00 0. -1.
</event>
<event>
 7    1  0.2284751E-015  0.9000812E+02  0.7816164E-02  0.1186338E+00
        -11   -1    0    0    0    0  0.00000000000E+00  0.00000000000E+00  0.45593999997E+02  0.45594000000E+02  0.51100000000E-03 0.  1.
         11   -1    0    0    0    0 -0.00000000000E+00 -0.00000000000E+00 -0.45593999997E+02  0.45594000000E+02  0.51100000000E-03 0. -1.
    9900012    2    1    2    0    0 -0.88071216965E+00  0.48275833599E+00  0.61919768234E+00  0.90008120639E+02  0.90000387031E+02 0.  0.
         12    1    1    2    0    0  0.88071216965E+00 -0.48275833599E+00 -0.61919768234E+00  0.11798793610E+01  0.00000000000E+00 0. -1.
         11    1    3    3    0    0  0.25251248720E+02  0.12532493098E+02 -0.18925693733E+02  0.33953951592E+02  0.51100000000E-03 0. -1.
        -11    1    3    3    0    0  0.60398116429E+01  0.10862324624E+02  0.11428521231E+01  0.12481006856E+02  0.51100000000E-03 0.  1.
        -12    1    3    3    0    0 -0.32171772533E+02 -0.22912059385E+02  0.18402039292E+02  0.43573162191E+02  0.00000000000E+00 0.  1.
</event>
<event>
 7    1  0.2284751E-015  0.9000780E+02  0.7816164E-02  0.1186339E+00
        -11   -1    0    0    0    0  0.00000000000E+00  0.00000000000E+00  0.45593999997E+02  0.45594000000E+02  0.51100000000E-03 0. -1.
         11   -1    0    0    0    0 -0.00000000000E+00 -0.00000000000E+00 -0.45593999997E+02  0.45594000000E+02  0.51100000000E-03 0.  1.
    9900012    2    1    2    0    0  0.53346335450E+00 -0.19755716700E+00 -0.10340448217E+01  0.90007804814E+02  0.90000067037E+02 0.  0.
         12    1    1    2    0    0 -0.53346335450E+00  0.19755716700E+00  0.10340448217E+01  0.11801951864E+01  0.00000000000E+00 0. -1.
         11    1    3    3    0    0  0.39349468520E+02  0.49289013158E+01  0.56230449664E+01  0.40053631246E+02  0.51100000000E-03 0. -1.
        -11    1    3    3    0    0 -0.37354407317E+01 -0.12824083903E+02  0.35097448691E+00  0.13361655166E+02  0.51100000000E-03 0.  1.
        -12    1    3    3    0    0 -0.35080564434E+02  0.76976254202E+01 -0.70080642750E+01  0.36592518402E+02  0.00000000000E+00 0.  1.
</event>
<event>
 7    1  0.2284751E-015  0.9000761E+02  0.7816164E-02  0.1186339E+00
        -11   -1    0    0    0    0  0.00000000000E+00  0.00000000000E+00  0.45593999997E+02  0.45594000000E+02  0.51100000000E-03 0.  1.
         11   -1    0    0    0    0 -0.00000000000E+00 -0.00000000000E+00 -0.45593999997E+02  0.45594000000E+02  0.51100000000E-03 0. -1.
    9900012    2    1    2    0    0  0.10884946937E+01  0.18724410321E+00 -0.41646389891E+00  0.90007608865E+02  0.89999868502E+02 0.  0.
         12    1    1    2    0    0 -0.10884946937E+01 -0.18724410321E+00  0.41646389891E+00  0.11803911350E+01  0.00000000000E+00 0. -1.
         11    1    3    3    0    0 -0.55311201130E+01  0.70497131910E+01 -0.43345236620E+01  0.99538857446E+01  0.51100000000E-03 0. -1.
        -11    1    3    3    0    0  0.13198148009E+02  0.21675568954E+02 -0.27283101829E+02  0.37261092925E+02  0.51100000000E-03 0.  1.
         12    1    3    3    0    0 -0.65785332026E+01 -0.28538038041E+02  0.31201161592E+02  0.42792630195E+02  0.00000000000E+00 0. -1.
</event>
<event>
 7    1  0.2284751E-015  0.9000772E+02  0.7816164E-02  0.1186339E+00
        -11   -1    0    0    0    0  0.00000000000E+00  0.00000000000E+00  0.45593999997E+02  0.45594000000E+02  0.51100000000E-03 0.  1.
         11   -1    0    0    0    0 -0.00000000000E+00 -0.00000000000E+00 -0.45593999997E+02  0.45594000000E+02  0.51100000000E-03 0. -1.
    9900012    2    1    2    0    0  0.99039588006E+00  0.39242877955E+00  0.50811263413E+00  0.90007719188E+02  0.89999980281E+02 0.  0.
         12    1    1    2    0    0 -0.99039588006E+00 -0.39242877955E+00 -0.50811263413E+00  0.11802808120E+01  0.00000000000E+00 0. -1.
         11    1    3    3    0    0 -0.45531958705E+01 -0.50987481956E+01  0.10269091416E+02  0.12336250021E+02  0.51100000000E-03 0. -1.
        -11    1    3    3    0    0 -0.23671675428E+02  0.21019169816E+02  0.16251540586E+02  0.35584635575E+02  0.51100000000E-03 0.  1.
         12    1    3    3    0    0  0.29215267179E+02 -0.15527992840E+02 -0.26012519368E+02  0.42086833593E+02  0.00000000000E+00 0. -1.
</event>
<event>
 7    1  0.2284751E-015  0.9000812E+02  0.7816164E-02  0.1186338E+00
        -11   -1    0    0    0    0  0.00000000000E+00  0.00000000000E+00  0.45593999997E+02  0.45594000000E+02  0.51100000000E-03 0. -1.
         11   -1    0    0    0    0 -0.00000000000E+00 -0.00000000000E+00 -0.45593999997E+02  0.45594000000E+02  0.51100000000E-03 0.  1.
    9900012    2    1    2    0    0 -0.47184532091E+00  0.10316287856E+01  0.32437344419E+00  0.90008121155E+02  0.90000387553E+02 0.  0.
         12    1    1    2    0    0  0.47184532091E+00 -0.10316287856E+01 -0.32437344419E+00  0.11798788452E+01  0.00000000000E+00 0. -1.
         11    1    3    3    0    0  0.31782707899E+02  0.76570971397E+01  0.89074711767E+01  0.33883841297E+02  0.51100000000E-03 0. -1.
        -11    1    3    3    0    0  0.84512494378E+01 -0.95096584457E+01  0.41400661145E+01  0.13378989816E+02  0.51100000000E-03 0.  1.
        -12    1    3    3    0    0 -0.40705802658E+02  0.28841900915E+01 -0.12723163847E+02  0.42745290042E+02  0.00000000000E+00 0.  1.
</event>
<event>
 7    1  0.2284751E-015  0.9000770E+02  0.7816164E-02  0.1186339E+00
        -11   -1    0    0    0    0  0.00000000000E+00  0.00000000000E+00  0.45593999997E+02  0.45594000000E+02  0.51100000000E-03 0.  1.
         11   -1    0    0    0    0 -0.00000000000E+00 -0.00000000000E+00 -0.45593999997E+02  0.45594000000E+02  0.51100000000E-03 0. -1.
    9900012    2    1    2    0    0  0.70760198824E+00 -0.42446847962E+00  0.84394282211E+00  0.90007697687E+02  0.89999958496E+02 0.  0.
         12    1    1    2    0    0 -0.70760198824E+00  0.42446847962E+00 -0.84394282211E+00  0.11803023134E+01  0.00000000000E+00 0. -1.
         11    1    3    3    0    0 -0.38952042495E+01  0.45660825179E+01  0.70272609551E+01  0.92414350886E+01  0.51100000000E-03 0. -1.
        -11    1    3    3    0    0  0.22644305764E+02 -0.10442118585E+02  0.30577167666E+02  0.39455869105E+02  0.51100000000E-03 0.  1.
         12    1    3    3    0    0 -0.18041499526E+02  0.54515675880E+01 -0.36760485799E+02  0.41310393493E+02  0.00000000000E+00 0. -1.
</event>
<event>
 7    1  0.2284751E-015  0.9000782E+02  0.7816164E-02  0.1186339E+00
        -11   -1    0    0    0    0  0.00000000000E+00  0.00000000000E+00  0.45593999997E+02  0.45594000000E+02  0.51100000000E-03 0. -1.
         11   -1    0    0    0    0 -0.00000000000E+00 -0.00000000000E+00 -0.45593999997E+02  0.45594000000E+02  0.51100000000E-03 0.  1.
    9900012    2    1    2    0    0  0.68529449370E+00 -0.84298909726E+00 -0.46103787260E+00  0.90007824131E+02  0.90000086610E+02 0.  0.
         12    1    1    2    0    0 -0.68529449370E+00  0.84298909726E+00  0.46103787260E+00  0.11801758687E+01  0.00000000000E+00 0. -1.
         11    1    3    3    0    0  0.30410127045E+02 -0.16304530732E+02  0.14974229099E+02  0.37614373405E+02  0.51100000000E-03 0. -1.
        -11    1    3    3    0    0  0.79819930384E+01 -0.23964027061E+01 -0.21375593060E+01  0.86037270321E+01  0.51100000000E-03 0.  1.
        -12    1    3    3    0    0 -0.37706825589E+02  0.17857944341E+02 -0.13297707665E+02  0.43789723695E+02  0.00000000000E+00 0.  1.
</event>
<event>
 7    1  0.2284751E-015  0.9000801E+02  0.7816164E-02  0.1186338E+00
        -11   -1    0    0    0    0  0.00000000000E+00  0.00000000000E+00  0.45593999997E+02  0.45594000000E+02  0.51100000000E-03 0. -1.
         11   -1    0    0    0    0 -0.00000000000E+00 -0.00000000000E+00 -0.45593999997E+02  0.45594000000E+02  0.51100000000E-03 0.  1.
    9900012    2    1    2    0    0 -0.10296308751E+01  0.57375842992E+00  0.55041848992E-01  0.90008013525E+02  0.90000278504E+02 0.  0.
         12    1    1    2    0    0  0.10296308751E+01 -0.57375842992E+00 -0.55041848992E-01  0.11799864745E+01  0.00000000000E+00 0. -1.
         11    1    3    3    0    0 -0.49510003173E+01  0.27090403287E+01 -0.87902019541E+01  0.10446001833E+02  0.51100000000E-03 0. -1.
        -11    1    3    3    0    0  0.29714439889E+02  0.19927899231E+02 -0.14245978063E+02  0.38509959711E+02  0.51100000000E-03 0.  1.
         12    1    3    3    0    0 -0.25793070446E+02 -0.22063181130E+02  0.23091221866E+02  0.41052051982E+02  0.00000000000E+00 0. -1.
</event>
<event>
 7    1  0.2284751E-015  0.9000782E+02  0.7816164E-02  0.1186339E+00
        -11   -1    0    0    0    0  0.00000000000E+00  0.00000000000E+00  0.45593999997E+02  0.45594000000E+02  0.51100000000E-03 0. -1.
         11   -1    0    0    0    0 -0.00000000000E+00 -0.00000000000E+00 -0.45593999997E+02  0.45594000000E+02  0.51100000000E-03 0.  1.
    9900012    2    1    2    0    0  0.14950033431E-01  0.84680181788E+00 -0.82190542068E+00  0.90007819784E+02  0.90000082205E+02 0.  0.
         12    1    1    2    0    0 -0.14950033431E-01 -0.84680181788E+00  0.82190542068E+00  0.11801802162E+01  0.00000000000E+00 0. -1.
         11    1    3    3    0    0  0.94244222914E+01  0.29834371920E+01  0.43696748157E+01  0.10808084532E+02  0.51100000000E-03 0. -1.
        -11    1    3    3    0    0 -0.73794374549E+01  0.34785856620E+00 -0.41801603050E+02  0.42449394820E+02  0.51100000000E-03 0.  1.
         12    1    3    3    0    0 -0.20300348031E+01 -0.24844939403E+01  0.36610022814E+02  0.36750340432E+02  0.00000000000E+00 0. -1.
</event>
<event>
 7    1  0.2284751E-015  0.9000775E+02  0.7816164E-02  0.1186339E+00
        -11   -1    0    0    0    0  0.00000000000E+00  0.00000000000E+00  0.45593999997E+02  0.45594000000E+02  0.51100000000E-03 0.  1.
         11   -1    0    0    0    0 -0.00000000000E+00 -0.00000000000E+00 -0.45593999997E+02  0.45594000000E+02  0.51100000000E-03 0. -1.
    9900012    2    1    2    0    0 -0.13384076655E+00  0.16388718004E+00  0.11611296279E+01  0.90007748175E+02  0.90000009651E+02 0.  0.
         12    1    1    2    0    0  0.13384076655E+00 -0.16388718004E+00 -0.11611296279E+01  0.11802518254E+01  0.00000000000E+00 0. -1.
         11    1    3    3    0    0 -0.13112605109E+02  0.34783367432E+02  0.11623853420E+02  0.38947875825E+02  0.51100000000E-03 0. -1.
        -11    1    3    3    0    0 -0.80943890750E+01 -0.23338571555E+01  0.46818063477E+01  0.96377038063E+01  0.51100000000E-03 0.  1.
        -12    1    3    3    0    0  0.21073153418E+02 -0.32285623096E+02 -0.15144530140E+02  0.41422168544E+02  0.00000000000E+00 0.  1.
</event>
<event>
 7    1  0.2284751E-015  0.9000780E+02  0.7816164E-02  0.1186339E+00
        -11   -1    0    0    0    0  0.00000000000E+00  0.00000000000E+00  0.45593999997E+02  0.45594000000E+02  0.51100000000E-03 0.  1.
         11   -1    0    0    0    0 -0.00000000000E+00 -0.00000000000E+00 -0.45593999997E+02  0.45594000000E+02  0.51100000000E-03 0. -1.
    9900012    2    1    2    0    0  0.95468341092E+00  0.15016368370E+00  0.67742340719E+00  0.90007800009E+02  0.90000062169E+02 0.  0.
         12    1    1    2    0    0 -0.95468341092E+00 -0.15016368370E+00 -0.67742340719E+00  0.11801999914E+01  0.00000000000E+00 0. -1.
         11    1    3    3    0    0 -0.13734253090E+01 -0.86179534461E+01 -0.94378953013E+00  0.87775940677E+01  0.51100000000E-03 0. -1.
        -11    1    3    3    0    0 -0.20864585090E+02 -0.26872378172E+02  0.14230619860E+02  0.36877719038E+02  0.51100000000E-03 0.  1.
         12    1    3    3    0    0  0.23192693810E+02  0.35640495302E+02 -0.12609406923E+02  0.44352486903E+02  0.00000000000E+00 0. -1.
</event>
<event>
 7    1  0.2284751E-015  0.9000778E+02  0.7816164E-02  0.1186339E+00
        -11   -1    0    0    0    0  0.00000000000E+00  0.00000000000E+00  0.45593999997E+02  0.45594000000E+02  0.51100000000E-03 0. -1.
         11   -1    0    0    0    0 -0.00000000000E+00 -0.00000000000E+00 -0.45593999997E+02  0.45594000000E+02  0.51100000000E-03 0.  1.
    9900012    2    1    2    0    0  0.70928603369E+00  0.94297920983E+00 -0.24831124389E-01  0.90007782625E+02  0.90000044556E+02 0.  0.
         12    1    1    2    0    0 -0.70928603369E+00 -0.94297920983E+00  0.24831124389E-01  0.11802173751E+01  0.00000000000E+00 0. -1.
         11    1    3    3    0    0 -0.16784431822E+02  0.20969587115E+02  0.26725505099E+02  0.37890544446E+02  0.51100000000E-03 0. -1.
        -11    1    3    3    0    0 -0.13106638423E+01  0.61244149383E+01  0.41248090729E+01  0.74993565186E+01  0.51100000000E-03 0.  1.
        -12    1    3    3    0    0  0.18804381698E+02 -0.26151022844E+02 -0.30875145296E+02  0.44617881660E+02  0.00000000000E+00 0.  1.
</event>
<event>
 7    1  0.2284751E-015  0.9000768E+02  0.7816164E-02  0.1186339E+00
        -11   -1    0    0    0    0  0.00000000000E+00  0.00000000000E+00  0.45593999997E+02  0.45594000000E+02  0.51100000000E-03 0. -1.
         11   -1    0    0    0    0 -0.00000000000E+00 -0.00000000000E+00 -0.45593999997E+02  0.45594000000E+02  0.51100000000E-03 0.  1.
    9900012    2    1    2    0    0  0.95860058012E+00 -0.68752165968E+00 -0.39467153156E-01  0.90007678535E+02  0.89999939092E+02 0.  0.
         12    1    1    2    0    0 -0.95860058012E+00  0.68752165968E+00  0.39467153156E-01  0.11803214651E+01  0.00000000000E+00 0. -1.
         11    1    3    3    0    0  0.62046110276E+01  0.14940647767E+01 -0.66213052736E+01  0.91962552894E+01  0.51100000000E-03 0. -1.
        -11    1    3    3    0    0 -0.29429190459E+02 -0.97396261833E+01 -0.25353044023E+02  0.40046403219E+02  0.51100000000E-03 0.  1.
         12    1    3    3    0    0  0.24183180012E+02  0.75580397469E+01  0.31934882143E+02  0.40765020027E+02  0.00000000000E+00 0. -1.
</event>
<event>
 7    1  0.2284751E-015  0.9000774E+02  0.7816164E-02  0.1186339E+00
        -11   -1    0    0    0    0  0.00000000000E+00  0.00000000000E+00  0.45593999997E+02  0.45594000000E+02  0.51100000000E-03 0. -1.
         11   -1    0    0    0    0 -0.00000000000E+00 -0.00000000000E+00 -0.45593999997E+02  0.45594000000E+02  0.51100000000E-03 0.  1.
    9900012    2    1    2    0    0  0.67545049812E+00 -0.96571195400E+00 -0.64613359784E-01  0.90007742469E+02  0.90000003869E+02 0.  0.
         12    1    1    2    0    0 -0.67545049812E+00  0.96571195400E+00  0.64613359784E-01  0.11802575311E+01  0.00000000000E+00 0. -1.
         11    1    3    3    0    0 -0.16478780153E+02  0.18910632096E+02  0.28939138336E+02  0.38296683009E+02  0.51100000000E-03 0. -1.
        -11    1    3    3    0    0 -0.69165502844E+01  0.47372746441E+01 -0.58092279830E+01  0.10199390615E+02  0.51100000000E-03 0.  1.
        -12    1    3    3    0    0  0.24070780936E+02 -0.24613618694E+02 -0.23194523713E+02  0.41511668845E+02  0.00000000000E+00 0.  1.
</event>
<event>
 7    1  0.2284751E-015  0.9000774E+02  0.7816164E-02  0.1186339E+00
        -11   -1    0    0    0    0  0.00000000000E+00  0.00000000000E+00  0.45593999997E+02  0.45594000000E+02  0.51100000000E-03 0. -1.
         11   -1    0    0    0    0 -0.00000000000E+00 -0.00000000000E+00 -0.45593999997E+02  0.45594000000E+02  0.51100000000E-03 0.  1.
    9900012    2    1    2    0    0  0.42693078448E-01  0.11190514802E+01 -0.37270200327E+00  0.90007743376E+02  0.90000004789E+02 0.  0.
         12    1    1    2    0    0 -0.42693078448E-01 -0.11190514802E+01  0.37270200327E+00  0.11802566236E+01  0.00000000000E+00 0. -1.
         11    1    3    3    0    0 -0.77005082028E+01  0.13509477887E+02 -0.34616668523E+02  0.37948880870E+02  0.51100000000E-03 0. -1.
        -11    1    3    3    0    0  0.39824037031E+01 -0.13021181039E+01 -0.75614737320E+01  0.86447056672E+01  0.51100000000E-03 0.  1.
        -12    1    3    3    0    0  0.37607975781E+01 -0.11088308303E+02  0.41805440252E+02  0.43414156840E+02  0.00000000000E+00 0.  1.
</event>
<event>
 7    1  0.2284751E-015  0.9000770E+02  0.7816164E-02  0.1186339E+00
        -11   -1    0    0    0    0  0.00000000000E+00  0.00000000000E+00  0.45593999997E+02  0.45594000000E+02  0.51100000000E-03 0. -1.
         11   -1    0    0    0    0 -0.00000000000E+00 -0.00000000000E+00 -0.45593999997E+02  0.45594000000E+02  0.51100000000E-03 0.  1.
    9900012    2    1    2    0    0  0.44001170802E+00  0.36704320661E+00 -0.10318810972E+01  0.90007699353E+02  0.89999960184E+02 0.  0.
         12    1    1    2    0    0 -0.44001170802E+00 -0.36704320661E+00  0.10318810972E+01  0.11803006471E+01  0.00000000000E+00 0. -1.
         11    1    3    3    0    0  0.17669856195E+02 -0.11658882348E+02  0.27609525550E+02  0.34791367563E+02  0.51100000000E-03 0. -1.
        -11    1    3    3    0    0  0.46783156027E+01 -0.96526639596E+01  0.29049552845E+01  0.11113024964E+02  0.51100000000E-03 0.  1.
        -12    1    3    3    0    0 -0.21908160089E+02  0.21678589514E+02 -0.31546361932E+02  0.44103306826E+02  0.00000000000E+00 0.  1.
</event>
<event>
 7    1  0.2284751E-015  0.9000772E+02  0.7816164E-02  0.1186339E+00
        -11   -1    0    0    0    0  0.00000000000E+00  0.00000000000E+00  0.45593999997E+02  0.45594000000E+02  0.51100000000E-03 0.  1.
         11   -1    0    0    0    0 -0.00000000000E+00 -0.00000000000E+00 -0.45593999997E+02  0.45594000000E+02  0.51100000000E-03 0. -1.
    9900012    2    1    2    0    0 -0.10662185546E+01  0.49545769534E+00  0.10369974620E+00  0.90007722926E+02  0.89999984069E+02 0.  0.
         12    1    1    2    0    0  0.10662185546E+01 -0.49545769534E+00 -0.10369974620E+00  0.11802770740E+01  0.00000000000E+00 0. -1.
         11    1    3    3    0    0 -0.14491482354E+02 -0.27704426194E+02 -0.24615547131E+02  0.39792756280E+02  0.51100000000E-03 0. -1.
        -11    1    3    3    0    0 -0.88458758121E+01  0.18761851299E+01  0.33173818532E+01  0.96319578563E+01  0.51100000000E-03 0.  1.
        -12    1    3    3    0    0  0.22271139611E+02  0.26323698759E+02  0.21401865024E+02  0.40583008790E+02  0.00000000000E+00 0.  1.
</event>
<event>
 7    1  0.2284751E-015  0.9000784E+02  0.7816164E-02  0.1186339E+00
        -11   -1    0    0    0    0  0.00000000000E+00  0.00000000000E+00  0.45593999997E+02  0.45594000000E+02  0.51100000000E-03 0.  1.
         11   -1    0    0    0    0 -0.00000000000E+00 -0.00000000000E+00 -0.45593999997E+02  0.45594000000E+02  0.51100000000E-03 0. -1.
    9900012    2    1    2    0    0  0.10600777068E+01  0.41201285920E+00 -0.31505583821E+00  0.90007839197E+02  0.90000101874E+02 0.  0.
         12    1    1    2    0    0 -0.10600777068E+01 -0.41201285920E+00  0.31505583821E+00  0.11801608034E+01  0.00000000000E+00 0. -1.
         11    1    3    3    0    0  0.11264388621E+02 -0.61969039530E+01  0.88643365718E+01  0.15616162548E+02  0.51100000000E-03 0. -1.
        -11    1    3    3    0    0  0.30220890972E+02 -0.31165411612E+01  0.42971800630E+01  0.30683559714E+02  0.51100000000E-03 0.  1.
         12    1    3    3    0    0 -0.40425201886E+02  0.97254579734E+01 -0.13476572473E+02  0.43708116935E+02  0.00000000000E+00 0. -1.
</event>
<event>
 7    1  0.2284751E-015  0.9000778E+02  0.7816164E-02  0.1186339E+00
        -11   -1    0    0    0    0  0.00000000000E+00  0.00000000000E+00  0.45593999997E+02  0.45594000000E+02  0.51100000000E-03 0.  1.
         11   -1    0    0    0    0 -0.00000000000E+00 -0.00000000000E+00 -0.45593999997E+02  0.45594000000E+02  0.51100000000E-03 0. -1.
    9900012    2    1    2    0    0 -0.50180045540E+00 -0.10675647263E+01 -0.37790921056E-01  0.90007777014E+02  0.90000038871E+02 0.  0.
         12    1    1    2    0    0  0.50180045540E+00  0.10675647263E+01  0.37790921056E-01  0.11802229855E+01  0.00000000000E+00 0. -1.
         11    1    3    3    0    0 -0.92039927637E+00 -0.91239422047E+01 -0.39093113936E+01  0.99687598033E+01  0.51100000000E-03 0. -1.
        -11    1    3    3    0    0 -0.19358591135E+02 -0.21292273252E+02  0.25595543715E+02  0.38512956382E+02  0.51100000000E-03 0.  1.
         12    1    3    3    0    0  0.19777189956E+02  0.29348650730E+02 -0.21724023242E+02  0.41526060830E+02  0.00000000000E+00 0. -1.
</event>
<event>
 7    1  0.2284751E-015  0.9000778E+02  0.7816164E-02  0.1186339E+00
        -11   -1    0    0    0    0  0.00000000000E+00  0.00000000000E+00  0.45593999997E+02  0.45594000000E+02  0.51100000000E-03 0.  1.
         11   -1    0    0    0    0 -0.00000000000E+00 -0.00000000000E+00 -0.45593999997E+02  0.45594000000E+02  0.51100000000E-03 0. -1.
    9900012    2    1    2    0    0 -0.11240123973E+01 -0.77857165775E-01 -0.35135312016E+00  0.90007781960E+02  0.90000043882E+02 0.  0.
         12    1    1    2    0    0  0.11240123973E+01  0.77857165775E-01  0.35135312016E+00  0.11802180403E+01  0.00000000000E+00 0. -1.
         11    1    3    3    0    0 -0.19135784463E+01  0.16225944685E+02 -0.36129292891E+02  0.39651845713E+02  0.51100000000E-03 0. -1.
        -11    1    3    3    0    0  0.76039234654E+01  0.13693516120E+01 -0.20995582960E+01  0.80064299912E+01  0.51100000000E-03 0.  1.
        -12    1    3    3    0    0 -0.68143574164E+01 -0.17673153462E+02  0.37877498067E+02  0.42349506256E+02  0.00000000000E+00 0.  1.
</event>
<event>
 7    1  0.2284751E-015  0.9000771E+02  0.7816164E-02  0.1186339E+00
        -11   -1    0    0    0    0  0.00000000000E+00  0.00000000000E+00  0.45593999997E+02  0.45594000000E+02  0.51100000000E-03 0. -1.
         11   -1    0    0    0    0 -0.00000000000E+00 -0.00000000000E+00 -0.45593999997E+02  0.45594000000E+02  0.51100000000E-03 0.  1.
    9900012    2    1    2    0    0 -0.93448130053E+00 -0.57076429316E+00  0.44050684432E+00  0.90007714670E+02  0.89999975704E+02 0.  0.
         12    1    1    2    0    0  0.93448130053E+00  0.57076429316E+00 -0.44050684432E+00  0.11802853296E+01  0.00000000000E+00 0. -1.
         11    1    3    3    0    0  0.57708670986E+01 -0.53394666706E+01 -0.61700972787E+01  0.99941438896E+01  0.51100000000E-03 0. -1.
        -11    1    3    3    0    0  0.33900486123E+02  0.91930784175E+00 -0.10906021645E+02  0.35623438839E+02  0.51100000000E-03 0.  1.
         12    1    3    3    0    0 -0.40605834522E+02  0.38493945357E+01  0.17516625768E+02  0.44390131942E+02  0.00000000000E+00 0. -1.
</event>
<event>
 7    1  0.2284751E-015  0.9000766E+02  0.7816164E-02  0.1186339E+00
        -11   -1    0    0    0    0  0.00000000000E+00  0.00000000000E+00  0.45593999997E+02  0.45594000000E+02  0.51100000000E-03 0.  1.
         11   -1    0    0    0    0 -0.00000000000E+00 -0.00000000000E+00 -0.45593999997E+02  0.45594000000E+02  0.51100000000E-03 0. -1.
    9900012    2    1    2    0    0  0.33600107197E+00 -0.83787739384E+00 -0.76044183047E+00  0.90007658090E+02  0.89999918377E+02 0.  0.
         12    1    1    2    0    0 -0.33600107197E+00  0.83787739384E+00  0.76044183047E+00  0.11803419102E+01  0.00000000000E+00 0. -1.
         11    1    3    3    0    0  0.36578512619E+01  0.52453100620E+01  0.85571322539E+01  0.10682587054E+02  0.51100000000E-03 0. -1.
        -11    1    3    3    0    0  0.28122448773E+02  0.11177519993E+02  0.17115828265E+02  0.34767235376E+02  0.51100000000E-03 0.  1.
         12    1    3    3    0    0 -0.31444298963E+02 -0.17260707449E+02 -0.26433402350E+02  0.44557835660E+02  0.00000000000E+00 0. -1.
</event>
<event>
 7    1  0.2284751E-015  0.9000766E+02  0.7816164E-02  0.1186339E+00
        -11   -1    0    0    0    0  0.00000000000E+00  0.00000000000E+00  0.45593999997E+02  0.45594000000E+02  0.51100000000E-03 0.  1.
         11   -1    0    0    0    0 -0.00000000000E+00 -0.00000000000E+00 -0.45593999997E+02  0.45594000000E+02  0.51100000000E-03 0. -1.
    9900012    2    1    2    0    0 -0.32444059014E+00  0.32919610293E+00  0.10860813880E+01  0.90007659137E+02  0.89999919438E+02 0.  0.
         12    1    1    2    0    0  0.32444059014E+00 -0.32919610293E+00 -0.10860813880E+01  0.11803408626E+01  0.00000000000E+00 0. -1.
         11    1    3    3    0    0  0.35651519513E+02 -0.55423141555E+01 -0.45407874268E+01  0.36364362231E+02  0.51100000000E-03 0. -1.
        -11    1    3    3    0    0  0.18948767400E+01  0.36508751118E+01 -0.11357107923E+02  0.12079045806E+02  0.51100000000E-03 0.  1.
        -12    1    3    3    0    0 -0.37870836843E+02  0.22206351466E+01  0.16983976738E+02  0.41564251100E+02  0.00000000000E+00 0.  1.
</event>
<event>
 7    1  0.2284751E-015  0.9000751E+02  0.7816164E-02  0.1186340E+00
        -11   -1    0    0    0    0  0.00000000000E+00  0.00000000000E+00  0.45593999997E+02  0.45594000000E+02  0.51100000000E-03 0.  1.
         11   -1    0    0    0    0 -0.00000000000E+00 -0.00000000000E+00 -0.45593999997E+02  0.45594000000E+02  0.51100000000E-03 0. -1.
    9900012    2    1    2    0    0  0.10391990110E+01  0.49372230339E+00 -0.26432296781E+00  0.90007507336E+02  0.89999765633E+02 0.  0.
         12    1    1    2    0    0 -0.10391990110E+01 -0.49372230339E+00  0.26432296781E+00  0.11804926636E+01  0.00000000000E+00 0. -1.
         11    1    3    3    0    0  0.12874063602E+01 -0.14757377633E+02 -0.39471806895E+02  0.42159947219E+02  0.51100000000E-03 0. -1.
        -11    1    3    3    0    0 -0.85030239986E+01  0.12808680826E+01  0.49023625369E+01  0.98982422111E+01  0.51100000000E-03 0.  1.
        -12    1    3    3    0    0  0.82548166494E+01  0.13970231854E+02  0.34305121390E+02  0.37949317906E+02  0.00000000000E+00 0.  1.
</event>
<event>
 7    1  0.2284751E-015  0.9000771E+02  0.7816164E-02  0.1186339E+00
        -11   -1    0    0    0    0  0.00000000000E+00  0.00000000000E+00  0.45593999997E+02  0.45594000000E+02  0.51100000000E-03 0.  1.
         11   -1    0    0    0    0 -0.00000000000E+00 -0.00000000000E+00 -0.45593999997E+02  0.45594000000E+02  0.51100000000E-03 0. -1.
    9900012    2    1    2    0    0 -0.11119349566E+01  0.36472505582E+00 -0.15384018378E+00  0.90007707445E+02  0.89999968383E+02 0.  0.
         12    1    1    2    0    0  0.11119349566E+01 -0.36472505582E+00  0.15384018378E+00  0.11802925554E+01  0.00000000000E+00 0. -1.
         11    1    3    3    0    0 -0.34987590564E+02  0.10780288378E+02  0.90005258638E+00  0.36621799600E+02  0.51100000000E-03 0. -1.
        -11    1    3    3    0    0 -0.86967031119E+01  0.21224040681E+01  0.62670737610E+00  0.89738512603E+01  0.51100000000E-03 0.  1.
        -12    1    3    3    0    0  0.42572358719E+02 -0.12537967391E+02 -0.16806001463E+01  0.44412056585E+02  0.00000000000E+00 0.  1.
</event>
<event>
 7    1  0.2284751E-015  0.9000779E+02  0.7816164E-02  0.1186339E+00
        -11   -1    0    0    0    0  0.00000000000E+00  0.00000000000E+00  0.45593999997E+02  0.45594000000E+02  0.51100000000E-03 0. -1.
         11   -1    0    0    0    0 -0.00000000000E+00 -0.00000000000E+00 -0.45593999997E+02  0.45594000000E+02  0.51100000000E-03 0.  1.
    9900012    2    1    2    0    0 -0.70390865692E+00  0.77199474793E-01 -0.94417091966E+00  0.90007785663E+02  0.90000047634E+02 0.  0.
         12    1    1    2    0    0  0.70390865692E+00 -0.77199474793E-01  0.94417091966E+00  0.11802143372E+01  0.00000000000E+00 0. -1.
         11    1    3    3    0    0 -0.46086432962E+01  0.54305827304E+01  0.18486663998E+01  0.73585589311E+01  0.51100000000E-03 0. -1.
        -11    1    3    3    0    0  0.11550047429E+02  0.17168967592E+02 -0.36166365550E+02  0.41667529818E+02  0.51100000000E-03 0.  1.
         12    1    3    3    0    0 -0.76453127901E+01 -0.22522350848E+02  0.33373528230E+02  0.40981696914E+02  0.00000000000E+00 0. -1.
</event>
<event>
 7    1  0.2284751E-015  0.9000769E+02  0.7816164E-02  0.1186339E+00
        -11   -1    0    0    0    0  0.00000000000E+00  0.00000000000E+00  0.45593999997E+02  0.45594000000E+02  0.51100000000E-03 0. -1.
         11   -1    0    0    0    0 -0.00000000000E+00 -0.00000000000E+00 -0.45593999997E+02  0.45594000000E+02  0.51100000000E-03 0.  1.
    9900012    2    1    2    0    0 -0.10511939473E+01  0.49515687966E+00 -0.20722624656E+00  0.90007689970E+02  0.89999950677E+02 0.  0.
         12    1    1    2    0    0  0.10511939473E+01 -0.49515687966E+00  0.20722624656E+00  0.11803100303E+01  0.00000000000E+00 0. -1.
         11    1    3    3    0    0 -0.35715910915E+01  0.42124920742E+01  0.66963315004E+01  0.86799889530E+01  0.51100000000E-03 0. -1.
        -11    1    3    3    0    0 -0.38367420030E+02 -0.78806174038E+01 -0.89486503976E+01  0.40177623058E+02  0.51100000000E-03 0.  1.
         12    1    3    3    0    0  0.40887817174E+02  0.41632822093E+01  0.20450926507E+01  0.41150077958E+02  0.00000000000E+00 0. -1.
</event>
<event>
 7    1  0.2284751E-015  0.9000773E+02  0.7816164E-02  0.1186339E+00
        -11   -1    0    0    0    0  0.00000000000E+00  0.00000000000E+00  0.45593999997E+02  0.45594000000E+02  0.51100000000E-03 0. -1.
         11   -1    0    0    0    0 -0.00000000000E+00 -0.00000000000E+00 -0.45593999997E+02  0.45594000000E+02  0.51100000000E-03 0.  1.
    9900012    2    1    2    0    0 -0.23288205093E+00 -0.10082970988E+01 -0.56757364446E+00  0.90007730145E+02  0.89999991383E+02 0.  0.
         12    1    1    2    0    0  0.23288205093E+00  0.10082970988E+01  0.56757364446E+00  0.11802698552E+01  0.00000000000E+00 0. -1.
         11    1    3    3    0    0 -0.78753914202E+01  0.19771793481E+02  0.33659027876E+02  0.39823055700E+02  0.51100000000E-03 0. -1.
        -11    1    3    3    0    0 -0.89210689928E+01  0.13728854723E+01 -0.90545891245E+01  0.12784986154E+02  0.51100000000E-03 0.  1.
        -12    1    3    3    0    0  0.16563578362E+02 -0.22152976053E+02 -0.25172012396E+02  0.37399688290E+02  0.00000000000E+00 0.  1.
</event>
<event>
 7    1  0.2284751E-015  0.9000765E+02  0.7816164E-02  0.1186339E+00
        -11   -1    0    0    0    0  0.00000000000E+00  0.00000000000E+00  0.45593999997E+02  0.45594000000E+02  0.51100000000E-03 0.  1.
         11   -1    0    0    0    0 -0.00000000000E+00 -0.00000000000E+00 -0.45593999997E+02  0.45594000000E+02  0.51100000000E-03 0. -1.
    9900012    2    1    2    0    0  0.79627795141E-01  0.10819137522E+01  0.46514430542E+00  0.90007645317E+02  0.89999905435E+02 0.  0.
         12    1    1    2    0    0 -0.79627795141E-01 -0.10819137522E+01 -0.46514430542E+00  0.11803546830E+01  0.00000000000E+00 0. -1.
         11    1    3    3    0    0  0.48306464968E+01 -0.87415282178E+01 -0.19190047049E+01  0.10170154398E+02  0.51100000000E-03 0. -1.
        -11    1    3    3    0    0 -0.18809283851E+02 -0.12947062010E+02  0.32391351412E+02  0.39630988131E+02  0.51100000000E-03 0.  1.
         12    1    3    3    0    0  0.14058265150E+02  0.22770503980E+02 -0.30007202401E+02  0.40206502788E+02  0.00000000000E+00 0. -1.
</event>
<event>
 7    1  0.2284751E-015  0.9000782E+02  0.7816164E-02  0.1186339E+00
        -11   -1    0    0    0    0  0.00000000000E+00  0.00000000000E+00  0.45593999997E+02  0.45594000000E+02  0.51100000000E-03 0.  1.
         11   -1    0    0    0    0 -0.00000000000E+00 -0.00000000000E+00 -0.45593999997E+02  0.45594000000E+02  0.51100000000E-03 0. -1.
    9900012    2    1    2    0    0  0.32816379552E+00  0.11128137264E+01  0.21628309212E+00  0.90007820250E+02  0.90000082677E+02 0.  0.
         12    1    1    2    0    0 -0.32816379552E+00 -0.11128137264E+01 -0.21628309212E+00  0.11801797500E+01  0.00000000000E+00 0. -1.
         11    1    3    3    0    0 -0.31846249778E+02 -0.45743192859E+01 -0.20844251107E+02  0.38335242615E+02  0.51100000000E-03 0. -1.
        -11    1    3    3    0    0  0.11083731735E+02  0.10765110318E+02 -0.63596623808E+01  0.16708740682E+02  0.51100000000E-03 0.  1.
        -12    1    3    3    0    0  0.21090681839E+02 -0.50779773059E+01  0.27420196580E+02  0.34963836953E+02  0.00000000000E+00 0.  1.
</event>
<event>
 7    1  0.2284751E-015  0.9000770E+02  0.7816164E-02  0.1186339E+00
        -11   -1    0    0    0    0  0.00000000000E+00  0.00000000000E+00  0.45593999997E+02  0.45594000000E+02  0.51100000000E-03 0.  1.
         11   -1    0    0    0    0 -0.00000000000E+00 -0.00000000000E+00 -0.45593999997E+02  0.45594000000E+02  0.51100000000E-03 0. -1.
    9900012    2    1    2    0    0 -0.38372944712E+00  0.70174902920E+00  0.86799577716E+00  0.90007696371E+02  0.89999957163E+02 0.  0.
         12    1    1    2    0    0  0.38372944712E+00 -0.70174902920E+00 -0.86799577716E+00  0.11803036295E+01  0.00000000000E+00 0. -1.
         11    1    3    3    0    0 -0.64916139592E+01  0.69204965182E+01 -0.68526643103E+00  0.95133545186E+01  0.51100000000E-03 0. -1.
        -11    1    3    3    0    0 -0.27705714097E+02  0.22548253039E+02  0.44892301664E+01  0.36002548472E+02  0.51100000000E-03 0.  1.
         12    1    3    3    0    0  0.33813598609E+02 -0.28767000528E+02 -0.29359679582E+01  0.44491793380E+02  0.00000000000E+00 0. -1.
</event>
<event>
 7    1  0.2284751E-015  0.9000770E+02  0.7816164E-02  0.1186339E+00
        -11   -1    0    0    0    0  0.00000000000E+00  0.00000000000E+00  0.45593999997E+02  0.45594000000E+02  0.51100000000E-03 0. -1.
         11   -1    0    0    0    0 -0.00000000000E+00 -0.00000000000E+00 -0.45593999997E+02  0.45594000000E+02  0.51100000000E-03 0.  1.
    9900012    2    1    2    0    0 -0.21554213244E+00  0.10842186250E+01 -0.41366097977E+00  0.90007701799E+02  0.89999962663E+02 0.  0.
         12    1    1    2    0    0  0.21554213244E+00 -0.10842186250E+01  0.41366097977E+00  0.11802982012E+01  0.00000000000E+00 0. -1.
         11    1    3    3    0    0 -0.11675303743E+02 -0.30333389748E+02 -0.19772307743E+02  0.38044334727E+02  0.51100000000E-03 0. -1.
        -11    1    3    3    0    0  0.69228263981E+01 -0.65741672062E+01  0.12357529338E+01  0.96266445539E+01  0.51100000000E-03 0.  1.
        -12    1    3    3    0    0  0.45369352122E+01  0.37991775579E+02  0.18122893830E+02  0.42336722518E+02  0.00000000000E+00 0.  1.
</event>
<event>
 7    1  0.2284751E-015  0.9000774E+02  0.7816164E-02  0.1186339E+00
        -11   -1    0    0    0    0  0.00000000000E+00  0.00000000000E+00  0.45593999997E+02  0.45594000000E+02  0.51100000000E-03 0. -1.
         11   -1    0    0    0    0 -0.00000000000E+00 -0.00000000000E+00 -0.45593999997E+02  0.45594000000E+02  0.51100000000E-03 0.  1.
    9900012    2    1    2    0    0  0.33297864023E+00 -0.10654313090E+00 -0.11272894211E+01  0.90007742548E+02  0.90000003950E+02 0.  0.
         12    1    1    2    0    0 -0.33297864023E+00  0.10654313090E+00  0.11272894211E+01  0.11802574518E+01  0.00000000000E+00 0. -1.
         11    1    3    3    0    0  0.18352450262E+01 -0.88584155026E+01 -0.12988094599E+01  0.91392863943E+01  0.51100000000E-03 0. -1.
        -11    1    3    3    0    0 -0.87078139122E+01 -0.18838586557E+02 -0.31834444253E+02  0.38001976367E+02  0.51100000000E-03 0.  1.
         12    1    3    3    0    0  0.72055475262E+01  0.27590458929E+02  0.32005964292E+02  0.42866479787E+02  0.00000000000E+00 0. -1.
</event>
<event>
 7    1  0.2284751E-015  0.9000771E+02  0.7816164E-02  0.1186339E+00
        -11   -1    0    0    0    0  0.00000000000E+00  0.00000000000E+00  0.45593999997E+02  0.45594000000E+02  0.51100000000E-03 0. -1.
         11   -1    0    0    0    0 -0.00000000000E+00 -0.00000000000E+00 -0.45593999997E+02  0.45594000000E+02  0.51100000000E-03 0.  1.
    9900012    2    1    2    0    0  0.97838300012E+00 -0.53984612932E+00 -0.38000764695E+00  0.90007714886E+02  0.89999975923E+02 0.  0.
         12    1    1    2    0    0 -0.97838300012E+00  0.53984612932E+00  0.38000764695E+00  0.11802851139E+01  0.00000000000E+00 0. -1.
         11    1    3    3    0    0 -0.24873441904E+02 -0.27709796770E+02  0.16711107220E+02  0.40813993360E+02  0.51100000000E-03 0. -1.
        -11    1    3    3    0    0 -0.38193221505E+01  0.74800170862E+01  0.22165284905E+01  0.86862463763E+01  0.51100000000E-03 0.  1.
        -12    1    3    3    0    0  0.29671147055E+02  0.19689933555E+02 -0.19307643358E+02  0.40507475149E+02  0.00000000000E+00 0.  1.
</event>
<event>
 7    1  0.2284751E-015  0.9000774E+02  0.7816164E-02  0.1186339E+00
        -11   -1    0    0    0    0  0.00000000000E+00  0.00000000000E+00  0.45593999997E+02  0.45594000000E+02  0.51100000000E-03 0. -1.
         11   -1    0    0    0    0 -0.00000000000E+00 -0.00000000000E+00 -0.45593999997E+02  0.45594000000E+02  0.51100000000E-03 0.  1.
    9900012    2    1    2    0    0 -0.13823890676E+00  0.27586920964E+00 -0.11392133739E+01  0.90007736924E+02  0.89999998252E+02 0.  0.
         12    1    1    2    0    0  0.13823890676E+00 -0.27586920964E+00  0.11392133739E+01  0.11802630755E+01  0.00000000000E+00 0. -1.
         11    1    3    3    0    0 -0.83194898130E+01 -0.35372183849E+02  0.22915808782E+02  0.42959743870E+02  0.51100000000E-03 0. -1.
        -11    1    3    3    0    0  0.43817209540E+01  0.14065762109E+01 -0.75614490034E+01  0.88517482142E+01  0.51100000000E-03 0.  1.
        -12    1    3    3    0    0  0.37995299522E+01  0.34241476847E+02 -0.16493573153E+02  0.38196244840E+02  0.00000000000E+00 0.  1.
</event>
<event>
 7    1  0.2284751E-015  0.9000772E+02  0.7816164E-02  0.1186339E+00
        -11   -1    0    0    0    0  0.00000000000E+00  0.00000000000E+00  0.45593999997E+02  0.45594000000E+02  0.51100000000E-03 0.  1.
         11   -1    0    0    0    0 -0.00000000000E+00 -0.00000000000E+00 -0.45593999997E+02  0.45594000000E+02  0.51100000000E-03 0. -1.
    9900012    2    1    2    0    0 -0.62845767449E+00  0.50424950050E+00  0.86245727845E+00  0.90007720726E+02  0.89999981840E+02 0.  0.
         12    1    1    2    0    0  0.62845767449E+00 -0.50424950050E+00 -0.86245727845E+00  0.11802792740E+01  0.00000000000E+00 0. -1.
         11    1    3    3    0    0 -0.60242742000E+01 -0.18016662818E+01 -0.73815563155E+01  0.96966620508E+01  0.51100000000E-03 0. -1.
        -11    1    3    3    0    0  0.20438128196E+02 -0.34325306697E+02  0.78303384277E+01  0.40709433356E+02  0.51100000000E-03 0.  1.
         12    1    3    3    0    0 -0.15042311671E+02  0.36631222480E+02  0.41367516626E+00  0.39601625319E+02  0.00000000000E+00 0. -1.
</event>
<event>
 7    1  0.2284751E-015  0.9000769E+02  0.7816164E-02  0.1186339E+00
        -11   -1    0    0    0    0  0.00000000000E+00  0.00000000000E+00  0.45593999997E+02  0.45594000000E+02  0.51100000000E-03 0. -1.
         11   -1    0    0    0    0 -0.00000000000E+00 -0.00000000000E+00 -0.45593999997E+02  0.45594000000E+02  0.51100000000E-03 0.  1.
    9900012    2    1    2    0    0  0.70243580741E+00 -0.40730460771E-01 -0.94765453945E+00  0.90007693192E+02  0.89999953943E+02 0.  0.
         12    1    1    2    0    0 -0.70243580741E+00  0.40730460771E-01  0.94765453945E+00  0.11803068076E+01  0.00000000000E+00 0. -1.
         11    1    3    3    0    0 -0.73808904962E+01  0.27556179437E+02  0.77644621184E+00  0.28538105030E+02  0.51100000000E-03 0. -1.
        -11    1    3    3    0    0  0.14646130826E+02  0.13383788561E+02  0.11003343258E+01  0.19870724201E+02  0.51100000000E-03 0.  1.
        -12    1    3    3    0    0 -0.65628045219E+01 -0.40980698459E+02 -0.28244350771E+01  0.41598863961E+02  0.00000000000E+00 0.  1.
</event>
<event>
 7    1  0.2284751E-015  0.9000758E+02  0.7816164E-02  0.1186339E+00
        -11   -1    0    0    0    0  0.00000000000E+00  0.00000000000E+00  0.45593999997E+02  0.45594000000E+02  0.51100000000E-03 0.  1.
         11   -1    0    0    0    0 -0.00000000000E+00 -0.00000000000E+00 -0.45593999997E+02  0.45594000000E+02  0.51100000000E-03 0. -1.
    9900012    2    1    2    0    0  0.20548217372E+00 -0.11602068606E+01 -0.71385139343E-01  0.90007576889E+02  0.89999836104E+02 0.  0.
         12    1    1    2    0    0 -0.20548217372E+00  0.11602068606E+01  0.71385139343E-01  0.11804231111E+01  0.00000000000E+00 0. -1.
         11    1    3    3    0    0  0.57544381849E+01  0.76025682763E+01  0.41012061275E+01  0.10379426534E+02  0.51100000000E-03 0. -1.
        -11    1    3    3    0    0 -0.35167932986E+02 -0.36424683663E+01  0.20386546792E+02  0.40812527203E+02  0.51100000000E-03 0.  1.
         12    1    3    3    0    0  0.29618976975E+02 -0.51203067706E+01 -0.24559138059E+02  0.38815623152E+02  0.00000000000E+00 0. -1.
</event>
<event>
 7    1  0.2284751E-015  0.9000766E+02  0.7816164E-02  0.1186339E+00
        -11   -1    0    0    0    0  0.00000000000E+00  0.00000000000E+00  0.45593999997E+02  0.45594000000E+02  0.51100000000E-03 0.  1.
         11   -1    0    0    0    0 -0.00000000000E+00 -0.00000000000E+00 -0.45593999997E+02  0.45594000000E+02  0.51100000000E-03 0. -1.
    9900012    2    1    2    0    0 -0.41592572835E+00  0.65308603245E+00 -0.89089186841E+00  0.90007659414E+02  0.89999919718E+02 0.  0.
         12    1    1    2    0    0  0.41592572835E+00 -0.65308603245E+00  0.89089186841E+00  0.11803405858E+01  0.00000000000E+00 0. -1.
         11    1    3    3    0    0  0.20201878656E+02 -0.64192300221E+01 -0.36032270442E+02  0.41804867286E+02  0.51100000000E-03 0. -1.
        -11    1    3    3    0    0 -0.89577319216E+01  0.59216513928E+01 -0.43476869245E+00  0.10746903762E+02  0.51100000000E-03 0.  1.
        -12    1    3    3    0    0 -0.11660072463E+02  0.11506646618E+01  0.35576147266E+02  0.37455888366E+02  0.00000000000E+00 0.  1.
</event>
<event>
 7    1  0.2284751E-015  0.9000785E+02  0.7816164E-02  0.1186339E+00
        -11   -1    0    0    0    0  0.00000000000E+00  0.00000000000E+00  0.45593999997E+02  0.45594000000E+02  0.51100000000E-03 0. -1.
         11   -1    0    0    0    0 -0.00000000000E+00 -0.00000000000E+00 -0.45593999997E+02  0.45594000000E+02  0.51100000000E-03 0.  1.
    9900012    2    1    2    0    0  0.73914358605E+00  0.70821285125E+00  0.58724901881E+00  0.90007847428E+02  0.90000110214E+02 0.  0.
         12    1    1    2    0    0 -0.73914358605E+00 -0.70821285125E+00 -0.58724901881E+00  0.11801525722E+01  0.00000000000E+00 0. -1.
         11    1    3    3    0    0 -0.32016530342E+02 -0.13969105215E+02  0.29191134129E+01  0.35053036089E+02  0.51100000000E-03 0. -1.
        -11    1    3    3    0    0 -0.69099681204E+01  0.62365601499E+00  0.90097464659E+01  0.11371549494E+02  0.51100000000E-03 0.  1.
        -12    1    3    3    0    0  0.39665642049E+02  0.14053662051E+02 -0.11341610860E+02  0.43583261845E+02  0.00000000000E+00 0.  1.
</event>
<event>
 7    1  0.2284751E-015  0.9000772E+02  0.7816164E-02  0.1186339E+00
        -11   -1    0    0    0    0  0.00000000000E+00  0.00000000000E+00  0.45593999997E+02  0.45594000000E+02  0.51100000000E-03 0.  1.
         11   -1    0    0    0    0 -0.00000000000E+00 -0.00000000000E+00 -0.45593999997E+02  0.45594000000E+02  0.51100000000E-03 0. -1.
    9900012    2    1    2    0    0  0.37329155167E-01  0.11789672631E+01  0.41214084462E-01  0.90007722120E+02  0.89999983252E+02 0.  0.
         12    1    1    2    0    0 -0.37329155167E-01 -0.11789672631E+01 -0.41214084462E-01  0.11802778800E+01  0.00000000000E+00 0. -1.
         11    1    3    3    0    0  0.26064326541E+02  0.21993836347E+02  0.15108138369E+02  0.37300587134E+02  0.51100000000E-03 0. -1.
        -11    1    3    3    0    0  0.88341407623E+01  0.38610776019E+00  0.90907894540E+00  0.88891814584E+01  0.51100000000E-03 0.  1.
        -12    1    3    3    0    0 -0.34861138148E+02 -0.21200976844E+02 -0.15976003230E+02  0.43817953528E+02  0.00000000000E+00 0.  1.
</event>
<event>
 7    1  0.2284751E-015  0.9000773E+02  0.7816164E-02  0.1186339E+00
        -11   -1    0    0    0    0  0.00000000000E+00  0.00000000000E+00  0.45593999997E+02  0.45594000000E+02  0.51100000000E-03 0. -1.
         11   -1    0    0    0    0 -0.00000000000E+00 -0.00000000000E+00 -0.45593999997E+02  0.45594000000E+02  0.51100000000E-03 0.  1.
    9900012    2    1    2    0    0 -0.32620757727E+00  0.12854807724E+00 -0.11269917667E+01  0.90007726119E+02  0.89999987304E+02 0.  0.
         12    1    1    2    0    0  0.32620757727E+00 -0.12854807724E+00  0.11269917667E+01  0.11802738808E+01  0.00000000000E+00 0. -1.
         11    1    3    3    0    0  0.18447793874E+02  0.33684078470E+02 -0.30128146250E+01  0.38522919067E+02  0.51100000000E-03 0. -1.
        -11    1    3    3    0    0  0.90958260412E+01 -0.24769636186E+01 -0.17281405363E+01  0.95841468120E+01  0.51100000000E-03 0.  1.
        -12    1    3    3    0    0 -0.27869827492E+02 -0.31078566774E+02  0.36139633946E+01  0.41900660241E+02  0.00000000000E+00 0.  1.
</event>
<event>
 7    1  0.2284751E-015  0.9000768E+02  0.7816164E-02  0.1186339E+00
        -11   -1    0    0    0    0  0.00000000000E+00  0.00000000000E+00  0.45593999997E+02  0.45594000000E+02  0.51100000000E-03 0. -1.
         11   -1    0    0    0    0 -0.00000000000E+00 -0.00000000000E+00 -0.45593999997E+02  0.45594000000E+02  0.51100000000E-03 0.  1.
    9900012    2    1    2    0    0 -0.76727348616E+00  0.80550082032E-01  0.89328015877E+00  0.90007683788E+02  0.89999944414E+02 0.  0.
         12    1    1    2    0    0  0.76727348616E+00 -0.80550082032E-01 -0.89328015877E+00  0.11803162120E+01  0.00000000000E+00 0. -1.
         11    1    3    3    0    0 -0.18879787898E+01 -0.73643423989E+00 -0.90752027288E+01  0.92987151871E+01  0.51100000000E-03 0. -1.
        -11    1    3    3    0    0  0.32995953809E+02 -0.19308529776E+02 -0.78260814273E+01  0.39023068057E+02  0.51100000000E-03 0.  1.
         12    1    3    3    0    0 -0.31875248505E+02  0.20125514098E+02  0.17794564315E+02  0.41685900543E+02  0.00000000000E+00 0. -1.
</event>
<event>
 7    1  0.2284751E-015  0.9000786E+02  0.7816164E-02  0.1186339E+00
        -11   -1    0    0    0    0  0.00000000000E+00  0.00000000000E+00  0.45593999997E+02  0.45594000000E+02  0.51100000000E-03 0.  1.
         11   -1    0    0    0    0 -0.00000000000E+00 -0.00000000000E+00 -0.45593999997E+02  0.45594000000E+02  0.51100000000E-03 0. -1.
    9900012    2    1    2    0    0 -0.87803051704E+00 -0.19372183969E+00 -0.76437647690E+00  0.90007857153E+02  0.90000120068E+02 0.  0.
         12    1    1    2    0    0  0.87803051704E+00  0.19372183969E+00  0.76437647690E+00  0.11801428466E+01  0.00000000000E+00 0. -1.
         11    1    3    3    0    0 -0.73025206056E+00 -0.54023587929E+01 -0.38733735299E+02  0.39115482856E+02  0.51100000000E-03 0. -1.
        -11    1    3    3    0    0 -0.62650115652E+01  0.69829093277E+01 -0.26723187344E+01  0.97546235330E+01  0.51100000000E-03 0.  1.
        -12    1    3    3    0    0  0.61172331087E+01 -0.17742723745E+01  0.40641677556E+02  0.41137750764E+02  0.00000000000E+00 0.  1.
</event>
<event>
 7    1  0.2284751E-015  0.9000765E+02  0.7816164E-02  0.1186339E+00
        -11   -1    0    0    0    0  0.00000000000E+00  0.00000000000E+00  0.45593999997E+02  0.45594000000E+02  0.51100000000E-03 0.  1.
         11   -1    0    0    0    0 -0.00000000000E+00 -0.00000000000E+00 -0.45593999997E+02  0.45594000000E+02  0.51100000000E-03 0. -1.
    9900012    2    1    2    0    0  0.78777747244E+00  0.64101097910E+00 -0.60145392900E+00  0.90007646134E+02  0.89999906262E+02 0.  0.
         12    1    1    2    0    0 -0.78777747244E+00 -0.64101097910E+00  0.60145392900E+00  0.11803538665E+01  0.00000000000E+00 0. -1.
         11    1    3    3    0    0 -0.18976320798E+01 -0.84068425159E+01 -0.22499467016E+01  0.89072032096E+01  0.51100000000E-03 0. -1.
        -11    1    3    3    0    0 -0.62996789162E+01 -0.34467533924E+02  0.87216238511E+01  0.36107666390E+02  0.51100000000E-03 0.  1.
         12    1    3    3    0    0  0.89850884684E+01  0.43515387419E+02 -0.70731310785E+01  0.44992776534E+02  0.00000000000E+00 0. -1.
</event>
<event>
 7    1  0.2284751E-015  0.9000774E+02  0.7816164E-02  0.1186339E+00
        -11   -1    0    0    0    0  0.00000000000E+00  0.00000000000E+00  0.45593999997E+02  0.45594000000E+02  0.51100000000E-03 0. -1.
         11   -1    0    0    0    0 -0.00000000000E+00 -0.00000000000E+00 -0.45593999997E+02  0.45594000000E+02  0.51100000000E-03 0.  1.
    9900012    2    1    2    0    0  0.48884255818E+00 -0.10101238405E+01  0.36565301869E+00  0.90007737593E+02  0.89999998929E+02 0.  0.
         12    1    1    2    0    0 -0.48884255818E+00  0.10101238405E+01 -0.36565301869E+00  0.11802624072E+01  0.00000000000E+00 0. -1.
         11    1    3    3    0    0  0.18167426334E+02 -0.11749011385E+02  0.32811979700E+02  0.39302934499E+02  0.51100000000E-03 0. -1.
        -11    1    3    3    0    0  0.65605946367E+01 -0.60141704610E+01 -0.40313344505E+01  0.97705325358E+01  0.51100000000E-03 0.  1.
        -12    1    3    3    0    0 -0.24239178412E+02  0.16753058006E+02 -0.28414992231E+02  0.40934270558E+02  0.00000000000E+00 0.  1.
</event>
<event>
 7    1  0.2284751E-015  0.9000774E+02  0.7816164E-02  0.1186339E+00
        -11   -1    0    0    0    0  0.00000000000E+00  0.00000000000E+00  0.45593999997E+02  0.45594000000E+02  0.51100000000E-03 0.  1.
         11   -1    0    0    0    0 -0.00000000000E+00 -0.00000000000E+00 -0.45593999997E+02  0.45594000000E+02  0.51100000000E-03 0. -1.
    9900012    2    1    2    0    0 -0.10445092653E+01  0.48147643431E+00  0.26494959331E+00  0.90007738398E+02  0.89999999745E+02 0.  0.
         12    1    1    2    0    0  0.10445092653E+01 -0.48147643431E+00 -0.26494959331E+00  0.11802616020E+01  0.00000000000E+00 0. -1.
         11    1    3    3    0    0 -0.12849429572E+01 -0.69709654274E+01 -0.67465249800E+01  0.97857568414E+01  0.51100000000E-03 0. -1.
        -11    1    3    3    0    0  0.22901583047E+02 -0.12100748576E+02 -0.25279120387E+02  0.36193156120E+02  0.51100000000E-03 0.  1.
         12    1    3    3    0    0 -0.22661149355E+02  0.19553190437E+02  0.32290594961E+02  0.44028825436E+02  0.00000000000E+00 0. -1.
</event>
<event>
 7    1  0.2284751E-015  0.9000776E+02  0.7816164E-02  0.1186339E+00
        -11   -1    0    0    0    0  0.00000000000E+00  0.00000000000E+00  0.45593999997E+02  0.45594000000E+02  0.51100000000E-03 0. -1.
         11   -1    0    0    0    0 -0.00000000000E+00 -0.00000000000E+00 -0.45593999997E+02  0.45594000000E+02  0.51100000000E-03 0.  1.
    9900012    2    1    2    0    0 -0.51750152929E+00 -0.72278255733E-01 -0.10582653547E+01  0.90007763778E+02  0.90000025460E+02 0.  0.
         12    1    1    2    0    0  0.51750152929E+00  0.72278255733E-01  0.10582653547E+01  0.11802362221E+01  0.00000000000E+00 0. -1.
         11    1    3    3    0    0 -0.25087315782E+02  0.43625148402E+00  0.26806973545E+01  0.25233903128E+02  0.51100000000E-03 0. -1.
        -11    1    3    3    0    0 -0.10458413284E+02  0.16440846524E+02 -0.14628547801E+02  0.24365431535E+02  0.51100000000E-03 0.  1.
         12    1    3    3    0    0  0.35028227537E+02 -0.16949376264E+02  0.10889585092E+02  0.40408429115E+02  0.00000000000E+00 0. -1.
</event>
<event>
 7    1  0.2284751E-015  0.9000745E+02  0.7816164E-02  0.1186340E+00
        -11   -1    0    0    0    0  0.00000000000E+00  0.00000000000E+00  0.45593999997E+02  0.45594000000E+02  0.51100000000E-03 0. -1.
         11   -1    0    0    0    0 -0.00000000000E+00 -0.00000000000E+00 -0.45593999997E+02  0.45594000000E+02  0.51100000000E-03 0.  1.
    9900012    2    1    2    0    0 -0.11253443093E+01 -0.23112129668E+00  0.27182826808E+00  0.90007446115E+02  0.89999703603E+02 0.  0.
         12    1    1    2    0    0  0.11253443093E+01  0.23112129668E+00 -0.27182826808E+00  0.11805538851E+01  0.00000000000E+00 0. -1.
         11    1    3    3    0    0  0.13936602201E+02 -0.26990398816E+02 -0.22640954452E+02  0.37885661244E+02  0.51100000000E-03 0. -1.
        -11    1    3    3    0    0 -0.86363410990E+01 -0.55914966600E+01 -0.23769432069E+01  0.10559407263E+02  0.51100000000E-03 0.  1.
        -12    1    3    3    0    0 -0.64256054110E+01  0.32350774179E+02  0.25289725927E+02  0.41562377607E+02  0.00000000000E+00 0.  1.
</event>
<event>
 7    1  0.2284751E-015  0.9000771E+02  0.7816164E-02  0.1186339E+00
        -11   -1    0    0    0    0  0.00000000000E+00  0.00000000000E+00  0.45593999997E+02  0.45594000000E+02  0.51100000000E-03 0. -1.
         11   -1    0    0    0    0 -0.00000000000E+00 -0.00000000000E+00 -0.45593999997E+02  0.45594000000E+02  0.51100000000E-03 0.  1.
    9900012    2    1    2    0    0  0.62655900819E+00  0.14683486905E+00 -0.98941466661E+00  0.90007712725E+02  0.89999973733E+02 0.  0.
         12    1    1    2    0    0 -0.62655900819E+00 -0.14683486905E+00  0.98941466661E+00  0.11802872752E+01  0.00000000000E+00 0. -1.
         11    1    3    3    0    0  0.96549302828E+01 -0.18813715649E+01  0.28283015776E+01  0.10235063644E+02  0.51100000000E-03 0. -1.
        -11    1    3    3    0    0 -0.24616679206E+02  0.33625841294E+02  0.83412511893E+01  0.42500053759E+02  0.51100000000E-03 0.  1.
         12    1    3    3    0    0  0.15588307931E+02 -0.31597634860E+02 -0.12158967433E+02  0.37272595321E+02  0.00000000000E+00 0. -1.
</event>
<event>
 7    1  0.2284751E-015  0.9000775E+02  0.7816164E-02  0.1186339E+00
        -11   -1    0    0    0    0  0.00000000000E+00  0.00000000000E+00  0.45593999997E+02  0.45594000000E+02  0.51100000000E-03 0.  1.
         11   -1    0    0    0    0 -0.00000000000E+00 -0.00000000000E+00 -0.45593999997E+02  0.45594000000E+02  0.51100000000E-03 0. -1.
    9900012    2    1    2    0    0  0.17933763691E+00 -0.76768724468E+00  0.87833920728E+00  0.90007751951E+02  0.90000013477E+02 0.  0.
         12    1    1    2    0    0 -0.17933763691E+00  0.76768724468E+00 -0.87833920728E+00  0.11802480488E+01  0.00000000000E+00 0. -1.
         11    1    3    3    0    0 -0.33262582164E+02  0.32991793874E+01 -0.17230447394E+02  0.37605481975E+02  0.51100000000E-03 0. -1.
        -11    1    3    3    0    0 -0.17213848925E+01 -0.33706371902E+00 -0.81636138744E+01  0.83499323142E+01  0.51100000000E-03 0.  1.
        -12    1    3    3    0    0  0.35163304694E+02 -0.37298029131E+01  0.26272400476E+02  0.44052337662E+02  0.00000000000E+00 0.  1.
</event>
<event>
 7    1  0.2284751E-015  0.9000771E+02  0.7816164E-02  0.1186339E+00
        -11   -1    0    0    0    0  0.00000000000E+00  0.00000000000E+00  0.45593999997E+02  0.45594000000E+02  0.51100000000E-03 0. -1.
         11   -1    0    0    0    0 -0.00000000000E+00 -0.00000000000E+00 -0.45593999997E+02  0.45594000000E+02  0.51100000000E-03 0.  1.
    9900012    2    1    2    0    0  0.71437512366E+00 -0.93146741957E+00 -0.12293794690E+00  0.90007713124E+02  0.89999974137E+02 0.  0.
         12    1    1    2    0    0 -0.71437512366E+00  0.93146741957E+00  0.12293794690E+00  0.11802868761E+01  0.00000000000E+00 0. -1.
         11    1    3    3    0    0 -0.16561854332E+02  0.64442279619E+01  0.37161825969E+02  0.41192528480E+02  0.51100000000E-03 0. -1.
        -11    1    3    3    0    0  0.19442118195E+01  0.79631225296E+01 -0.40825331782E+01  0.91574208942E+01  0.51100000000E-03 0.  1.
        -12    1    3    3    0    0  0.15332017636E+02 -0.15338817911E+02 -0.33202230738E+02  0.39657763750E+02  0.00000000000E+00 0.  1.
</event>
<event>
 7    1  0.2284751E-015  0.9000777E+02  0.7816164E-02  0.1186339E+00
        -11   -1    0    0    0    0  0.00000000000E+00  0.00000000000E+00  0.45593999997E+02  0.45594000000E+02  0.51100000000E-03 0. -1.
         11   -1    0    0    0    0 -0.00000000000E+00 -0.00000000000E+00 -0.45593999997E+02  0.45594000000E+02  0.51100000000E-03 0.  1.
    9900012    2    1    2    0    0  0.55459701308E+00 -0.67304376009E+00 -0.79522647909E+00  0.90007766590E+02  0.90000028309E+02 0.  0.
         12    1    1    2    0    0 -0.55459701308E+00  0.67304376009E+00  0.79522647909E+00  0.11802334104E+01  0.00000000000E+00 0. -1.
         11    1    3    3    0    0  0.30413280402E+02  0.90463513597E+01 -0.15994766832E+02  0.35533599085E+02  0.51100000000E-03 0. -1.
        -11    1    3    3    0    0 -0.16916952784E+01  0.13703843164E+02 -0.20905450691E+01  0.13965225717E+02  0.51100000000E-03 0.  1.
        -12    1    3    3    0    0 -0.28166988110E+02 -0.23423238283E+02  0.17290085422E+02  0.40508941788E+02  0.00000000000E+00 0.  1.
</event>
<event>
 7    1  0.2284751E-015  0.9000811E+02  0.7816164E-02  0.1186338E+00
        -11   -1    0    0    0    0  0.00000000000E+00  0.00000000000E+00  0.45593999997E+02  0.45594000000E+02  0.51100000000E-03 0.  1.
         11   -1    0    0    0    0 -0.00000000000E+00 -0.00000000000E+00 -0.45593999997E+02  0.45594000000E+02  0.51100000000E-03 0. -1.
    9900012    2    1    2    0    0 -0.85520495274E+00  0.63115638766E+00  0.51226454612E+00  0.90008106419E+02  0.90000372623E+02 0.  0.
         12    1    1    2    0    0  0.85520495274E+00 -0.63115638766E+00 -0.51226454612E+00  0.11798935808E+01  0.00000000000E+00 0. -1.
         11    1    3    3    0    0 -0.67719272379E+00  0.86795200481E+01  0.51438952458E+01  0.10111988766E+02  0.51100000000E-03 0. -1.
        -11    1    3    3    0    0 -0.24033174712E+02  0.21720081270E+02  0.16428371311E+02  0.36321437214E+02  0.51100000000E-03 0.  1.
         12    1    3    3    0    0  0.23855162483E+02 -0.29768444930E+02 -0.21060002011E+02  0.43574680439E+02  0.00000000000E+00 0. -1.
</event>
<event>
 7    1  0.2284751E-015  0.9000772E+02  0.7816164E-02  0.1186339E+00
        -11   -1    0    0    0    0  0.00000000000E+00  0.00000000000E+00  0.45593999997E+02  0.45594000000E+02  0.51100000000E-03 0. -1.
         11   -1    0    0    0    0 -0.00000000000E+00 -0.00000000000E+00 -0.45593999997E+02  0.45594000000E+02  0.51100000000E-03 0.  1.
    9900012    2    1    2    0    0  0.10446330690E+00  0.11694619204E+01 -0.12045897659E+00  0.90007718622E+02  0.89999979708E+02 0.  0.
         12    1    1    2    0    0 -0.10446330690E+00 -0.11694619204E+01  0.12045897659E+00  0.11802813778E+01  0.00000000000E+00 0. -1.
         11    1    3    3    0    0 -0.49935511573E+01  0.79044102685E+01 -0.36767859601E+01  0.10046591965E+02  0.51100000000E-03 0. -1.
        -11    1    3    3    0    0 -0.32198181479E+02 -0.22581918949E+02  0.63631567559E+00  0.39332821560E+02  0.51100000000E-03 0.  1.
         12    1    3    3    0    0  0.37296195943E+02  0.15846970601E+02  0.29200113079E+01  0.40628305097E+02  0.00000000000E+00 0. -1.
</event>
<event>
 7    1  0.2284751E-015  0.9000772E+02  0.7816164E-02  0.1186339E+00
        -11   -1    0    0    0    0  0.00000000000E+00  0.00000000000E+00  0.45593999997E+02  0.45594000000E+02  0.51100000000E-03 0. -1.
         11   -1    0    0    0    0 -0.00000000000E+00 -0.00000000000E+00 -0.45593999997E+02  0.45594000000E+02  0.51100000000E-03 0.  1.
    9900012    2    1    2    0    0 -0.71413718945E+00  0.21854944242E+00 -0.91395629094E+00  0.90007715337E+02  0.89999976379E+02 0.  0.
         12    1    1    2    0    0  0.71413718945E+00 -0.21854944242E+00  0.91395629094E+00  0.11802846631E+01  0.00000000000E+00 0. -1.
         11    1    3    3    0    0 -0.26864899896E+02  0.14082098386E+00 -0.25247536944E+02  0.36867069303E+02  0.51100000000E-03 0. -1.
        -11    1    3    3    0    0 -0.96992470142E+01 -0.31150646336E+01  0.97600463399E+00  0.10233846082E+02  0.51100000000E-03 0.  1.
        -12    1    3    3    0    0  0.35850009720E+02  0.31927930922E+01  0.23357576019E+02  0.42906799953E+02  0.00000000000E+00 0.  1.
</event>
<event>
 7    1  0.2284751E-015  0.9000728E+02  0.7816164E-02  0.1186340E+00
        -11   -1    0    0    0    0  0.00000000000E+00  0.00000000000E+00  0.45593999997E+02  0.45594000000E+02  0.51100000000E-03 0.  1.
         11   -1    0    0    0    0 -0.00000000000E+00 -0.00000000000E+00 -0.45593999997E+02  0.45594000000E+02  0.51100000000E-03 0. -1.
    9900012    2    1    2    0    0 -0.37143740600E+00  0.13536744745E+00  0.11125713433E+01  0.90007277727E+02  0.89999532992E+02 0.  0.
         12    1    1    2    0    0  0.37143740600E+00 -0.13536744745E+00 -0.11125713433E+01  0.11807222732E+01  0.00000000000E+00 0. -1.
         11    1    3    3    0    0 -0.10142106541E+02 -0.13675082637E+02 -0.31396682039E+02  0.35715848773E+02  0.51100000000E-03 0. -1.
        -11    1    3    3    0    0 -0.84213766297E+01 -0.25279433003E+01 -0.45439553870E+01  0.98973538124E+01  0.51100000000E-03 0.  1.
        -12    1    3    3    0    0  0.18192045765E+02  0.16338393385E+02  0.37053208770E+02  0.44394075141E+02  0.00000000000E+00 0.  1.
</event>
<event>
 7    1  0.2409518E-015  0.9000743E+02  0.7816164E-02  0.1186340E+00
        -11   -1    0    0    0    0  0.00000000000E+00  0.00000000000E+00  0.45593999997E+02  0.45594000000E+02  0.51100000000E-03 0. -1.
         11   -1    0    0    0    0 -0.00000000000E+00 -0.00000000000E+00 -0.45593999997E+02  0.45594000000E+02  0.51100000000E-03 0.  1.
    9900012    2    1    2    0    0  0.44419942896E+00  0.51084032025E+00 -0.96719772660E+00  0.90007431320E+02  0.89999688613E+02 0.  0.
         12    1    1    2    0    0 -0.44419942896E+00 -0.51084032025E+00  0.96719772660E+00  0.11805686798E+01  0.00000000000E+00 0. -1.
         11    1    3    3    0    0  0.32062337136E+02 -0.21359566098E+02  0.43508343920E+01  0.38770533743E+02  0.51100000000E-03 0. -1.
        -11    1    3    3    0    0  0.67642974674E+01  0.68205492691E+01 -0.24284302162E+01  0.99082231573E+01  0.51100000000E-03 0.  1.
        -12    1    3    3    0    0 -0.38382435175E+02  0.15049857149E+02 -0.28896019025E+01  0.41328674420E+02  0.00000000000E+00 0.  1.
</event>
<event>
 7    1  0.2284751E-015  0.9000723E+02  0.7816164E-02  0.1186340E+00
        -11   -1    0    0    0    0  0.00000000000E+00  0.00000000000E+00  0.45593999997E+02  0.45594000000E+02  0.51100000000E-03 0.  1.
         11   -1    0    0    0    0 -0.00000000000E+00 -0.00000000000E+00 -0.45593999997E+02  0.45594000000E+02  0.51100000000E-03 0. -1.
    9900012    2    1    2    0    0  0.45638453626E+00 -0.82083442387E+00  0.71566144303E+00  0.90007225975E+02  0.89999480557E+02 0.  0.
         12    1    1    2    0    0 -0.45638453626E+00  0.82083442387E+00 -0.71566144303E+00  0.11807740247E+01  0.00000000000E+00 0. -1.
         11    1    3    3    0    0 -0.77741860386E+00  0.46230387862E+01 -0.92035782774E+01  0.10328732772E+02  0.51100000000E-03 0. -1.
        -11    1    3    3    0    0  0.25754510075E+02 -0.32994306483E+02  0.16933097578E+01  0.41890170061E+02  0.51100000000E-03 0.  1.
         12    1    3    3    0    0 -0.24520706935E+02  0.27550433273E+02  0.82259299626E+01  0.37788323142E+02  0.00000000000E+00 0. -1.
</event>
<event>
 7    1  0.2284751E-015  0.9000742E+02  0.7816164E-02  0.1186340E+00
        -11   -1    0    0    0    0  0.00000000000E+00  0.00000000000E+00  0.45593999997E+02  0.45594000000E+02  0.51100000000E-03 0.  1.
         11   -1    0    0    0    0 -0.00000000000E+00 -0.00000000000E+00 -0.45593999997E+02  0.45594000000E+02  0.51100000000E-03 0. -1.
    9900012    2    1    2    0    0 -0.62107624791E+00 -0.45377272048E+00  0.89561597141E+00  0.90007418213E+02  0.89999675333E+02 0.  0.
         12    1    1    2    0    0  0.62107624791E+00  0.45377272048E+00 -0.89561597141E+00  0.11805817870E+01  0.00000000000E+00 0. -1.
         11    1    3    3    0    0 -0.10899903304E+02  0.76025462328E+00 -0.14065663190E+01  0.11016547018E+02  0.51100000000E-03 0. -1.
        -11    1    3    3    0    0 -0.23068345967E+02  0.22265351524E+02 -0.14110392416E+02  0.35028526068E+02  0.51100000000E-03 0.  1.
         12    1    3    3    0    0  0.33347173023E+02 -0.23479378867E+02  0.16412574706E+02  0.43962345127E+02  0.00000000000E+00 0. -1.
</event>
<event>
 7    1  0.2284751E-015  0.9000769E+02  0.7816164E-02  0.1186339E+00
        -11   -1    0    0    0    0  0.00000000000E+00  0.00000000000E+00  0.45593999997E+02  0.45594000000E+02  0.51100000000E-03 0.  1.
         11   -1    0    0    0    0 -0.00000000000E+00 -0.00000000000E+00 -0.45593999997E+02  0.45594000000E+02  0.51100000000E-03 0. -1.
    9900012    2    1    2    0    0  0.23035523277E-01 -0.11335143070E+01  0.32823371769E+00  0.90007693814E+02  0.89999954572E+02 0.  0.
         12    1    1    2    0    0 -0.23035523277E-01  0.11335143070E+01 -0.32823371769E+00  0.11803061861E+01  0.00000000000E+00 0. -1.
         11    1    3    3    0    0 -0.34181263959E+02 -0.23087431315E+01 -0.19185479146E+02  0.39265400940E+02  0.51100000000E-03 0. -1.
        -11    1    3    3    0    0  0.36977564957E+01 -0.95466188731E+01 -0.37549692170E+01  0.10904637962E+02  0.51100000000E-03 0.  1.
        -12    1    3    3    0    0  0.30506542987E+02  0.10721847697E+02  0.23268682081E+02  0.39837654911E+02  0.00000000000E+00 0.  1.
</event>
<event>
 7    1  0.2284751E-015  0.9000774E+02  0.7816164E-02  0.1186339E+00
        -11   -1    0    0    0    0  0.00000000000E+00  0.00000000000E+00  0.45593999997E+02  0.45594000000E+02  0.51100000000E-03 0.  1.
         11   -1    0    0    0    0 -0.00000000000E+00 -0.00000000000E+00 -0.45593999997E+02  0.45594000000E+02  0.51100000000E-03 0. -1.
    9900012    2    1    2    0    0  0.25519405150E+00 -0.10701009896E+01  0.42753141849E+00  0.90007735942E+02  0.89999997257E+02 0.  0.
         12    1    1    2    0    0 -0.25519405150E+00  0.10701009896E+01 -0.42753141849E+00  0.11802640576E+01  0.00000000000E+00 0. -1.
         11    1    3    3    0    0  0.37914100822E+02  0.11771229547E+02 -0.42367532164E+01  0.39924816396E+02  0.51100000000E-03 0. -1.
        -11    1    3    3    0    0  0.21317663516E+00 -0.10753445753E+02  0.56321716473E+01  0.12140980091E+02  0.51100000000E-03 0.  1.
        -12    1    3    3    0    0 -0.37872083406E+02 -0.20878847838E+01 -0.96788701239E+00  0.37941939455E+02  0.00000000000E+00 0.  1.
</event>
<event>
 7    1  0.2284751E-015  0.9000754E+02  0.7816164E-02  0.1186339E+00
        -11   -1    0    0    0    0  0.00000000000E+00  0.00000000000E+00  0.45593999997E+02  0.45594000000E+02  0.51100000000E-03 0.  1.
         11   -1    0    0    0    0 -0.00000000000E+00 -0.00000000000E+00 -0.45593999997E+02  0.45594000000E+02  0.51100000000E-03 0. -1.
    9900012    2    1    2    0    0  0.56231323117E+00  0.10155283752E+01 -0.21443794548E+00  0.90007543443E+02  0.89999802216E+02 0.  0.
         12    1    1    2    0    0 -0.56231323117E+00 -0.10155283752E+01  0.21443794548E+00  0.11804565571E+01  0.00000000000E+00 0. -1.
         11    1    3    3    0    0  0.35005873690E+02 -0.75324230022E+01 -0.24432899488E+02  0.43348761997E+02  0.51100000000E-03 0. -1.
        -11    1    3    3    0    0 -0.91536655811E+01 -0.45974969714E+00 -0.17241879643E+01  0.93259738233E+01  0.51100000000E-03 0.  1.
        -12    1    3    3    0    0 -0.25289894877E+02  0.90077010746E+01  0.25942649507E+02  0.37332807622E+02  0.00000000000E+00 0.  1.
</event>
<event>
 7    1  0.2284751E-015  0.9000745E+02  0.7816164E-02  0.1186340E+00
        -11   -1    0    0    0    0  0.00000000000E+00  0.00000000000E+00  0.45593999997E+02  0.45594000000E+02  0.51100000000E-03 0.  1.
         11   -1    0    0    0    0 -0.00000000000E+00 -0.00000000000E+00 -0.45593999997E+02  0.45594000000E+02  0.51100000000E-03 0. -1.
    9900012    2    1    2    0    0  0.11516076249E+01 -0.24336960373E+00 -0.90889367665E-01  0.90007453617E+02  0.89999711204E+02 0.  0.
         12    1    1    2    0    0 -0.11516076249E+01  0.24336960373E+00  0.90889367665E-01  0.11805463832E+01  0.00000000000E+00 0. -1.
         11    1    3    3    0    0 -0.80709833864E+01  0.37180032124E+01  0.39608508703E+01  0.97289598925E+01  0.51100000000E-03 0. -1.
        -11    1    3    3    0    0  0.53904119565E+01  0.12188228405E+02  0.35212529384E+02  0.37650121894E+02  0.51100000000E-03 0.  1.
         12    1    3    3    0    0  0.38321790548E+01 -0.16149601222E+02 -0.39264269622E+02  0.42628371830E+02  0.00000000000E+00 0. -1.
</event>
<event>
 7    1  0.2331575E-015  0.9000778E+02  0.7816164E-02  0.1186339E+00
        -11   -1    0    0    0    0  0.00000000000E+00  0.00000000000E+00  0.45593999997E+02  0.45594000000E+02  0.51100000000E-03 0. -1.
         11   -1    0    0    0    0 -0.00000000000E+00 -0.00000000000E+00 -0.45593999997E+02  0.45594000000E+02  0.51100000000E-03 0.  1.
    9900012    2    1    2    0    0 -0.10529032989E+01 -0.73193594110E-01 -0.52817061145E+00  0.90007776778E+02  0.90000038631E+02 0.  0.
         12    1    1    2    0    0  0.10529032989E+01  0.73193594110E-01  0.52817061145E+00  0.11802232221E+01  0.00000000000E+00 0. -1.
         11    1    3    3    0    0  0.76391091663E+01  0.21003940526E+02  0.33479303726E+02  0.40254009548E+02  0.51100000000E-03 0. -1.
        -11    1    3    3    0    0  0.51545904237E+00 -0.93383757709E+01  0.30245616577E+01  0.98294930462E+01  0.51100000000E-03 0.  1.
        -12    1    3    3    0    0 -0.92074715076E+01 -0.11738758349E+02 -0.37032035995E+02  0.39924274184E+02  0.00000000000E+00 0.  1.
</event>
<event>
 7    1  0.2284751E-015  0.9000782E+02  0.7816164E-02  0.1186339E+00
        -11   -1    0    0    0    0  0.00000000000E+00  0.00000000000E+00  0.45593999997E+02  0.45594000000E+02  0.51100000000E-03 0. -1.
         11   -1    0    0    0    0 -0.00000000000E+00 -0.00000000000E+00 -0.45593999997E+02  0.45594000000E+02  0.51100000000E-03 0.  1.
    9900012    2    1    2    0    0 -0.61164003261E+00  0.10105379587E+00  0.10042490759E+01  0.90007817130E+02  0.90000079517E+02 0.  0.
         12    1    1    2    0    0  0.61164003261E+00 -0.10105379587E+00 -0.10042490759E+01  0.11801828695E+01  0.00000000000E+00 0. -1.
         11    1    3    3    0    0  0.20639042925E+01 -0.57375005777E+01 -0.34426741078E+02  0.34962538743E+02  0.51100000000E-03 0. -1.
        -11    1    3    3    0    0 -0.46561223611E+01  0.31930966220E+01 -0.89280007635E+01  0.10563358338E+02  0.51100000000E-03 0.  1.
         12    1    3    3    0    0  0.19805780360E+01  0.26454577517E+01  0.44358990918E+02  0.44481920050E+02  0.00000000000E+00 0. -1.
</event>
<event>
 7    1  0.2284751E-015  0.9000775E+02  0.7816164E-02  0.1186339E+00
        -11   -1    0    0    0    0  0.00000000000E+00  0.00000000000E+00  0.45593999997E+02  0.45594000000E+02  0.51100000000E-03 0. -1.
         11   -1    0    0    0    0 -0.00000000000E+00 -0.00000000000E+00 -0.45593999997E+02  0.45594000000E+02  0.51100000000E-03 0.  1.
    9900012    2    1    2    0    0 -0.33718229384E+00 -0.35198658265E+00 -0.10749020712E+01  0.90007745402E+02  0.90000006841E+02 0.  0.
         12    1    1    2    0    0  0.33718229384E+00  0.35198658265E+00  0.10749020712E+01  0.11802545981E+01  0.00000000000E+00 0. -1.
         11    1    3    3    0    0 -0.16342157045E+01  0.62443271425E+01 -0.27486618522E+01  0.70155131438E+01  0.51100000000E-03 0. -1.
        -11    1    3    3    0    0 -0.13413365110E+02  0.21542506045E+02 -0.29212657477E+02  0.38695959574E+02  0.51100000000E-03 0.  1.
         12    1    3    3    0    0  0.14710398520E+02 -0.28138819770E+02  0.30886417258E+02  0.44296272684E+02  0.00000000000E+00 0. -1.
</event>
<event>
 7    1  0.2284751E-015  0.9000772E+02  0.7816164E-02  0.1186339E+00
        -11   -1    0    0    0    0  0.00000000000E+00  0.00000000000E+00  0.45593999997E+02  0.45594000000E+02  0.51100000000E-03 0. -1.
         11   -1    0    0    0    0 -0.00000000000E+00 -0.00000000000E+00 -0.45593999997E+02  0.45594000000E+02  0.51100000000E-03 0.  1.
    9900012    2    1    2    0    0 -0.10406080273E+01  0.55638234059E+00  0.25415194123E-01  0.90007715158E+02  0.89999976198E+02 0.  0.
         12    1    1    2    0    0  0.10406080273E+01 -0.55638234059E+00 -0.25415194123E-01  0.11802848417E+01  0.00000000000E+00 0. -1.
         11    1    3    3    0    0  0.96778512200E+01 -0.38418363974E+01  0.35154255536E+02  0.36663908598E+02  0.51100000000E-03 0. -1.
        -11    1    3    3    0    0  0.45858856913E+01 -0.10348677035E+02  0.10671926778E+01  0.11369448730E+02  0.51100000000E-03 0.  1.
        -12    1    3    3    0    0 -0.15304344939E+02  0.14746895773E+02 -0.36196033019E+02  0.41974357830E+02  0.00000000000E+00 0.  1.
</event>
<event>
 7    1  0.2284751E-015  0.9000775E+02  0.7816164E-02  0.1186339E+00
        -11   -1    0    0    0    0  0.00000000000E+00  0.00000000000E+00  0.45593999997E+02  0.45594000000E+02  0.51100000000E-03 0. -1.
         11   -1    0    0    0    0 -0.00000000000E+00 -0.00000000000E+00 -0.45593999997E+02  0.45594000000E+02  0.51100000000E-03 0.  1.
    9900012    2    1    2    0    0  0.84419069873E+00  0.73258604784E+00  0.37901659385E+00  0.90007748403E+02  0.90000009882E+02 0.  0.
         12    1    1    2    0    0 -0.84419069873E+00 -0.73258604784E+00 -0.37901659385E+00  0.11802515968E+01  0.00000000000E+00 0. -1.
         11    1    3    3    0    0  0.46073726009E+00  0.52214993010E+01  0.82665145845E+01  0.97883398700E+01  0.51100000000E-03 0. -1.
        -11    1    3    3    0    0  0.81978825445E+01  0.35076606731E+02 -0.15434940775E+02  0.39189424784E+02  0.51100000000E-03 0.  1.
         12    1    3    3    0    0 -0.78144291059E+01 -0.39565519984E+02  0.75474427847E+01  0.41029983749E+02  0.00000000000E+00 0. -1.
</event>
<event>
 7    1  0.2284751E-015  0.9000776E+02  0.7816164E-02  0.1186339E+00
        -11   -1    0    0    0    0  0.00000000000E+00  0.00000000000E+00  0.45593999997E+02  0.45594000000E+02  0.51100000000E-03 0.  1.
         11   -1    0    0    0    0 -0.00000000000E+00 -0.00000000000E+00 -0.45593999997E+02  0.45594000000E+02  0.51100000000E-03 0. -1.
    9900012    2    1    2    0    0  0.86510062652E+00 -0.48312410188E+00  0.64121480763E+00  0.90007760863E+02  0.90000022506E+02 0.  0.
         12    1    1    2    0    0 -0.86510062652E+00  0.48312410188E+00 -0.64121480763E+00  0.11802391374E+01  0.00000000000E+00 0. -1.
         11    1    3    3    0    0 -0.10821132251E+02  0.95963279243E-01  0.14570189090E+02  0.18149284353E+02  0.51100000000E-03 0. -1.
        -11    1    3    3    0    0 -0.17584170323E+02  0.15769128258E+02  0.14658918574E+02  0.27798423444E+02  0.51100000000E-03 0.  1.
         12    1    3    3    0    0  0.29270403201E+02 -0.16348215639E+02 -0.28587892857E+02  0.44060053065E+02  0.00000000000E+00 0. -1.
</event>
<event>
 7    1  0.2284751E-015  0.9000770E+02  0.7816164E-02  0.1186339E+00
        -11   -1    0    0    0    0  0.00000000000E+00  0.00000000000E+00  0.45593999997E+02  0.45594000000E+02  0.51100000000E-03 0. -1.
         11   -1    0    0    0    0 -0.00000000000E+00 -0.00000000000E+00 -0.45593999997E+02  0.45594000000E+02  0.51100000000E-03 0.  1.
    9900012    2    1    2    0    0  0.87578268097E+00  0.63029564892E-01  0.78876111516E+00  0.90007698290E+02  0.89999959107E+02 0.  0.
         12    1    1    2    0    0 -0.87578268097E+00 -0.63029564892E-01 -0.78876111516E+00  0.11803017102E+01  0.00000000000E+00 0. -1.
         11    1    3    3    0    0 -0.24471086859E+01 -0.47224740764E+01 -0.74203272057E+01  0.91296965132E+01  0.51100000000E-03 0. -1.
        -11    1    3    3    0    0  0.26421064819E+02 -0.12625096176E+02 -0.23800931102E+02  0.37735262570E+02  0.51100000000E-03 0.  1.
         12    1    3    3    0    0 -0.23098173452E+02  0.17410599817E+02  0.32010019422E+02  0.43142739207E+02  0.00000000000E+00 0. -1.
</event>
<event>
 7    1  0.2284751E-015  0.9000785E+02  0.7816164E-02  0.1186339E+00
        -11   -1    0    0    0    0  0.00000000000E+00  0.00000000000E+00  0.45593999997E+02  0.45594000000E+02  0.51100000000E-03 0.  1.
         11   -1    0    0    0    0 -0.00000000000E+00 -0.00000000000E+00 -0.45593999997E+02  0.45594000000E+02  0.51100000000E-03 0. -1.
    9900012    2    1    2    0    0  0.87420416597E+00 -0.28537924144E+00  0.73964992904E+00  0.90007849055E+02  0.90000111863E+02 0.  0.
         12    1    1    2    0    0 -0.87420416597E+00  0.28537924144E+00 -0.73964992904E+00  0.11801509449E+01  0.00000000000E+00 0. -1.
         11    1    3    3    0    0  0.57514853151E+00 -0.78346429128E+01  0.36948005055E+01  0.86812427936E+01  0.51100000000E-03 0. -1.
        -11    1    3    3    0    0  0.38023411601E+02 -0.78498412341E+01  0.68310439708E+01  0.39421605740E+02  0.51100000000E-03 0.  1.
         12    1    3    3    0    0 -0.37724355966E+02  0.15399104905E+02 -0.97861945472E+01  0.41905000521E+02  0.00000000000E+00 0. -1.
</event>
<event>
 7    1  0.2284751E-015  0.9000778E+02  0.7816164E-02  0.1186339E+00
        -11   -1    0    0    0    0  0.00000000000E+00  0.00000000000E+00  0.45593999997E+02  0.45594000000E+02  0.51100000000E-03 0.  1.
         11   -1    0    0    0    0 -0.00000000000E+00 -0.00000000000E+00 -0.45593999997E+02  0.45594000000E+02  0.51100000000E-03 0. -1.
    9900012    2    1    2    0    0  0.35351989433E+00 -0.10729524663E+01  0.34164170404E+00  0.90007778680E+02  0.90000040558E+02 0.  0.
         12    1    1    2    0    0 -0.35351989433E+00  0.10729524663E+01 -0.34164170404E+00  0.11802213202E+01  0.00000000000E+00 0. -1.
         11    1    3    3    0    0  0.79437201522E+01 -0.11166488855E+00 -0.49412215529E+01  0.93557912333E+01  0.51100000000E-03 0. -1.
        -11    1    3    3    0    0 -0.12636191602E+02  0.35402532994E+02 -0.12823949113E+02  0.39717330621E+02  0.51100000000E-03 0.  1.
         12    1    3    3    0    0  0.50459913440E+01 -0.36363820572E+02  0.18106812370E+02  0.40934656825E+02  0.00000000000E+00 0. -1.
</event>
<event>
 7    1  0.2284751E-015  0.9000738E+02  0.7816164E-02  0.1186340E+00
        -11   -1    0    0    0    0  0.00000000000E+00  0.00000000000E+00  0.45593999997E+02  0.45594000000E+02  0.51100000000E-03 0. -1.
         11   -1    0    0    0    0 -0.00000000000E+00 -0.00000000000E+00 -0.45593999997E+02  0.45594000000E+02  0.51100000000E-03 0.  1.
    9900012    2    1    2    0    0 -0.71111388391E+00  0.24017347884E+00 -0.91131740271E+00  0.90007379119E+02  0.89999635723E+02 0.  0.
         12    1    1    2    0    0  0.71111388391E+00 -0.24017347884E+00  0.91131740271E+00  0.11806208809E+01  0.00000000000E+00 0. -1.
         11    1    3    3    0    0  0.31510201650E+00  0.99593624546E+01 -0.12269748076E+01  0.10039604436E+02  0.51100000000E-03 0. -1.
        -11    1    3    3    0    0 -0.22396438112E+02  0.12347464753E+02 -0.28188951850E+02  0.38061494093E+02  0.51100000000E-03 0.  1.
         12    1    3    3    0    0  0.21370222212E+02 -0.22066653729E+02  0.28504609255E+02  0.41906280591E+02  0.00000000000E+00 0. -1.
</event>
<event>
 7    1  0.2284751E-015  0.9000772E+02  0.7816164E-02  0.1186339E+00
        -11   -1    0    0    0    0  0.00000000000E+00  0.00000000000E+00  0.45593999997E+02  0.45594000000E+02  0.51100000000E-03 0.  1.
         11   -1    0    0    0    0 -0.00000000000E+00 -0.00000000000E+00 -0.45593999997E+02  0.45594000000E+02  0.51100000000E-03 0. -1.
    9900012    2    1    2    0    0 -0.66884217365E+00  0.27077079719E+00  0.93402664827E+00  0.90007715095E+02  0.89999976134E+02 0.  0.
         12    1    1    2    0    0  0.66884217365E+00 -0.27077079719E+00 -0.93402664827E+00  0.11802849052E+01  0.00000000000E+00 0. -1.
         11    1    3    3    0    0  0.27116360622E+02 -0.22092580850E+02 -0.23703568812E+01  0.35057063967E+02  0.51100000000E-03 0. -1.
        -11    1    3    3    0    0  0.22206653850E+01 -0.98268015357E+01 -0.29605790580E+01  0.10500591021E+02  0.51100000000E-03 0.  1.
        -12    1    3    3    0    0 -0.30005868181E+02  0.32190153183E+02  0.62649625875E+01  0.44450060106E+02  0.00000000000E+00 0.  1.
</event>
<event>
 7    1  0.2284751E-015  0.9000774E+02  0.7816164E-02  0.1186339E+00
        -11   -1    0    0    0    0  0.00000000000E+00  0.00000000000E+00  0.45593999997E+02  0.45594000000E+02  0.51100000000E-03 0.  1.
         11   -1    0    0    0    0 -0.00000000000E+00 -0.00000000000E+00 -0.45593999997E+02  0.45594000000E+02  0.51100000000E-03 0. -1.
    9900012    2    1    2    0    0  0.64463896373E+00 -0.48987734337E+00 -0.85876274141E+00  0.90007740431E+02  0.90000001804E+02 0.  0.
         12    1    1    2    0    0 -0.64463896373E+00  0.48987734337E+00  0.85876274141E+00  0.11802595694E+01  0.00000000000E+00 0. -1.
         11    1    3    3    0    0 -0.51416335637E+01  0.45560185144E+01  0.60312427186E+01  0.91416404108E+01  0.51100000000E-03 0. -1.
        -11    1    3    3    0    0  0.42560320478E+02  0.18938936555E+01 -0.83563682692E+01  0.43414244244E+02  0.51100000000E-03 0.  1.
         12    1    3    3    0    0 -0.36774047951E+02 -0.69397895134E+01  0.14663628091E+01  0.37451855776E+02  0.00000000000E+00 0. -1.
</event>
<event>
 7    1  0.2284751E-015  0.9000760E+02  0.7816164E-02  0.1186339E+00
        -11   -1    0    0    0    0  0.00000000000E+00  0.00000000000E+00  0.45593999997E+02  0.45594000000E+02  0.51100000000E-03 0.  1.
         11   -1    0    0    0    0 -0.00000000000E+00 -0.00000000000E+00 -0.45593999997E+02  0.45594000000E+02  0.51100000000E-03 0. -1.
    9900012    2    1    2    0    0 -0.10926027673E+01 -0.27699630314E+00  0.35048893191E+00  0.90007597420E+02  0.89999856906E+02 0.  0.
         12    1    1    2    0    0  0.10926027673E+01  0.27699630314E+00 -0.35048893191E+00  0.11804025798E+01  0.00000000000E+00 0. -1.
         11    1    3    3    0    0  0.32820295385E+01 -0.35289914813E+01 -0.11088354701E+02  0.12090372575E+02  0.51100000000E-03 0. -1.
        -11    1    3    3    0    0  0.15389990770E+02 -0.32601815920E+02  0.35795367917E+01  0.36229039472E+02  0.51100000000E-03 0.  1.
         12    1    3    3    0    0 -0.19764623076E+02  0.35853811098E+02  0.78593068417E+01  0.41688185372E+02  0.00000000000E+00 0. -1.
</event>
<event>
 7    1  0.2284751E-015  0.9000774E+02  0.7816164E-02  0.1186339E+00
        -11   -1    0    0    0    0  0.00000000000E+00  0.00000000000E+00  0.45593999997E+02  0.45594000000E+02  0.51100000000E-03 0.  1.
         11   -1    0    0    0    0 -0.00000000000E+00 -0.00000000000E+00 -0.45593999997E+02  0.45594000000E+02  0.51100000000E-03 0. -1.
    9900012    2    1    2    0    0 -0.91835940725E+00 -0.76614156304E-01  0.73740083846E+00  0.90007739975E+02  0.90000001343E+02 0.  0.
         12    1    1    2    0    0  0.91835940725E+00  0.76614156304E-01 -0.73740083846E+00  0.11802600249E+01  0.00000000000E+00 0. -1.
         11    1    3    3    0    0 -0.94690688889E+01  0.29809159968E+01  0.37040501730E+01  0.10595712045E+02  0.51100000000E-03 0. -1.
        -11    1    3    3    0    0  0.94691648910E+01 -0.15344516781E+00  0.37578068792E+02  0.38753062893E+02  0.51100000000E-03 0.  1.
         12    1    3    3    0    0 -0.91845540936E+00 -0.29040849853E+01 -0.40544718127E+02  0.40658965037E+02  0.00000000000E+00 0. -1.
</event>
<event>
 7    1  0.2284751E-015  0.9000771E+02  0.7816164E-02  0.1186339E+00
        -11   -1    0    0    0    0  0.00000000000E+00  0.00000000000E+00  0.45593999997E+02  0.45594000000E+02  0.51100000000E-03 0.  1.
         11   -1    0    0    0    0 -0.00000000000E+00 -0.00000000000E+00 -0.45593999997E+02  0.45594000000E+02  0.51100000000E-03 0. -1.
    9900012    2    1    2    0    0 -0.81621914527E+00  0.60811885812E+00 -0.59754599931E+00  0.90007710434E+02  0.89999971412E+02 0.  0.
         12    1    1    2    0    0  0.81621914527E+00 -0.60811885812E+00  0.59754599931E+00  0.11802895662E+01  0.00000000000E+00 0. -1.
         11    1    3    3    0    0 -0.17783596941E+01 -0.27998406624E+01 -0.89578442712E+01  0.95522062993E+01  0.51100000000E-03 0. -1.
        -11    1    3    3    0    0  0.88773211301E+01  0.39341938916E+02 -0.63512720432E+01  0.40828098719E+02  0.51100000000E-03 0.  1.
         12    1    3    3    0    0 -0.79151805812E+01 -0.35933979396E+02  0.14711570315E+02  0.39627405416E+02  0.00000000000E+00 0. -1.
</event>
<event>
 7    1  0.2284751E-015  0.9000785E+02  0.7816164E-02  0.1186339E+00
        -11   -1    0    0    0    0  0.00000000000E+00  0.00000000000E+00  0.45593999997E+02  0.45594000000E+02  0.51100000000E-03 0. -1.
         11   -1    0    0    0    0 -0.00000000000E+00 -0.00000000000E+00 -0.45593999997E+02  0.45594000000E+02  0.51100000000E-03 0.  1.
    9900012    2    1    2    0    0 -0.25773744928E+00 -0.99146602660E+00 -0.58594369327E+00  0.90007845990E+02  0.90000108757E+02 0.  0.
         12    1    1    2    0    0  0.25773744928E+00  0.99146602660E+00  0.58594369327E+00  0.11801540096E+01  0.00000000000E+00 0. -1.
         11    1    3    3    0    0  0.33961250455E+01  0.52131830721E+01  0.48747594780E+01  0.79040637205E+01  0.51100000000E-03 0. -1.
        -11    1    3    3    0    0  0.34138414607E+02  0.15378578382E+01 -0.21446720484E+02  0.40345485229E+02  0.51100000000E-03 0.  1.
         12    1    3    3    0    0 -0.37792277102E+02 -0.77425069369E+01  0.15986017313E+02  0.41758297041E+02  0.00000000000E+00 0. -1.
</event>
<event>
 7    1  0.2284751E-015  0.9000778E+02  0.7816164E-02  0.1186339E+00
        -11   -1    0    0    0    0  0.00000000000E+00  0.00000000000E+00  0.45593999997E+02  0.45594000000E+02  0.51100000000E-03 0.  1.
         11   -1    0    0    0    0 -0.00000000000E+00 -0.00000000000E+00 -0.45593999997E+02  0.45594000000E+02  0.51100000000E-03 0. -1.
    9900012    2    1    2    0    0 -0.19817396941E+00 -0.10557907831E+01  0.48883027361E+00  0.90007778777E+02  0.90000040656E+02 0.  0.
         12    1    1    2    0    0  0.19817396941E+00  0.10557907831E+01 -0.48883027361E+00  0.11802212234E+01  0.00000000000E+00 0. -1.
         11    1    3    3    0    0  0.17343750181E+02  0.76765823087E+01 -0.29854956379E+02  0.35370241828E+02  0.51100000000E-03 0. -1.
        -11    1    3    3    0    0 -0.10755930612E+02 -0.25165199029E+02  0.15337657783E+02  0.31372297207E+02  0.51100000000E-03 0.  1.
        -12    1    3    3    0    0 -0.67859935382E+01  0.16432825938E+02  0.15006128869E+02  0.23265239742E+02  0.00000000000E+00 0.  1.
</event>
<event>
 7    1  0.2284751E-015  0.9000773E+02  0.7816164E-02  0.1186339E+00
        -11   -1    0    0    0    0  0.00000000000E+00  0.00000000000E+00  0.45593999997E+02  0.45594000000E+02  0.51100000000E-03 0.  1.
         11   -1    0    0    0    0 -0.00000000000E+00 -0.00000000000E+00 -0.45593999997E+02  0.45594000000E+02  0.51100000000E-03 0. -1.
    9900012    2    1    2    0    0  0.10953785977E+01 -0.15660710068E+00  0.41067814107E+00  0.90007730289E+02  0.89999991528E+02 0.  0.
         12    1    1    2    0    0 -0.10953785977E+01  0.15660710068E+00 -0.41067814107E+00  0.11802697115E+01  0.00000000000E+00 0. -1.
         11    1    3    3    0    0  0.13465566627E+02  0.31424230283E+02 -0.38670509556E+01  0.34405781736E+02  0.51100000000E-03 0. -1.
        -11    1    3    3    0    0  0.15636285628E+02 -0.15633016203E+02 -0.36560878549E+01  0.22410970584E+02  0.51100000000E-03 0.  1.
        -12    1    3    3    0    0 -0.28006473657E+02 -0.15947821181E+02  0.79338169516E+01  0.33190977969E+02  0.00000000000E+00 0.  1.
</event>
<event>
 7    1  0.2284751E-015  0.9000775E+02  0.7816164E-02  0.1186339E+00
        -11   -1    0    0    0    0  0.00000000000E+00  0.00000000000E+00  0.45593999997E+02  0.45594000000E+02  0.51100000000E-03 0. -1.
         11   -1    0    0    0    0 -0.00000000000E+00 -0.00000000000E+00 -0.45593999997E+02  0.45594000000E+02  0.51100000000E-03 0.  1.
    9900012    2    1    2    0    0  0.18845939886E+00 -0.10688711713E+00 -0.11601939041E+01  0.90007749308E+02  0.90000010799E+02 0.  0.
         12    1    1    2    0    0 -0.18845939886E+00  0.10688711713E+00  0.11601939041E+01  0.11802506920E+01  0.00000000000E+00 0. -1.
         11    1    3    3    0    0  0.19296705128E+01 -0.69209448822E+01 -0.68972598773E+01  0.99596837513E+01  0.51100000000E-03 0. -1.
        -11    1    3    3    0    0  0.38393567405E+02  0.84413141378E+01  0.66544791426E+01  0.39869836912E+02  0.51100000000E-03 0.  1.
         12    1    3    3    0    0 -0.40134778519E+02 -0.16272563728E+01 -0.91741316951E+00  0.40178228645E+02  0.00000000000E+00 0. -1.
</event>
<event>
 7    1  0.2284751E-015  0.9000778E+02  0.7816164E-02  0.1186339E+00
        -11   -1    0    0    0    0  0.00000000000E+00  0.00000000000E+00  0.45593999997E+02  0.45594000000E+02  0.51100000000E-03 0.  1.
         11   -1    0    0    0    0 -0.00000000000E+00 -0.00000000000E+00 -0.45593999997E+02  0.45594000000E+02  0.51100000000E-03 0. -1.
    9900012    2    1    2    0    0 -0.10152626122E+01  0.55231764639E+00  0.23896878470E+00  0.90007780091E+02  0.90000041988E+02 0.  0.
         12    1    1    2    0    0  0.10152626122E+01 -0.55231764639E+00 -0.23896878470E+00  0.11802199093E+01  0.00000000000E+00 0. -1.
         11    1    3    3    0    0  0.98152002594E+01  0.42419301826E+02 -0.71820803158E+01  0.44128421697E+02  0.51100000000E-03 0. -1.
        -11    1    3    3    0    0 -0.62268290383E+00 -0.19687658804E+01  0.40651564795E+01  0.45595252554E+01  0.51100000000E-03 0.  1.
        -12    1    3    3    0    0 -0.10207779968E+02 -0.39898218299E+02  0.33558926210E+01  0.41319833139E+02  0.00000000000E+00 0.  1.
</event>
<event>
 7    1  0.2284751E-015  0.9000791E+02  0.7816164E-02  0.1186339E+00
        -11   -1    0    0    0    0  0.00000000000E+00  0.00000000000E+00  0.45593999997E+02  0.45594000000E+02  0.51100000000E-03 0.  1.
         11   -1    0    0    0    0 -0.00000000000E+00 -0.00000000000E+00 -0.45593999997E+02  0.45594000000E+02  0.51100000000E-03 0. -1.
    9900012    2    1    2    0    0  0.65890566542E+00 -0.92655876077E+00 -0.31612976429E+00  0.90007912782E+02  0.90000176431E+02 0.  0.
         12    1    1    2    0    0 -0.65890566542E+00  0.92655876077E+00  0.31612976429E+00  0.11800872175E+01  0.00000000000E+00 0. -1.
         11    1    3    3    0    0 -0.14814578852E+02  0.10399101504E+02 -0.32662884082E+02  0.37342697485E+02  0.51100000000E-03 0. -1.
        -11    1    3    3    0    0 -0.12119569328E+00  0.76985460337E+01 -0.40774747849E+01  0.87125254841E+01  0.51100000000E-03 0.  1.
        -12    1    3    3    0    0  0.15594680210E+02 -0.19024206299E+02  0.36424229102E+02  0.43952689814E+02  0.00000000000E+00 0.  1.
</event>
<event>
 7    1  0.2284751E-015  0.9000769E+02  0.7816164E-02  0.1186339E+00
        -11   -1    0    0    0    0  0.00000000000E+00  0.00000000000E+00  0.45593999997E+02  0.45594000000E+02  0.51100000000E-03 0.  1.
         11   -1    0    0    0    0 -0.00000000000E+00 -0.00000000000E+00 -0.45593999997E+02  0.45594000000E+02  0.51100000000E-03 0. -1.
    9900012    2    1    2    0    0 -0.25041738932E+00  0.50221203280E+00  0.10383634196E+01  0.90007693097E+02  0.89999953846E+02 0.  0.
         12    1    1    2    0    0  0.25041738932E+00 -0.50221203280E+00 -0.10383634196E+01  0.11803069033E+01  0.00000000000E+00 0. -1.
         11    1    3    3    0    0  0.46817817593E+01  0.15873874809E+02 -0.30633449022E+02  0.34818201866E+02  0.51100000000E-03 0. -1.
        -11    1    3    3    0    0 -0.41013577660E+01 -0.13154830939E+00 -0.10000727700E+02  0.10809856395E+02  0.51100000000E-03 0.  1.
        -12    1    3    3    0    0 -0.83084138267E+00 -0.15240114467E+02  0.41672540142E+02  0.44379634837E+02  0.00000000000E+00 0.  1.
</event>
<event>
 7    1  0.2284751E-015  0.9000778E+02  0.7816164E-02  0.1186339E+00
        -11   -1    0    0    0    0  0.00000000000E+00  0.00000000000E+00  0.45593999997E+02  0.45594000000E+02  0.51100000000E-03 0.  1.
         11   -1    0    0    0    0 -0.00000000000E+00 -0.00000000000E+00 -0.45593999997E+02  0.45594000000E+02  0.51100000000E-03 0. -1.
    9900012    2    1    2    0    0 -0.87846958331E+00  0.48447671517E+00  0.62168028931E+00  0.90007782699E+02  0.90000044630E+02 0.  0.
         12    1    1    2    0    0  0.87846958331E+00 -0.48447671517E+00 -0.62168028931E+00  0.11802173014E+01  0.00000000000E+00 0. -1.
         11    1    3    3    0    0 -0.30755065952E+02  0.59427566110E+01  0.17349034422E+02  0.35807533195E+02  0.51100000000E-03 0. -1.
        -11    1    3    3    0    0 -0.54918118534E+01 -0.31121625392E+01  0.85764573598E+01  0.10648998742E+02  0.51100000000E-03 0.  1.
        -12    1    3    3    0    0  0.35368408222E+02 -0.23461173567E+01 -0.25303811493E+02  0.43551250762E+02  0.00000000000E+00 0.  1.
</event>
<event>
 7    1  0.2284751E-015  0.9000748E+02  0.7816164E-02  0.1186340E+00
        -11   -1    0    0    0    0  0.00000000000E+00  0.00000000000E+00  0.45593999997E+02  0.45594000000E+02  0.51100000000E-03 0.  1.
         11   -1    0    0    0    0 -0.00000000000E+00 -0.00000000000E+00 -0.45593999997E+02  0.45594000000E+02  0.51100000000E-03 0. -1.
    9900012    2    1    2    0    0  0.72183461876E-01  0.39460231279E+00  0.11102697752E+01  0.90007482990E+02  0.89999740965E+02 0.  0.
         12    1    1    2    0    0 -0.72183461876E-01 -0.39460231279E+00 -0.11102697752E+01  0.11805170101E+01  0.00000000000E+00 0. -1.
         11    1    3    3    0    0  0.91598366951E+01  0.38761515483E+02 -0.54384535157E+01  0.40198687388E+02  0.51100000000E-03 0. -1.
        -11    1    3    3    0    0  0.70246278354E+01 -0.22842918204E+01  0.71602148709E+01  0.10287471147E+02  0.51100000000E-03 0.  1.
        -12    1    3    3    0    0 -0.16112281069E+02 -0.36082621350E+02 -0.61149158004E+00  0.39521324455E+02  0.00000000000E+00 0.  1.
</event>
<event>
 7    1  0.2284751E-015  0.9000778E+02  0.7816164E-02  0.1186339E+00
        -11   -1    0    0    0    0  0.00000000000E+00  0.00000000000E+00  0.45593999997E+02  0.45594000000E+02  0.51100000000E-03 0.  1.
         11   -1    0    0    0    0 -0.00000000000E+00 -0.00000000000E+00 -0.45593999997E+02  0.45594000000E+02  0.51100000000E-03 0. -1.
    9900012    2    1    2    0    0  0.46799413670E+00  0.10692444982E+01  0.17499678581E+00  0.90007777062E+02  0.90000038919E+02 0.  0.
         12    1    1    2    0    0 -0.46799413670E+00 -0.10692444982E+01 -0.17499678581E+00  0.11802229382E+01  0.00000000000E+00 0. -1.
         11    1    3    3    0    0  0.25320912928E+02  0.25441343954E+02 -0.17230018968E+02  0.39815627178E+02  0.51100000000E-03 0. -1.
        -11    1    3    3    0    0  0.66624862801E+01 -0.68512005105E+00  0.63920380036E+01  0.92583077837E+01  0.51100000000E-03 0.  1.
        -12    1    3    3    0    0 -0.31515405072E+02 -0.23686979404E+02  0.11012977750E+02  0.40933842100E+02  0.00000000000E+00 0.  1.
</event>
<event>
 7    1  0.2284751E-015  0.9000787E+02  0.7816164E-02  0.1186339E+00
        -11   -1    0    0    0    0  0.00000000000E+00  0.00000000000E+00  0.45593999997E+02  0.45594000000E+02  0.51100000000E-03 0. -1.
         11   -1    0    0    0    0 -0.00000000000E+00 -0.00000000000E+00 -0.45593999997E+02  0.45594000000E+02  0.51100000000E-03 0.  1.
    9900012    2    1    2    0    0  0.91343628852E+00 -0.48080270700E+00  0.57199060458E+00  0.90007868504E+02  0.90000131568E+02 0.  0.
         12    1    1    2    0    0 -0.91343628852E+00  0.48080270700E+00 -0.57199060458E+00  0.11801314961E+01  0.00000000000E+00 0. -1.
         11    1    3    3    0    0 -0.26588185622E+02  0.14181546068E+02 -0.30464829952E+02  0.42850364383E+02  0.51100000000E-03 0. -1.
        -11    1    3    3    0    0  0.25573115975E+01 -0.82644612348E+01  0.31689846487E+01  0.92132310333E+01  0.51100000000E-03 0.  1.
        -12    1    3    3    0    0  0.24944310313E+02 -0.63978875403E+01  0.27867835907E+02  0.37944273087E+02  0.00000000000E+00 0.  1.
</event>
<event>
 7    1  0.2284751E-015  0.9000774E+02  0.7816164E-02  0.1186339E+00
        -11   -1    0    0    0    0  0.00000000000E+00  0.00000000000E+00  0.45593999997E+02  0.45594000000E+02  0.51100000000E-03 0. -1.
         11   -1    0    0    0    0 -0.00000000000E+00 -0.00000000000E+00 -0.45593999997E+02  0.45594000000E+02  0.51100000000E-03 0.  1.
    9900012    2    1    2    0    0 -0.95513257246E-01  0.84240965617E+00 -0.82112358445E+00  0.90007736999E+02  0.89999998327E+02 0.  0.
         12    1    1    2    0    0  0.95513257246E-01 -0.84240965617E+00  0.82112358445E+00  0.11802630012E+01  0.00000000000E+00 0. -1.
         11    1    3    3    0    0  0.25134690495E+02  0.13891925111E+02 -0.11459609308E+02  0.30920234400E+02  0.51100000000E-03 0. -1.
        -11    1    3    3    0    0 -0.28561389326E+01  0.17469046207E+02 -0.46064754091E+01  0.18290563713E+02  0.51100000000E-03 0.  1.
        -12    1    3    3    0    0 -0.22374064820E+02 -0.30518561662E+02  0.15244961133E+02  0.40796938886E+02  0.00000000000E+00 0.  1.
</event>
<event>
 7    1  0.2284751E-015  0.9000775E+02  0.7816164E-02  0.1186339E+00
        -11   -1    0    0    0    0  0.00000000000E+00  0.00000000000E+00  0.45593999997E+02  0.45594000000E+02  0.51100000000E-03 0. -1.
         11   -1    0    0    0    0 -0.00000000000E+00 -0.00000000000E+00 -0.45593999997E+02  0.45594000000E+02  0.51100000000E-03 0.  1.
    9900012    2    1    2    0    0  0.10925273279E+01 -0.24657449432E+00 -0.37224711340E+00  0.90007753053E+02  0.90000014593E+02 0.  0.
         12    1    1    2    0    0 -0.10925273279E+01  0.24657449432E+00  0.37224711340E+00  0.11802469475E+01  0.00000000000E+00 0. -1.
         11    1    3    3    0    0 -0.35524344132E+02  0.77163257398E+01 -0.13878743794E+02  0.38911954956E+02  0.51100000000E-03 0. -1.
        -11    1    3    3    0    0  0.12280790911E+01 -0.83241871253E+01 -0.63259904214E+01  0.10527033040E+02  0.51100000000E-03 0.  1.
        -12    1    3    3    0    0  0.35388792369E+02  0.36128689114E+00  0.19832487102E+02  0.40568765057E+02  0.00000000000E+00 0.  1.
</event>
<event>
 7    1  0.2284751E-015  0.9000771E+02  0.7816164E-02  0.1186339E+00
        -11   -1    0    0    0    0  0.00000000000E+00  0.00000000000E+00  0.45593999997E+02  0.45594000000E+02  0.51100000000E-03 0.  1.
         11   -1    0    0    0    0 -0.00000000000E+00 -0.00000000000E+00 -0.45593999997E+02  0.45594000000E+02  0.51100000000E-03 0. -1.
    9900012    2    1    2    0    0  0.23063359391E+00  0.11567346076E+01  0.43176658860E-01  0.90007707227E+02  0.89999968162E+02 0.  0.
         12    1    1    2    0    0 -0.23063359391E+00 -0.11567346076E+01 -0.43176658860E-01  0.11802927734E+01  0.00000000000E+00 0. -1.
         11    1    3    3    0    0 -0.30204009011E+02 -0.97512187610E+01  0.16750029936E+02  0.35887768540E+02  0.51100000000E-03 0. -1.
        -11    1    3    3    0    0 -0.90163063333E+01 -0.32171901959E+01 -0.31602952055E+01  0.10081247874E+02  0.51100000000E-03 0.  1.
        -12    1    3    3    0    0  0.39450948938E+02  0.14125143564E+02 -0.13546558072E+02  0.44038690812E+02  0.00000000000E+00 0.  1.
</event>
<event>
 7    1  0.2284751E-015  0.9000732E+02  0.7816164E-02  0.1186340E+00
        -11   -1    0    0    0    0  0.00000000000E+00  0.00000000000E+00  0.45593999997E+02  0.45594000000E+02  0.51100000000E-03 0.  1.
         11   -1    0    0    0    0 -0.00000000000E+00 -0.00000000000E+00 -0.45593999997E+02  0.45594000000E+02  0.51100000000E-03 0. -1.
    9900012    2    1    2    0    0  0.88688384485E-01 -0.10749910441E+01 -0.48014287140E+00  0.90007318607E+02  0.89999574412E+02 0.  0.
         12    1    1    2    0    0 -0.88688384485E-01  0.10749910441E+01  0.48014287140E+00  0.11806813929E+01  0.00000000000E+00 0. -1.
         11    1    3    3    0    0 -0.59902546092E+01  0.53725858951E+01 -0.58362580375E+01  0.99403087288E+01  0.51100000000E-03 0. -1.
        -11    1    3    3    0    0 -0.25963725703E+02  0.19239914633E+02  0.18135642782E+02  0.37056590599E+02  0.51100000000E-03 0.  1.
         12    1    3    3    0    0  0.32042668697E+02 -0.25687491572E+02 -0.12779527616E+02  0.43010419279E+02  0.00000000000E+00 0. -1.
</event>
<event>
 7    1  0.2284751E-015  0.9000779E+02  0.7816164E-02  0.1186339E+00
        -11   -1    0    0    0    0  0.00000000000E+00  0.00000000000E+00  0.45593999997E+02  0.45594000000E+02  0.51100000000E-03 0.  1.
         11   -1    0    0    0    0 -0.00000000000E+00 -0.00000000000E+00 -0.45593999997E+02  0.45594000000E+02  0.51100000000E-03 0. -1.
    9900012    2    1    2    0    0 -0.45096669205E+00 -0.10723754337E+01 -0.19880610065E+00  0.90007794978E+02  0.90000057072E+02 0.  0.
         12    1    1    2    0    0  0.45096669205E+00  0.10723754337E+01  0.19880610065E+00  0.11802050220E+01  0.00000000000E+00 0. -1.
         11    1    3    3    0    0  0.22238506218E+01  0.36128992037E+01 -0.95037260106E+01  0.10407658747E+02  0.51100000000E-03 0. -1.
        -11    1    3    3    0    0 -0.26859174494E+02  0.18994577518E+02  0.25932761715E+02  0.41889346617E+02  0.51100000000E-03 0.  1.
         12    1    3    3    0    0  0.24184357180E+02 -0.23679852155E+02 -0.16627841805E+02  0.37710789615E+02  0.00000000000E+00 0. -1.
</event>
<event>
 7    1  0.2284751E-015  0.9000770E+02  0.7816164E-02  0.1186339E+00
        -11   -1    0    0    0    0  0.00000000000E+00  0.00000000000E+00  0.45593999997E+02  0.45594000000E+02  0.51100000000E-03 0.  1.
         11   -1    0    0    0    0 -0.00000000000E+00 -0.00000000000E+00 -0.45593999997E+02  0.45594000000E+02  0.51100000000E-03 0. -1.
    9900012    2    1    2    0    0  0.59921838734E+00 -0.68379185548E+00  0.75264536447E+00  0.90007699605E+02  0.89999960440E+02 0.  0.
         12    1    1    2    0    0 -0.59921838734E+00  0.68379185548E+00 -0.75264536447E+00  0.11803003948E+01  0.00000000000E+00 0. -1.
         11    1    3    3    0    0 -0.41350717543E+00  0.25953219446E+02 -0.14406151962E+02  0.29686323491E+02  0.51100000000E-03 0. -1.
        -11    1    3    3    0    0  0.22339260485E+02  0.21911612819E+01  0.73758562875E+01  0.23627251279E+02  0.51100000000E-03 0.  1.
        -12    1    3    3    0    0 -0.21326534922E+02 -0.28828172583E+02  0.77829410386E+01  0.36694124836E+02  0.00000000000E+00 0.  1.
</event>
<event>
 7    1  0.2284751E-015  0.9000780E+02  0.7816164E-02  0.1186339E+00
        -11   -1    0    0    0    0  0.00000000000E+00  0.00000000000E+00  0.45593999997E+02  0.45594000000E+02  0.51100000000E-03 0.  1.
         11   -1    0    0    0    0 -0.00000000000E+00 -0.00000000000E+00 -0.45593999997E+02  0.45594000000E+02  0.51100000000E-03 0. -1.
    9900012    2    1    2    0    0  0.14519117734E+00  0.63488348252E+00  0.98422934224E+00  0.90007803020E+02  0.90000065219E+02 0.  0.
         12    1    1    2    0    0 -0.14519117734E+00 -0.63488348252E+00 -0.98422934224E+00  0.11801969804E+01  0.00000000000E+00 0. -1.
         11    1    3    3    0    0  0.22346531127E+00 -0.45703153134E+01 -0.81681682800E+01  0.93625152667E+01  0.51100000000E-03 0. -1.
        -11    1    3    3    0    0  0.12291108639E+02  0.37638900120E+02 -0.10220648517E+02  0.40892784329E+02  0.51100000000E-03 0.  1.
         12    1    3    3    0    0 -0.12369382773E+02 -0.32433701324E+02  0.19373046139E+02  0.39752503424E+02  0.00000000000E+00 0. -1.
</event>
<event>
 7    1  0.2284751E-015  0.9000769E+02  0.7816164E-02  0.1186339E+00
        -11   -1    0    0    0    0  0.00000000000E+00  0.00000000000E+00  0.45593999997E+02  0.45594000000E+02  0.51100000000E-03 0. -1.
         11   -1    0    0    0    0 -0.00000000000E+00 -0.00000000000E+00 -0.45593999997E+02  0.45594000000E+02  0.51100000000E-03 0.  1.
    9900012    2    1    2    0    0 -0.71611600195E-01  0.71907457832E-01 -0.11759378574E+01  0.90007691249E+02  0.89999951973E+02 0.  0.
         12    1    1    2    0    0  0.71611600195E-01 -0.71907457832E-01  0.11759378574E+01  0.11803087512E+01  0.00000000000E+00 0. -1.
         11    1    3    3    0    0  0.75715121150E+01 -0.25240098567E+01  0.11859266676E+02  0.14294776242E+02  0.51100000000E-03 0. -1.
        -11    1    3    3    0    0  0.18049079461E+02 -0.25018926431E+02 -0.20795725442E+02  0.37204544697E+02  0.51100000000E-03 0.  1.
         12    1    3    3    0    0 -0.25692203176E+02  0.27614843745E+02  0.77605209088E+01  0.38508370310E+02  0.00000000000E+00 0. -1.
</event>
<event>
 7    1  0.2284751E-015  0.9000776E+02  0.7816164E-02  0.1186339E+00
        -11   -1    0    0    0    0  0.00000000000E+00  0.00000000000E+00  0.45593999997E+02  0.45594000000E+02  0.51100000000E-03 0.  1.
         11   -1    0    0    0    0 -0.00000000000E+00 -0.00000000000E+00 -0.45593999997E+02  0.45594000000E+02  0.51100000000E-03 0. -1.
    9900012    2    1    2    0    0 -0.11008237777E+01 -0.29495671055E+00  0.30684094571E+00  0.90007761119E+02  0.90000022766E+02 0.  0.
         12    1    1    2    0    0  0.11008237777E+01  0.29495671055E+00 -0.30684094571E+00  0.11802388812E+01  0.00000000000E+00 0. -1.
         11    1    3    3    0    0  0.90324024761E+00  0.12904280983E+02  0.68118449864E+01  0.14619765491E+02  0.51100000000E-03 0. -1.
        -11    1    3    3    0    0  0.18138161479E+02  0.25363848388E+02 -0.66403863772E+01  0.31881223916E+02  0.51100000000E-03 0.  1.
        -12    1    3    3    0    0 -0.20142225504E+02 -0.38563086082E+02  0.13538233650E+00  0.43506771712E+02  0.00000000000E+00 0.  1.
</event>
<event>
 7    1  0.2284751E-015  0.9000798E+02  0.7816164E-02  0.1186339E+00
        -11   -1    0    0    0    0  0.00000000000E+00  0.00000000000E+00  0.45593999997E+02  0.45594000000E+02  0.51100000000E-03 0.  1.
         11   -1    0    0    0    0 -0.00000000000E+00 -0.00000000000E+00 -0.45593999997E+02  0.45594000000E+02  0.51100000000E-03 0. -1.
    9900012    2    1    2    0    0 -0.29800260799E+00  0.99003503185E-02  0.11417251987E+01  0.90007983051E+02  0.90000247627E+02 0.  0.
         12    1    1    2    0    0  0.29800260799E+00 -0.99003503185E-02 -0.11417251987E+01  0.11800169493E+01  0.00000000000E+00 0. -1.
         11    1    3    3    0    0 -0.33590867450E+02  0.54202642847E+01 -0.14568320881E+02  0.37012992509E+02  0.51100000000E-03 0. -1.
        -11    1    3    3    0    0 -0.56331621643E+01 -0.93991383087E+01  0.36547030435E+00  0.10964026893E+02  0.51100000000E-03 0.  1.
        -12    1    3    3    0    0  0.38926027006E+02  0.39887743744E+01  0.15344575775E+02  0.42030963648E+02  0.00000000000E+00 0.  1.
</event>
<event>
 7    1  0.2284751E-015  0.9000776E+02  0.7816164E-02  0.1186339E+00
        -11   -1    0    0    0    0  0.00000000000E+00  0.00000000000E+00  0.45593999997E+02  0.45594000000E+02  0.51100000000E-03 0.  1.
         11   -1    0    0    0    0 -0.00000000000E+00 -0.00000000000E+00 -0.45593999997E+02  0.45594000000E+02  0.51100000000E-03 0. -1.
    9900012    2    1    2    0    0 -0.28333010217E+00  0.11455236803E+01  0.21840859493E-01  0.90007755334E+02  0.90000016904E+02 0.  0.
         12    1    1    2    0    0  0.28333010217E+00 -0.11455236803E+01 -0.21840859493E-01  0.11802446662E+01  0.00000000000E+00 0. -1.
         11    1    3    3    0    0  0.41434063218E+01  0.40181258759E+01 -0.92401999543E+01  0.10894698112E+02  0.51100000000E-03 0. -1.
        -11    1    3    3    0    0  0.28539011705E+02 -0.22728242274E+02 -0.73172360587E+01  0.37210081023E+02  0.51100000000E-03 0.  1.
         12    1    3    3    0    0 -0.32965748129E+02  0.19855640078E+02  0.16579276873E+02  0.41902976198E+02  0.00000000000E+00 0. -1.
</event>
<event>
 7    1  0.2284751E-015  0.9000776E+02  0.7816164E-02  0.1186339E+00
        -11   -1    0    0    0    0  0.00000000000E+00  0.00000000000E+00  0.45593999997E+02  0.45594000000E+02  0.51100000000E-03 0.  1.
         11   -1    0    0    0    0 -0.00000000000E+00 -0.00000000000E+00 -0.45593999997E+02  0.45594000000E+02  0.51100000000E-03 0. -1.
    9900012    2    1    2    0    0  0.67631381816E-01  0.19501705210E+00  0.11620498774E+01  0.90007760375E+02  0.90000022012E+02 0.  0.
         12    1    1    2    0    0 -0.67631381816E-01 -0.19501705210E+00 -0.11620498774E+01  0.11802396248E+01  0.00000000000E+00 0. -1.
         11    1    3    3    0    0 -0.43986985371E+01  0.32800271813E+02 -0.12420242234E+02  0.35347825919E+02  0.51100000000E-03 0. -1.
        -11    1    3    3    0    0 -0.24397424749E+01  0.97394243318E+01  0.24418814037E+01  0.10333030277E+02  0.51100000000E-03 0.  1.
        -12    1    3    3    0    0  0.69060723938E+01 -0.42344679092E+02  0.11140410708E+02  0.44326904179E+02  0.00000000000E+00 0.  1.
</event>
<event>
 7    1  0.2380327E-015  0.9000779E+02  0.7816164E-02  0.1186339E+00
        -11   -1    0    0    0    0  0.00000000000E+00  0.00000000000E+00  0.45593999997E+02  0.45594000000E+02  0.51100000000E-03 0.  1.
         11   -1    0    0    0    0 -0.00000000000E+00 -0.00000000000E+00 -0.45593999997E+02  0.45594000000E+02  0.51100000000E-03 0. -1.
    9900012    2    1    2    0    0 -0.59912831786E+00 -0.27083333392E+00  0.98010012008E+00  0.90007787442E+02  0.90000049437E+02 0.  0.
         12    1    1    2    0    0  0.59912831786E+00  0.27083333392E+00 -0.98010012008E+00  0.11802125577E+01  0.00000000000E+00 0. -1.
         11    1    3    3    0    0 -0.10342360909E+02  0.32777942508E+02 -0.22111396830E+02  0.40868959055E+02  0.51100000000E-03 0. -1.
        -11    1    3    3    0    0 -0.68130308281E+01 -0.14015152033E+01  0.73123623542E+01  0.10092188930E+02  0.51100000000E-03 0.  1.
        -12    1    3    3    0    0  0.16556263419E+02 -0.31647260639E+02  0.15779134596E+02  0.39046639458E+02  0.00000000000E+00 0.  1.
</event>
<event>
 7    1  0.2284751E-015  0.9000767E+02  0.7816164E-02  0.1186339E+00
        -11   -1    0    0    0    0  0.00000000000E+00  0.00000000000E+00  0.45593999997E+02  0.45594000000E+02  0.51100000000E-03 0.  1.
         11   -1    0    0    0    0 -0.00000000000E+00 -0.00000000000E+00 -0.45593999997E+02  0.45594000000E+02  0.51100000000E-03 0. -1.
    9900012    2    1    2    0    0 -0.94722785589E+00  0.22942891263E+00  0.66580209548E+00  0.90007673491E+02  0.89999933981E+02 0.  0.
         12    1    1    2    0    0  0.94722785589E+00 -0.22942891263E+00 -0.66580209548E+00  0.11803265088E+01  0.00000000000E+00 0. -1.
         11    1    3    3    0    0 -0.10141655569E+02 -0.21354067669E+01  0.38625294466E+00  0.10371226125E+02  0.51100000000E-03 0. -1.
        -11    1    3    3    0    0 -0.20876690260E+02 -0.26131286315E+02  0.13619637166E+02  0.36113360927E+02  0.51100000000E-03 0.  1.
         12    1    3    3    0    0  0.30071117973E+02  0.28496121994E+02 -0.13340088016E+02  0.43523086438E+02  0.00000000000E+00 0. -1.
</event>
<event>
 7    1  0.2284751E-015  0.9000774E+02  0.7816164E-02  0.1186339E+00
        -11   -1    0    0    0    0  0.00000000000E+00  0.00000000000E+00  0.45593999997E+02  0.45594000000E+02  0.51100000000E-03 0.  1.
         11   -1    0    0    0    0 -0.00000000000E+00 -0.00000000000E+00 -0.45593999997E+02  0.45594000000E+02  0.51100000000E-03 0. -1.
    9900012    2    1    2    0    0  0.29492059842E+00  0.95546434273E-01  0.11388229271E+01  0.90007735225E+02  0.89999996530E+02 0.  0.
         12    1    1    2    0    0 -0.29492059842E+00 -0.95546434273E-01 -0.11388229271E+01  0.11802647753E+01  0.00000000000E+00 0. -1.
         11    1    3    3    0    0 -0.37782329493E+01 -0.21904664532E+01  0.98185699762E+01  0.10746045977E+02  0.51100000000E-03 0. -1.
        -11    1    3    3    0    0  0.27847877208E+01 -0.25685071919E+02  0.24665476377E+02  0.35719234137E+02  0.51100000000E-03 0.  1.
         12    1    3    3    0    0  0.12883658269E+01  0.27971084806E+02 -0.33345223426E+02  0.43542455111E+02  0.00000000000E+00 0. -1.
</event>
<event>
 7    1  0.2284751E-015  0.9000779E+02  0.7816164E-02  0.1186339E+00
        -11   -1    0    0    0    0  0.00000000000E+00  0.00000000000E+00  0.45593999997E+02  0.45594000000E+02  0.51100000000E-03 0. -1.
         11   -1    0    0    0    0 -0.00000000000E+00 -0.00000000000E+00 -0.45593999997E+02  0.45594000000E+02  0.51100000000E-03 0.  1.
    9900012    2    1    2    0    0 -0.66109352404E+00 -0.17270052251E+00 -0.96230430803E+00  0.90007788282E+02  0.90000050287E+02 0.  0.
         12    1    1    2    0    0  0.66109352404E+00  0.17270052251E+00  0.96230430803E+00  0.11802117180E+01  0.00000000000E+00 0. -1.
         11    1    3    3    0    0  0.63467378353E+01 -0.74094676858E+01 -0.53364989965E+01  0.11120229959E+02  0.51100000000E-03 0. -1.
        -11    1    3    3    0    0  0.27560349895E+02  0.14592021189E+02 -0.18998263333E+02  0.36516215284E+02  0.51100000000E-03 0.  1.
         12    1    3    3    0    0 -0.34568181254E+02 -0.73552540255E+01  0.23372458022E+02  0.42371343040E+02  0.00000000000E+00 0. -1.
</event>
<event>
 7    1  0.2284751E-015  0.9000773E+02  0.7816164E-02  0.1186339E+00
        -11   -1    0    0    0    0  0.00000000000E+00  0.00000000000E+00  0.45593999997E+02  0.45594000000E+02  0.51100000000E-03 0. -1.
         11   -1    0    0    0    0 -0.00000000000E+00 -0.00000000000E+00 -0.45593999997E+02  0.45594000000E+02  0.51100000000E-03 0.  1.
    9900012    2    1    2    0    0  0.63796705113E+00 -0.80372097144E+00  0.58315856370E+00  0.90007727460E+02  0.89999988662E+02 0.  0.
         12    1    1    2    0    0 -0.63796705113E+00  0.80372097144E+00 -0.58315856370E+00  0.11802725400E+01  0.00000000000E+00 0. -1.
         11    1    3    3    0    0 -0.47735043839E+01 -0.75662243588E+01  0.52113624802E+01  0.10353375986E+02  0.51100000000E-03 0. -1.
        -11    1    3    3    0    0 -0.12005253211E+02 -0.30782522527E+02 -0.16030739562E+02  0.36724302703E+02  0.51100000000E-03 0.  1.
         12    1    3    3    0    0  0.17416724646E+02  0.37545025915E+02  0.11402535646E+02  0.42930048771E+02  0.00000000000E+00 0. -1.
</event>
<event>
 7    1  0.2284751E-015  0.9000774E+02  0.7816164E-02  0.1186339E+00
        -11   -1    0    0    0    0  0.00000000000E+00  0.00000000000E+00  0.45593999997E+02  0.45594000000E+02  0.51100000000E-03 0.  1.
         11   -1    0    0    0    0 -0.00000000000E+00 -0.00000000000E+00 -0.45593999997E+02  0.45594000000E+02  0.51100000000E-03 0. -1.
    9900012    2    1    2    0    0  0.51167463316E+00  0.10556506951E+01 -0.12967620990E+00  0.90007735098E+02  0.89999996401E+02 0.  0.
         12    1    1    2    0    0 -0.51167463316E+00 -0.10556506951E+01  0.12967620990E+00  0.11802649023E+01  0.00000000000E+00 0. -1.
         11    1    3    3    0    0 -0.36172880895E+02  0.58529508413E+01 -0.75598268662E+01  0.37415041472E+02  0.51100000000E-03 0. -1.
        -11    1    3    3    0    0  0.57091302145E+00  0.11763993876E+02 -0.14956061740E+01  0.11872418949E+02  0.51100000000E-03 0.  1.
        -12    1    3    3    0    0  0.36113642507E+02 -0.16561294023E+02  0.89257568303E+01  0.40720274678E+02  0.00000000000E+00 0.  1.
</event>
<event>
 7    1  0.2284751E-015  0.9000778E+02  0.7816164E-02  0.1186339E+00
        -11   -1    0    0    0    0  0.00000000000E+00  0.00000000000E+00  0.45593999997E+02  0.45594000000E+02  0.51100000000E-03 0. -1.
         11   -1    0    0    0    0 -0.00000000000E+00 -0.00000000000E+00 -0.45593999997E+02  0.45594000000E+02  0.51100000000E-03 0.  1.
    9900012    2    1    2    0    0 -0.10289003814E+01  0.57709752731E+00 -0.35395748186E-01  0.90007775271E+02  0.90000037105E+02 0.  0.
         12    1    1    2    0    0  0.10289003814E+01 -0.57709752731E+00  0.35395748186E-01  0.11802247285E+01  0.00000000000E+00 0. -1.
         11    1    3    3    0    0  0.88660861395E+01  0.38477482722E+02  0.38418516622E+01  0.39672206701E+02  0.51100000000E-03 0. -1.
        -11    1    3    3    0    0 -0.11865179856E+02  0.22606259748E+00 -0.25326707180E+01  0.12134579454E+02  0.51100000000E-03 0.  1.
        -12    1    3    3    0    0  0.19701933347E+01 -0.38126447792E+02 -0.13445766924E+01  0.38200989117E+02  0.00000000000E+00 0.  1.
</event>
<event>
 7    1  0.2284751E-015  0.9000780E+02  0.7816164E-02  0.1186339E+00
        -11   -1    0    0    0    0  0.00000000000E+00  0.00000000000E+00  0.45593999997E+02  0.45594000000E+02  0.51100000000E-03 0. -1.
         11   -1    0    0    0    0 -0.00000000000E+00 -0.00000000000E+00 -0.45593999997E+02  0.45594000000E+02  0.51100000000E-03 0.  1.
    9900012    2    1    2    0    0 -0.60872273783E+00  0.60013043735E+00 -0.81373314890E+00  0.90007804444E+02  0.90000066662E+02 0.  0.
         12    1    1    2    0    0  0.60872273783E+00 -0.60013043735E+00  0.81373314890E+00  0.11801955563E+01  0.00000000000E+00 0. -1.
         11    1    3    3    0    0  0.18342856606E+01 -0.62560464858E+01  0.69692908477E+01  0.95432560847E+01  0.51100000000E-03 0. -1.
        -11    1    3    3    0    0  0.26732135743E+02  0.20116641426E+02  0.19197229558E+02  0.38572269400E+02  0.51100000000E-03 0.  1.
         12    1    3    3    0    0 -0.29175144142E+02 -0.13260464503E+02 -0.26980253555E+02  0.41892278959E+02  0.00000000000E+00 0. -1.
</event>
<event>
 7    1  0.2284751E-015  0.9000772E+02  0.7816164E-02  0.1186339E+00
        -11   -1    0    0    0    0  0.00000000000E+00  0.00000000000E+00  0.45593999997E+02  0.45594000000E+02  0.51100000000E-03 0.  1.
         11   -1    0    0    0    0 -0.00000000000E+00 -0.00000000000E+00 -0.45593999997E+02  0.45594000000E+02  0.51100000000E-03 0. -1.
    9900012    2    1    2    0    0  0.97898180413E-01 -0.11633196972E+01 -0.17367105520E+00  0.90007721047E+02  0.89999982165E+02 0.  0.
         12    1    1    2    0    0 -0.97898180413E-01  0.11633196972E+01  0.17367105520E+00  0.11802789530E+01  0.00000000000E+00 0. -1.
         11    1    3    3    0    0  0.69486677858E+01 -0.53361167397E+01 -0.61974552412E+01  0.10731569204E+02  0.51100000000E-03 0. -1.
        -11    1    3    3    0    0  0.34192880175E+02 -0.81229831732E+01 -0.37061953594E+01  0.35339380223E+02  0.51100000000E-03 0.  1.
         12    1    3    3    0    0 -0.41043649780E+02  0.12295780216E+02  0.97299795454E+01  0.43936771619E+02  0.00000000000E+00 0. -1.
</event>
<event>
 7    1  0.2284751E-015  0.9000768E+02  0.7816164E-02  0.1186339E+00
        -11   -1    0    0    0    0  0.00000000000E+00  0.00000000000E+00  0.45593999997E+02  0.45594000000E+02  0.51100000000E-03 0. -1.
         11   -1    0    0    0    0 -0.00000000000E+00 -0.00000000000E+00 -0.45593999997E+02  0.45594000000E+02  0.51100000000E-03 0.  1.
    9900012    2    1    2    0    0  0.77936398385E+00 -0.22313102776E+00 -0.85788267529E+00  0.90007678705E+02  0.89999939264E+02 0.  0.
         12    1    1    2    0    0 -0.77936398385E+00  0.22313102776E+00  0.85788267529E+00  0.11803212950E+01  0.00000000000E+00 0. -1.
         11    1    3    3    0    0 -0.33818895585E+01  0.22473074018E+02  0.26971139939E+02  0.35269230537E+02  0.51100000000E-03 0. -1.
        -11    1    3    3    0    0  0.16106711674E+02 -0.60366331995E+01  0.32523552547E+01  0.17505568151E+02  0.51100000000E-03 0.  1.
        -12    1    3    3    0    0 -0.11945458132E+02 -0.16659571846E+02 -0.31081377869E+02  0.37232880017E+02  0.00000000000E+00 0.  1.
</event>
<event>
 7    1  0.2284751E-015  0.9000776E+02  0.7816164E-02  0.1186339E+00
        -11   -1    0    0    0    0  0.00000000000E+00  0.00000000000E+00  0.45593999997E+02  0.45594000000E+02  0.51100000000E-03 0. -1.
         11   -1    0    0    0    0 -0.00000000000E+00 -0.00000000000E+00 -0.45593999997E+02  0.45594000000E+02  0.51100000000E-03 0.  1.
    9900012    2    1    2    0    0  0.60194941368E+00  0.90070604971E+00 -0.46834992085E+00  0.90007760138E+02  0.90000021771E+02 0.  0.
         12    1    1    2    0    0 -0.60194941368E+00 -0.90070604971E+00  0.46834992085E+00  0.11802398625E+01  0.00000000000E+00 0. -1.
         11    1    3    3    0    0 -0.10582729673E+01  0.35030374521E+01 -0.66595330740E+01  0.75987231880E+01  0.51100000000E-03 0. -1.
        -11    1    3    3    0    0 -0.53324146297E+01 -0.37164974296E+02 -0.15926370520E+02  0.40783810984E+02  0.51100000000E-03 0.  1.
         12    1    3    3    0    0  0.69926370106E+01  0.34562642894E+02  0.22117553673E+02  0.41625225965E+02  0.00000000000E+00 0. -1.
</event>
<event>
 7    1  0.2610757E-015  0.9000767E+02  0.7816164E-02  0.1186339E+00
        -11   -1    0    0    0    0  0.00000000000E+00  0.00000000000E+00  0.45593999997E+02  0.45594000000E+02  0.51100000000E-03 0.  1.
         11   -1    0    0    0    0 -0.00000000000E+00 -0.00000000000E+00 -0.45593999997E+02  0.45594000000E+02  0.51100000000E-03 0. -1.
    9900012    2    1    2    0    0 -0.30763869738E+00 -0.11214423851E+01  0.20226567343E+00  0.90007666999E+02  0.89999927403E+02 0.  0.
         12    1    1    2    0    0  0.30763869738E+00  0.11214423851E+01 -0.20226567343E+00  0.11803330013E+01  0.00000000000E+00 0. -1.
         11    1    3    3    0    0  0.33266329176E+02 -0.13291642043E+02 -0.72073207637E+01  0.36541235309E+02  0.51100000000E-03 0. -1.
        -11    1    3    3    0    0  0.50477464609E+01 -0.46658209249E+01 -0.61324565939E+01  0.92117671146E+01  0.51100000000E-03 0.  1.
        -12    1    3    3    0    0 -0.38621714335E+02  0.16836020582E+02  0.13542043031E+02  0.44254664575E+02  0.00000000000E+00 0.  1.
</event>
<event>
 7    1  0.2284751E-015  0.9000770E+02  0.7816164E-02  0.1186339E+00
        -11   -1    0    0    0    0  0.00000000000E+00  0.00000000000E+00  0.45593999997E+02  0.45594000000E+02  0.51100000000E-03 0.  1.
         11   -1    0    0    0    0 -0.00000000000E+00 -0.00000000000E+00 -0.45593999997E+02  0.45594000000E+02  0.51100000000E-03 0. -1.
    9900012    2    1    2    0    0 -0.45760869829E+00 -0.48283786710E+00  0.97496940746E+00  0.90007701956E+02  0.89999962822E+02 0.  0.
         12    1    1    2    0    0  0.45760869829E+00  0.48283786710E+00 -0.97496940746E+00  0.11802980438E+01  0.00000000000E+00 0. -1.
         11    1    3    3    0    0 -0.29145799336E+02  0.25765976302E+02  0.45722743294E+01  0.39169744019E+02  0.51100000000E-03 0. -1.
        -11    1    3    3    0    0 -0.45724146812E+01 -0.11665780711E+01 -0.76446954390E+01  0.89838326470E+01  0.51100000000E-03 0.  1.
        -12    1    3    3    0    0  0.33260605319E+02 -0.25082236098E+02  0.40473905170E+01  0.41854125290E+02  0.00000000000E+00 0.  1.
</event>
<event>
 7    1  0.2284751E-015  0.9000780E+02  0.7816164E-02  0.1186339E+00
        -11   -1    0    0    0    0  0.00000000000E+00  0.00000000000E+00  0.45593999997E+02  0.45594000000E+02  0.51100000000E-03 0.  1.
         11   -1    0    0    0    0 -0.00000000000E+00 -0.00000000000E+00 -0.45593999997E+02  0.45594000000E+02  0.51100000000E-03 0. -1.
    9900012    2    1    2    0    0  0.49365386958E+00  0.10698594142E+01  0.67720657107E-01  0.90007796883E+02  0.90000059002E+02 0.  0.
         12    1    1    2    0    0 -0.49365386958E+00 -0.10698594142E+01 -0.67720657107E-01  0.11802031166E+01  0.00000000000E+00 0. -1.
         11    1    3    3    0    0  0.26632229897E+01 -0.71523834137E+01 -0.33750241707E+02  0.34602429983E+02  0.51100000000E-03 0. -1.
        -11    1    3    3    0    0  0.27297887586E+01  0.16006027344E+01 -0.10170967726E+02  0.10651866527E+02  0.51100000000E-03 0.  1.
        -12    1    3    3    0    0 -0.48993578787E+01  0.66216400935E+01  0.43988930090E+02  0.44753500373E+02  0.00000000000E+00 0.  1.
</event>
<event>
 7    1  0.2284751E-015  0.9000771E+02  0.7816164E-02  0.1186339E+00
        -11   -1    0    0    0    0  0.00000000000E+00  0.00000000000E+00  0.45593999997E+02  0.45594000000E+02  0.51100000000E-03 0. -1.
         11   -1    0    0    0    0 -0.00000000000E+00 -0.00000000000E+00 -0.45593999997E+02  0.45594000000E+02  0.51100000000E-03 0.  1.
    9900012    2    1    2    0    0  0.59410508714E+00  0.51820724718E+00 -0.87840513828E+00  0.90007705464E+02  0.89999966376E+02 0.  0.
         12    1    1    2    0    0 -0.59410508714E+00 -0.51820724718E+00  0.87840513828E+00  0.11802945364E+01  0.00000000000E+00 0. -1.
         11    1    3    3    0    0 -0.18531421275E+02 -0.85252928208E+01 -0.14081896460E+02  0.24786972391E+02  0.51100000000E-03 0. -1.
        -11    1    3    3    0    0  0.34901648975E+01 -0.19708183475E+02 -0.12507298692E+02  0.23601403936E+02  0.51100000000E-03 0.  1.
         12    1    3    3    0    0  0.15635361464E+02  0.28751683543E+02  0.25710790014E+02  0.41619329137E+02  0.00000000000E+00 0. -1.
</event>
<event>
 7    1  0.2284751E-015  0.9000778E+02  0.7816164E-02  0.1186339E+00
        -11   -1    0    0    0    0  0.00000000000E+00  0.00000000000E+00  0.45593999997E+02  0.45594000000E+02  0.51100000000E-03 0. -1.
         11   -1    0    0    0    0 -0.00000000000E+00 -0.00000000000E+00 -0.45593999997E+02  0.45594000000E+02  0.51100000000E-03 0.  1.
    9900012    2    1    2    0    0 -0.81097000484E+00  0.68344349555E+00 -0.51783222787E+00  0.90007780708E+02  0.90000042614E+02 0.  0.
         12    1    1    2    0    0  0.81097000484E+00 -0.68344349555E+00  0.51783222787E+00  0.11802192917E+01  0.00000000000E+00 0. -1.
         11    1    3    3    0    0  0.15689766621E+02 -0.36151365673E+02  0.11224063549E+02  0.40976452011E+02  0.51100000000E-03 0. -1.
        -11    1    3    3    0    0  0.42287603386E+01  0.73045108790E+01  0.43849754594E+01  0.95113775671E+01  0.51100000000E-03 0.  1.
        -12    1    3    3    0    0 -0.20729496964E+02  0.29530298289E+02 -0.16126871236E+02  0.39519951130E+02  0.00000000000E+00 0.  1.
</event>
<event>
 7    1  0.2284751E-015  0.9000770E+02  0.7816164E-02  0.1186339E+00
        -11   -1    0    0    0    0  0.00000000000E+00  0.00000000000E+00  0.45593999997E+02  0.45594000000E+02  0.51100000000E-03 0. -1.
         11   -1    0    0    0    0 -0.00000000000E+00 -0.00000000000E+00 -0.45593999997E+02  0.45594000000E+02  0.51100000000E-03 0.  1.
    9900012    2    1    2    0    0 -0.92815801755E+00 -0.68970995072E+00 -0.23650105851E+00  0.90007699245E+02  0.89999960075E+02 0.  0.
         12    1    1    2    0    0  0.92815801755E+00  0.68970995072E+00  0.23650105851E+00  0.11803007550E+01  0.00000000000E+00 0. -1.
         11    1    3    3    0    0 -0.95940824262E+01 -0.38273544209E+02 -0.20815226895E+00  0.39458255557E+02  0.51100000000E-03 0. -1.
        -11    1    3    3    0    0 -0.86932402297E+01 -0.10739253735E+00  0.22824967518E+01  0.89885343929E+01  0.51100000000E-03 0.  1.
        -12    1    3    3    0    0  0.17359164638E+02  0.37691226796E+02 -0.23108455414E+01  0.41560909295E+02  0.00000000000E+00 0.  1.
</event>
<event>
 7    1  0.2284751E-015  0.9000773E+02  0.7816164E-02  0.1186339E+00
        -11   -1    0    0    0    0  0.00000000000E+00  0.00000000000E+00  0.45593999997E+02  0.45594000000E+02  0.51100000000E-03 0.  1.
         11   -1    0    0    0    0 -0.00000000000E+00 -0.00000000000E+00 -0.45593999997E+02  0.45594000000E+02  0.51100000000E-03 0. -1.
    9900012    2    1    2    0    0  0.67876055225E+00 -0.34340890333E+00  0.90243852217E+00  0.90007728485E+02  0.89999989701E+02 0.  0.
         12    1    1    2    0    0 -0.67876055225E+00  0.34340890333E+00 -0.90243852217E+00  0.11802715147E+01  0.00000000000E+00 0. -1.
         11    1    3    3    0    0 -0.17671903100E+02 -0.35700853918E+02 -0.13532818251E+02  0.42071181344E+02  0.51100000000E-03 0. -1.
        -11    1    3    3    0    0 -0.48410332756E+01  0.24716092076E+01  0.23343350935E+01  0.59155368176E+01  0.51100000000E-03 0.  1.
        -12    1    3    3    0    0  0.23191696928E+02  0.32885835807E+02  0.12100921680E+02  0.42021010323E+02  0.00000000000E+00 0.  1.
</event>
<event>
 7    1  0.2284751E-015  0.9000777E+02  0.7816164E-02  0.1186339E+00
        -11   -1    0    0    0    0  0.00000000000E+00  0.00000000000E+00  0.45593999997E+02  0.45594000000E+02  0.51100000000E-03 0.  1.
         11   -1    0    0    0    0 -0.00000000000E+00 -0.00000000000E+00 -0.45593999997E+02  0.45594000000E+02  0.51100000000E-03 0. -1.
    9900012    2    1    2    0    0 -0.29727940467E+00 -0.10385482857E+01 -0.47538958986E+00  0.90007765766E+02  0.90000027474E+02 0.  0.
         12    1    1    2    0    0  0.29727940467E+00  0.10385482857E+01  0.47538958986E+00  0.11802342345E+01  0.00000000000E+00 0. -1.
         11    1    3    3    0    0 -0.66128681002E+01  0.26045431308E+01 -0.66192645572E+01  0.97122774348E+01  0.51100000000E-03 0. -1.
        -11    1    3    3    0    0  0.10908376006E+02 -0.39011128063E+02  0.15584701088E+02  0.43402116171E+02  0.51100000000E-03 0.  1.
         12    1    3    3    0    0 -0.45927873103E+01  0.35368036646E+02 -0.94408261210E+01  0.36893372160E+02  0.00000000000E+00 0. -1.
</event>
<event>
 7    1  0.2284751E-015  0.9000774E+02  0.7816164E-02  0.1186339E+00
        -11   -1    0    0    0    0  0.00000000000E+00  0.00000000000E+00  0.45593999997E+02  0.45594000000E+02  0.51100000000E-03 0. -1.
         11   -1    0    0    0    0 -0.00000000000E+00 -0.00000000000E+00 -0.45593999997E+02  0.45594000000E+02  0.51100000000E-03 0.  1.
    9900012    2    1    2    0    0  0.18242031876E+00  0.18410048052E+00 -0.11514504434E+01  0.90007742281E+02  0.90000003679E+02 0.  0.
         12    1    1    2    0    0 -0.18242031876E+00 -0.18410048052E+00  0.11514504434E+01  0.11802577190E+01  0.00000000000E+00 0. -1.
         11    1    3    3    0    0 -0.28963455477E+02  0.45309913982E+01 -0.27504757678E+02  0.40198548872E+02  0.51100000000E-03 0. -1.
        -11    1    3    3    0    0 -0.44611814703E+01 -0.72292891050E+01  0.61979378746E+01  0.10515664279E+02  0.51100000000E-03 0.  1.
        -12    1    3    3    0    0  0.33607057266E+02  0.28823981874E+01  0.20155369360E+02  0.39293529130E+02  0.00000000000E+00 0.  1.
</event>
<event>
 7    1  0.2284751E-015  0.9000778E+02  0.7816164E-02  0.1186339E+00
        -11   -1    0    0    0    0  0.00000000000E+00  0.00000000000E+00  0.45593999997E+02  0.45594000000E+02  0.51100000000E-03 0.  1.
         11   -1    0    0    0    0 -0.00000000000E+00 -0.00000000000E+00 -0.45593999997E+02  0.45594000000E+02  0.51100000000E-03 0. -1.
    9900012    2    1    2    0    0 -0.36012773933E+00  0.84839279233E+00  0.73718992031E+00  0.90007783368E+02  0.90000045309E+02 0.  0.
         12    1    1    2    0    0  0.36012773933E+00 -0.84839279233E+00 -0.73718992031E+00  0.11802166315E+01  0.00000000000E+00 0. -1.
         11    1    3    3    0    0 -0.38825739311E+01 -0.10115145041E+02  0.28789572572E+01  0.11210661652E+02  0.51100000000E-03 0. -1.
        -11    1    3    3    0    0 -0.16904448415E+02  0.10501757474E+02  0.32773693199E+02  0.38342694903E+02  0.51100000000E-03 0.  1.
         12    1    3    3    0    0  0.20426894607E+02  0.46178035958E+00 -0.34915460536E+02  0.40454426813E+02  0.00000000000E+00 0. -1.
</event>
<event>
 7    1  0.3263754E-015  0.9000779E+02  0.7816164E-02  0.1186339E+00
        -11   -1    0    0    0    0  0.00000000000E+00  0.00000000000E+00  0.45593999997E+02  0.45594000000E+02  0.51100000000E-03 0. -1.
         11   -1    0    0    0    0 -0.00000000000E+00 -0.00000000000E+00 -0.45593999997E+02  0.45594000000E+02  0.51100000000E-03 0.  1.
    9900012    2    1    2    0    0 -0.37263898892E+00 -0.78045798103E+00 -0.80307149953E+00  0.90007788871E+02  0.90000050884E+02 0.  0.
         12    1    1    2    0    0  0.37263898892E+00  0.78045798103E+00  0.80307149953E+00  0.11802111292E+01  0.00000000000E+00 0. -1.
         11    1    3    3    0    0 -0.16811421437E+01 -0.17154904348E+02  0.32698105615E+02  0.36963266808E+02  0.51100000000E-03 0. -1.
        -11    1    3    3    0    0 -0.58567870393E+01 -0.48547182592E+01  0.45664273761E+01  0.88725702613E+01  0.51100000000E-03 0.  1.
        -12    1    3    3    0    0  0.71652901941E+01  0.21229164626E+02 -0.38067604490E+02  0.44171951801E+02  0.00000000000E+00 0.  1.
</event>
<event>
 7    1  0.2284751E-015  0.9000777E+02  0.7816164E-02  0.1186339E+00
        -11   -1    0    0    0    0  0.00000000000E+00  0.00000000000E+00  0.45593999997E+02  0.45594000000E+02  0.51100000000E-03 0.  1.
         11   -1    0    0    0    0 -0.00000000000E+00 -0.00000000000E+00 -0.45593999997E+02  0.45594000000E+02  0.51100000000E-03 0. -1.
    9900012    2    1    2    0    0 -0.11312167273E+00 -0.61121279752E+00  0.10032768598E+01  0.90007770338E+02  0.90000032107E+02 0.  0.
         12    1    1    2    0    0  0.11312167273E+00  0.61121279752E+00 -0.10032768598E+01  0.11802296616E+01  0.00000000000E+00 0. -1.
         11    1    3    3    0    0 -0.46534281667E+01  0.71973782848E+01  0.17718335576E+01  0.87519164927E+01  0.51100000000E-03 0. -1.
        -11    1    3    3    0    0 -0.34324580080E+02  0.76211395850E+01  0.12608058768E+02  0.37352666738E+02  0.51100000000E-03 0.  1.
         12    1    3    3    0    0  0.38864886574E+02 -0.15429730667E+02 -0.13376615466E+02  0.43903187108E+02  0.00000000000E+00 0. -1.
</event>
<event>
 7    1  0.2284751E-015  0.9000789E+02  0.7816164E-02  0.1186339E+00
        -11   -1    0    0    0    0  0.00000000000E+00  0.00000000000E+00  0.45593999997E+02  0.45594000000E+02  0.51100000000E-03 0. -1.
         11   -1    0    0    0    0 -0.00000000000E+00 -0.00000000000E+00 -0.45593999997E+02  0.45594000000E+02  0.51100000000E-03 0.  1.
    9900012    2    1    2    0    0  0.32243007902E+00  0.11048909761E+01 -0.26061440201E+00  0.90007887678E+02  0.90000150996E+02 0.  0.
         12    1    1    2    0    0 -0.32243007902E+00 -0.11048909761E+01  0.26061440201E+00  0.11801123216E+01  0.00000000000E+00 0. -1.
         11    1    3    3    0    0 -0.24743325754E+01  0.85585465963E+01  0.21607047481E+01  0.91673162269E+01  0.51100000000E-03 0. -1.
        -11    1    3    3    0    0  0.10734409728E+02  0.34969581884E+02  0.54052410191E+01  0.36977234079E+02  0.51100000000E-03 0.  1.
         12    1    3    3    0    0 -0.79376470737E+01 -0.42423237504E+02 -0.78265601692E+01  0.43863337373E+02  0.00000000000E+00 0. -1.
</event>
<event>
 7    1  0.2284751E-015  0.9000777E+02  0.7816164E-02  0.1186339E+00
        -11   -1    0    0    0    0  0.00000000000E+00  0.00000000000E+00  0.45593999997E+02  0.45594000000E+02  0.51100000000E-03 0. -1.
         11   -1    0    0    0    0 -0.00000000000E+00 -0.00000000000E+00 -0.45593999997E+02  0.45594000000E+02  0.51100000000E-03 0.  1.
    9900012    2    1    2    0    0 -0.40679529623E+00 -0.93737388098E+00 -0.59058361619E+00  0.90007770695E+02  0.90000032468E+02 0.  0.
         12    1    1    2    0    0  0.40679529623E+00  0.93737388098E+00  0.59058361619E+00  0.11802293055E+01  0.00000000000E+00 0. -1.
         11    1    3    3    0    0 -0.16041790335E+02  0.31689571393E+02  0.15061205029E+02  0.38579889443E+02  0.51100000000E-03 0. -1.
        -11    1    3    3    0    0  0.88365382009E+01  0.34617631893E+01  0.33692239270E+01  0.10070743860E+02  0.51100000000E-03 0.  1.
        -12    1    3    3    0    0  0.67984568381E+01 -0.36088708464E+02 -0.19021012572E+02  0.41357137392E+02  0.00000000000E+00 0.  1.
</event>
<event>
 7    1  0.2284751E-015  0.9000776E+02  0.7816164E-02  0.1186339E+00
        -11   -1    0    0    0    0  0.00000000000E+00  0.00000000000E+00  0.45593999997E+02  0.45594000000E+02  0.51100000000E-03 0. -1.
         11   -1    0    0    0    0 -0.00000000000E+00 -0.00000000000E+00 -0.45593999997E+02  0.45594000000E+02  0.51100000000E-03 0.  1.
    9900012    2    1    2    0    0 -0.52282943190E+00 -0.71837331115E+00 -0.77688586641E+00  0.90007761686E+02  0.90000023340E+02 0.  0.
         12    1    1    2    0    0  0.52282943190E+00  0.71837331115E+00  0.77688586641E+00  0.11802383143E+01  0.00000000000E+00 0. -1.
         11    1    3    3    0    0  0.13221193091E+01 -0.10082629005E+02 -0.46755025901E+01  0.11192306815E+02  0.51100000000E-03 0. -1.
        -11    1    3    3    0    0 -0.32025579869E+02 -0.95486996387E+01 -0.17026768990E+02  0.37506350039E+02  0.51100000000E-03 0.  1.
         12    1    3    3    0    0  0.30180631128E+02  0.18912955332E+02  0.20925385714E+02  0.41309104831E+02  0.00000000000E+00 0. -1.
</event>
<event>
 7    1  0.2284751E-015  0.9000781E+02  0.7816164E-02  0.1186339E+00
        -11   -1    0    0    0    0  0.00000000000E+00  0.00000000000E+00  0.45593999997E+02  0.45594000000E+02  0.51100000000E-03 0.  1.
         11   -1    0    0    0    0 -0.00000000000E+00 -0.00000000000E+00 -0.45593999997E+02  0.45594000000E+02  0.51100000000E-03 0. -1.
    9900012    2    1    2    0    0 -0.25979048007E+00 -0.10345369084E+01  0.50507252084E+00  0.90007806813E+02  0.90000069062E+02 0.  0.
         12    1    1    2    0    0  0.25979048007E+00  0.10345369084E+01 -0.50507252084E+00  0.11801931875E+01  0.00000000000E+00 0. -1.
         11    1    3    3    0    0  0.86530358448E+00  0.14923606088E+01  0.80242508802E+01  0.82075875219E+01  0.51100000000E-03 0. -1.
        -11    1    3    3    0    0  0.12225454069E+02 -0.13862007285E+02  0.32907602617E+02  0.37742910373E+02  0.51100000000E-03 0.  1.
         12    1    3    3    0    0 -0.13350548133E+02  0.11335109768E+02 -0.40426780977E+02  0.44057308917E+02  0.00000000000E+00 0. -1.
</event>
<event>
 7    1  0.2284751E-015  0.9000766E+02  0.7816164E-02  0.1186339E+00
        -11   -1    0    0    0    0  0.00000000000E+00  0.00000000000E+00  0.45593999997E+02  0.45594000000E+02  0.51100000000E-03 0.  1.
         11   -1    0    0    0    0 -0.00000000000E+00 -0.00000000000E+00 -0.45593999997E+02  0.45594000000E+02  0.51100000000E-03 0. -1.
    9900012    2    1    2    0    0 -0.28449704460E+00  0.18142293944E-01  0.11453924421E+01  0.90007664642E+02  0.89999925015E+02 0.  0.
         12    1    1    2    0    0  0.28449704460E+00 -0.18142293944E-01 -0.11453924421E+01  0.11803353581E+01  0.00000000000E+00 0. -1.
         11    1    3    3    0    0  0.17235392092E+02  0.17166813071E+00 -0.16869074390E+02  0.24117501561E+02  0.51100000000E-03 0. -1.
        -11    1    3    3    0    0 -0.32699396582E+02  0.19207139053E+02  0.56030181770E+01  0.38334821512E+02  0.51100000000E-03 0.  1.
         12    1    3    3    0    0  0.15179507445E+02 -0.19360664890E+02  0.12411448655E+02  0.27555341568E+02  0.00000000000E+00 0. -1.
</event>
<event>
 7    1  0.2284751E-015  0.9000757E+02  0.7816164E-02  0.1186339E+00
        -11   -1    0    0    0    0  0.00000000000E+00  0.00000000000E+00  0.45593999997E+02  0.45594000000E+02  0.51100000000E-03 0.  1.
         11   -1    0    0    0    0 -0.00000000000E+00 -0.00000000000E+00 -0.45593999997E+02  0.45594000000E+02  0.51100000000E-03 0. -1.
    9900012    2    1    2    0    0 -0.86803169115E+00  0.59063725764E+00  0.53952316403E+00  0.90007569303E+02  0.89999828417E+02 0.  0.
         12    1    1    2    0    0  0.86803169115E+00 -0.59063725764E+00 -0.53952316403E+00  0.11804306975E+01  0.00000000000E+00 0. -1.
         11    1    3    3    0    0  0.42130047767E+01 -0.88266625720E+01  0.14823533658E+01  0.98922572333E+01  0.51100000000E-03 0. -1.
        -11    1    3    3    0    0  0.29480421679E+02 -0.19217790376E+02 -0.16034271459E+01  0.35227683833E+02  0.51100000000E-03 0.  1.
         12    1    3    3    0    0 -0.34561458147E+02  0.28635090206E+02  0.66059694412E+00  0.44887628236E+02  0.00000000000E+00 0. -1.
</event>
<event>
 7    1  0.2284751E-015  0.9000768E+02  0.7816164E-02  0.1186339E+00
        -11   -1    0    0    0    0  0.00000000000E+00  0.00000000000E+00  0.45593999997E+02  0.45594000000E+02  0.51100000000E-03 0.  1.
         11   -1    0    0    0    0 -0.00000000000E+00 -0.00000000000E+00 -0.45593999997E+02  0.45594000000E+02  0.51100000000E-03 0. -1.
    9900012    2    1    2    0    0  0.10113732694E+01  0.20302295503E+00  0.57364762289E+00  0.90007675551E+02  0.89999936068E+02 0.  0.
         12    1    1    2    0    0 -0.10113732694E+01 -0.20302295503E+00 -0.57364762289E+00  0.11803244493E+01  0.00000000000E+00 0. -1.
         11    1    3    3    0    0  0.22569099079E+01 -0.92026836493E+01  0.43388012832E-02  0.94753916947E+01  0.51100000000E-03 0. -1.
        -11    1    3    3    0    0  0.11702411453E+02 -0.33517852083E+02 -0.25250708460E+01  0.35591696013E+02  0.51100000000E-03 0.  1.
         12    1    3    3    0    0 -0.12947948091E+02  0.42923558687E+02  0.30943796676E+01  0.44940587843E+02  0.00000000000E+00 0. -1.
</event>
<event>
 7    1  0.2284751E-015  0.9000773E+02  0.7816164E-02  0.1186339E+00
        -11   -1    0    0    0    0  0.00000000000E+00  0.00000000000E+00  0.45593999997E+02  0.45594000000E+02  0.51100000000E-03 0.  1.
         11   -1    0    0    0    0 -0.00000000000E+00 -0.00000000000E+00 -0.45593999997E+02  0.45594000000E+02  0.51100000000E-03 0. -1.
    9900012    2    1    2    0    0  0.40330998764E+00  0.10790220109E+01 -0.25709724967E+00  0.90007726116E+02  0.89999987300E+02 0.  0.
         12    1    1    2    0    0 -0.40330998764E+00 -0.10790220109E+01  0.25709724967E+00  0.11802738843E+01  0.00000000000E+00 0. -1.
         11    1    3    3    0    0 -0.42016676312E+00  0.84243190438E+01  0.52964296084E+01  0.99598121628E+01  0.51100000000E-03 0. -1.
        -11    1    3    3    0    0 -0.10823356886E+01 -0.27190215586E+02  0.29242712403E+02  0.39945156191E+02  0.51100000000E-03 0.  1.
         12    1    3    3    0    0  0.19058124394E+01  0.19844918553E+02 -0.34796239261E+02  0.40102757762E+02  0.00000000000E+00 0. -1.
</event>
<event>
 7    1  0.2284751E-015  0.9000776E+02  0.7816164E-02  0.1186339E+00
        -11   -1    0    0    0    0  0.00000000000E+00  0.00000000000E+00  0.45593999997E+02  0.45594000000E+02  0.51100000000E-03 0. -1.
         11   -1    0    0    0    0 -0.00000000000E+00 -0.00000000000E+00 -0.45593999997E+02  0.45594000000E+02  0.51100000000E-03 0.  1.
    9900012    2    1    2    0    0 -0.31315574216E+00 -0.10604968147E+01 -0.41261760993E+00  0.90007757099E+02  0.90000018693E+02 0.  0.
         12    1    1    2    0    0  0.31315574216E+00  0.10604968147E+01  0.41261760993E+00  0.11802429008E+01  0.00000000000E+00 0. -1.
         11    1    3    3    0    0 -0.20953003979E+02  0.95948194647E+01 -0.25901664604E+02  0.34669657712E+02  0.51100000000E-03 0. -1.
        -11    1    3    3    0    0 -0.32730422632E+01 -0.13671660648E+01 -0.10533429650E+02  0.11114634009E+02  0.51100000000E-03 0.  1.
        -12    1    3    3    0    0  0.23912890500E+02 -0.92881502146E+01  0.36022476644E+02  0.44223465378E+02  0.00000000000E+00 0.  1.
</event>
<event>
 7    1  0.2284751E-015  0.9000752E+02  0.7816164E-02  0.1186339E+00
        -11   -1    0    0    0    0  0.00000000000E+00  0.00000000000E+00  0.45593999997E+02  0.45594000000E+02  0.51100000000E-03 0. -1.
         11   -1    0    0    0    0 -0.00000000000E+00 -0.00000000000E+00 -0.45593999997E+02  0.45594000000E+02  0.51100000000E-03 0.  1.
    9900012    2    1    2    0    0 -0.73102879779E+00 -0.53635531148E+00 -0.75594019152E+00  0.90007523106E+02  0.89999781611E+02 0.  0.
         12    1    1    2    0    0  0.73102879779E+00  0.53635531148E+00  0.75594019152E+00  0.11804768937E+01  0.00000000000E+00 0. -1.
         11    1    3    3    0    0 -0.81699808021E+00 -0.76903053879E+01  0.36116127687E+02  0.36934847531E+02  0.51100000000E-03 0. -1.
        -11    1    3    3    0    0  0.93022956368E+01  0.11133446792E+01  0.44031429171E+01  0.10351807006E+02  0.51100000000E-03 0.  1.
        -12    1    3    3    0    0 -0.92163263544E+01  0.60406053972E+01 -0.41275210795E+02  0.42720868568E+02  0.00000000000E+00 0.  1.
</event>
<event>
 7    1  0.2284751E-015  0.9000772E+02  0.7816164E-02  0.1186339E+00
        -11   -1    0    0    0    0  0.00000000000E+00  0.00000000000E+00  0.45593999997E+02  0.45594000000E+02  0.51100000000E-03 0.  1.
         11   -1    0    0    0    0 -0.00000000000E+00 -0.00000000000E+00 -0.45593999997E+02  0.45594000000E+02  0.51100000000E-03 0. -1.
    9900012    2    1    2    0    0  0.76426930002E+00  0.87378852308E+00 -0.21316255893E+00  0.90007723667E+02  0.89999984819E+02 0.  0.
         12    1    1    2    0    0 -0.76426930002E+00 -0.87378852308E+00  0.21316255893E+00  0.11802763331E+01  0.00000000000E+00 0. -1.
         11    1    3    3    0    0  0.15498869261E+01 -0.12141816676E+02 -0.35998061225E+02  0.38022181340E+02  0.51100000000E-03 0. -1.
        -11    1    3    3    0    0 -0.48923523018E+01 -0.10312939569E+02  0.34922785608E+01  0.11936827192E+02  0.51100000000E-03 0.  1.
        -12    1    3    3    0    0  0.41067346758E+01  0.23328544768E+02  0.32292620105E+02  0.40048715135E+02  0.00000000000E+00 0.  1.
</event>
<event>
 7    1  0.2284751E-015  0.9000793E+02  0.7816164E-02  0.1186339E+00
        -11   -1    0    0    0    0  0.00000000000E+00  0.00000000000E+00  0.45593999997E+02  0.45594000000E+02  0.51100000000E-03 0.  1.
         11   -1    0    0    0    0 -0.00000000000E+00 -0.00000000000E+00 -0.45593999997E+02  0.45594000000E+02  0.51100000000E-03 0. -1.
    9900012    2    1    2    0    0  0.10115924696E+01  0.32335619993E+00  0.51448503538E+00  0.90007926524E+02  0.90000190354E+02 0.  0.
         12    1    1    2    0    0 -0.10115924696E+01 -0.32335619993E+00 -0.51448503538E+00  0.11800734757E+01  0.00000000000E+00 0. -1.
         11    1    3    3    0    0 -0.79006093050E+01  0.34295841080E+01  0.77948365414E+00  0.86480789527E+01  0.51100000000E-03 0. -1.
        -11    1    3    3    0    0 -0.34969396487E+02 -0.11040610208E+02 -0.20794760458E+01  0.36729796968E+02  0.51100000000E-03 0.  1.
         12    1    3    3    0    0  0.43881598262E+02  0.79343822998E+01  0.18144774270E+01  0.44630050603E+02  0.00000000000E+00 0. -1.
</event>
<event>
 7    1  0.2284751E-015  0.9000773E+02  0.7816164E-02  0.1186339E+00
        -11   -1    0    0    0    0  0.00000000000E+00  0.00000000000E+00  0.45593999997E+02  0.45594000000E+02  0.51100000000E-03 0. -1.
         11   -1    0    0    0    0 -0.00000000000E+00 -0.00000000000E+00 -0.45593999997E+02  0.45594000000E+02  0.51100000000E-03 0.  1.
    9900012    2    1    2    0    0  0.80765134674E+00 -0.65460626094E+00 -0.55876255951E+00  0.90007734923E+02  0.89999996224E+02 0.  0.
         12    1    1    2    0    0 -0.80765134674E+00  0.65460626094E+00  0.55876255951E+00  0.11802650773E+01  0.00000000000E+00 0. -1.
         11    1    3    3    0    0 -0.18334181922E+02  0.21888483453E+02 -0.22957736800E+02  0.36637489186E+02  0.51100000000E-03 0. -1.
        -11    1    3    3    0    0 -0.49192643693E+01  0.33368220305E+00 -0.73103712202E+01  0.88177113463E+01  0.51100000000E-03 0.  1.
        -12    1    3    3    0    0  0.24061097638E+02 -0.22876771917E+02  0.29709345461E+02  0.44552534390E+02  0.00000000000E+00 0.  1.
</event>
<event>
 7    1  0.2284751E-015  0.9000776E+02  0.7816164E-02  0.1186339E+00
        -11   -1    0    0    0    0  0.00000000000E+00  0.00000000000E+00  0.45593999997E+02  0.45594000000E+02  0.51100000000E-03 0.  1.
         11   -1    0    0    0    0 -0.00000000000E+00 -0.00000000000E+00 -0.45593999997E+02  0.45594000000E+02  0.51100000000E-03 0. -1.
    9900012    2    1    2    0    0  0.99552328893E+00 -0.44452057555E+00 -0.45199237824E+00  0.90007761774E+02  0.90000023429E+02 0.  0.
         12    1    1    2    0    0 -0.99552328893E+00  0.44452057555E+00  0.45199237824E+00  0.11802382263E+01  0.00000000000E+00 0. -1.
         11    1    3    3    0    0 -0.12393782308E+02  0.17828492070E+01 -0.11703904939E+01  0.12575937554E+02  0.51100000000E-03 0. -1.
        -11    1    3    3    0    0  0.46260794231E+00 -0.11051094171E+02  0.36626966525E+02  0.38260624218E+02  0.51100000000E-03 0.  1.
         12    1    3    3    0    0  0.12926697655E+02  0.88237243886E+01 -0.35908568409E+02  0.39171200001E+02  0.00000000000E+00 0. -1.
</event>
<event>
 7    1  0.2298704E-015  0.9000775E+02  0.7816164E-02  0.1186339E+00
        -11   -1    0    0    0    0  0.00000000000E+00  0.00000000000E+00  0.45593999997E+02  0.45594000000E+02  0.51100000000E-03 0.  1.
         11   -1    0    0    0    0 -0.00000000000E+00 -0.00000000000E+00 -0.45593999997E+02  0.45594000000E+02  0.51100000000E-03 0. -1.
    9900012    2    1    2    0    0  0.86527038650E+00 -0.77593805782E+00  0.20547371095E+00  0.90007749113E+02  0.90000010601E+02 0.  0.
         12    1    1    2    0    0 -0.86527038650E+00  0.77593805782E+00 -0.20547371095E+00  0.11802508874E+01  0.00000000000E+00 0. -1.
         11    1    3    3    0    0  0.13406175869E+02  0.19567738948E+02 -0.29693939382E+02  0.38004631234E+02  0.51100000000E-03 0. -1.
        -11    1    3    3    0    0 -0.57192227397E+01  0.76738452896E+01 -0.11374324093E+01  0.96380061746E+01  0.51100000000E-03 0.  1.
        -12    1    3    3    0    0 -0.68216827424E+01 -0.28017522295E+02  0.31036845502E+02  0.42365111704E+02  0.00000000000E+00 0.  1.
</event>
<event>
 7    1  0.2284751E-015  0.9000773E+02  0.7816164E-02  0.1186339E+00
        -11   -1    0    0    0    0  0.00000000000E+00  0.00000000000E+00  0.45593999997E+02  0.45594000000E+02  0.51100000000E-03 0. -1.
         11   -1    0    0    0    0 -0.00000000000E+00 -0.00000000000E+00 -0.45593999997E+02  0.45594000000E+02  0.51100000000E-03 0.  1.
    9900012    2    1    2    0    0 -0.46051894214E+00  0.54027964334E+00 -0.94289328695E+00  0.90007734123E+02  0.89999995414E+02 0.  0.
         12    1    1    2    0    0  0.46051894214E+00 -0.54027964334E+00  0.94289328695E+00  0.11802658767E+01  0.00000000000E+00 0. -1.
         11    1    3    3    0    0  0.24853976266E+02  0.19430509913E+02 -0.10992391562E+02  0.33408045801E+02  0.51100000000E-03 0. -1.
        -11    1    3    3    0    0  0.13215298389E+02 -0.84761393659E+01  0.42762767563E+01  0.16271926537E+02  0.51100000000E-03 0.  1.
        -12    1    3    3    0    0 -0.38529793597E+02 -0.10414090904E+02  0.57732215187E+01  0.40327761786E+02  0.00000000000E+00 0.  1.
</event>
<event>
 7    1  0.2284751E-015  0.9000750E+02  0.7816164E-02  0.1186340E+00
        -11   -1    0    0    0    0  0.00000000000E+00  0.00000000000E+00  0.45593999997E+02  0.45594000000E+02  0.51100000000E-03 0. -1.
         11   -1    0    0    0    0 -0.00000000000E+00 -0.00000000000E+00 -0.45593999997E+02  0.45594000000E+02  0.51100000000E-03 0.  1.
    9900012    2    1    2    0    0  0.40979937430E+00 -0.47001304104E-01 -0.11060926364E+01  0.90007497747E+02  0.89999755917E+02 0.  0.
         12    1    1    2    0    0 -0.40979937430E+00  0.47001304104E-01  0.11060926364E+01  0.11805022533E+01  0.00000000000E+00 0. -1.
         11    1    3    3    0    0  0.39597688227E+01 -0.55284509141E+01 -0.58624198584E+01  0.89783910305E+01  0.51100000000E-03 0. -1.
        -11    1    3    3    0    0  0.16047614714E+02  0.26635200700E+02  0.29626089697E+02  0.42949563971E+02  0.51100000000E-03 0.  1.
         12    1    3    3    0    0 -0.19597584162E+02 -0.21153751090E+02 -0.24869762475E+02  0.38079542745E+02  0.00000000000E+00 0. -1.
</event>
<event>
 7    1  0.2284751E-015  0.9000773E+02  0.7816164E-02  0.1186339E+00
        -11   -1    0    0    0    0  0.00000000000E+00  0.00000000000E+00  0.45593999997E+02  0.45594000000E+02  0.51100000000E-03 0. -1.
         11   -1    0    0    0    0 -0.00000000000E+00 -0.00000000000E+00 -0.45593999997E+02  0.45594000000E+02  0.51100000000E-03 0.  1.
    9900012    2    1    2    0    0 -0.98762305416E-01  0.11444437594E+01  0.27116530081E+00  0.90007730483E+02  0.89999991726E+02 0.  0.
         12    1    1    2    0    0  0.98762305416E-01 -0.11444437594E+01 -0.27116530081E+00  0.11802695166E+01  0.00000000000E+00 0. -1.
         11    1    3    3    0    0  0.48411663125E+00 -0.42342702186E+02  0.36892638257E+01  0.42505875655E+02  0.51100000000E-03 0. -1.
        -11    1    3    3    0    0 -0.23956854425E+01  0.74802495740E+01  0.64051273028E+01  0.10135043091E+02  0.51100000000E-03 0.  1.
        -12    1    3    3    0    0  0.18128065058E+01  0.36006896372E+02 -0.98232258277E+01  0.37366811737E+02  0.00000000000E+00 0.  1.
</event>
<event>
 7    1  0.2284751E-015  0.9000775E+02  0.7816164E-02  0.1186339E+00
        -11   -1    0    0    0    0  0.00000000000E+00  0.00000000000E+00  0.45593999997E+02  0.45594000000E+02  0.51100000000E-03 0. -1.
         11   -1    0    0    0    0 -0.00000000000E+00 -0.00000000000E+00 -0.45593999997E+02  0.45594000000E+02  0.51100000000E-03 0.  1.
    9900012    2    1    2    0    0 -0.22577954275E+00  0.81195497503E+00 -0.82628888645E+00  0.90007745533E+02  0.90000006974E+02 0.  0.
         12    1    1    2    0    0  0.22577954275E+00 -0.81195497503E+00  0.82628888645E+00  0.11802544672E+01  0.00000000000E+00 0. -1.
         11    1    3    3    0    0 -0.11470531102E+02 -0.20598277599E-02  0.84794311742E+00  0.11501830106E+02  0.51100000000E-03 0. -1.
        -11    1    3    3    0    0 -0.17717871748E+02  0.26238926927E+02 -0.18260433010E+02  0.36549250054E+02  0.51100000000E-03 0.  1.
         12    1    3    3    0    0  0.28962623307E+02 -0.25424912124E+02  0.16586201006E+02  0.41956665372E+02  0.00000000000E+00 0. -1.
</event>
<event>
 7    1  0.2915838E-015  0.9000775E+02  0.7816164E-02  0.1186339E+00
        -11   -1    0    0    0    0  0.00000000000E+00  0.00000000000E+00  0.45593999997E+02  0.45594000000E+02  0.51100000000E-03 0.  1.
         11   -1    0    0    0    0 -0.00000000000E+00 -0.00000000000E+00 -0.45593999997E+02  0.45594000000E+02  0.51100000000E-03 0. -1.
    9900012    2    1    2    0    0 -0.23696303807E+00 -0.14683727416E+00  0.11468545365E+01  0.90007750876E+02  0.90000012388E+02 0.  0.
         12    1    1    2    0    0  0.23696303807E+00  0.14683727416E+00 -0.11468545365E+01  0.11802491239E+01  0.00000000000E+00 0. -1.
         11    1    3    3    0    0  0.10109850205E+02  0.27883706004E+02 -0.20085833436E+02  0.35821094858E+02  0.51100000000E-03 0. -1.
        -11    1    3    3    0    0 -0.57717009095E+00  0.97526357406E+01  0.23042451250E-01  0.97697267320E+01  0.51100000000E-03 0.  1.
        -12    1    3    3    0    0 -0.97696431524E+01 -0.37783179019E+02  0.21209645521E+02  0.44416929287E+02  0.00000000000E+00 0.  1.
</event>
<event>
 7    1  0.2284751E-015  0.9000775E+02  0.7816164E-02  0.1186339E+00
        -11   -1    0    0    0    0  0.00000000000E+00  0.00000000000E+00  0.45593999997E+02  0.45594000000E+02  0.51100000000E-03 0.  1.
         11   -1    0    0    0    0 -0.00000000000E+00 -0.00000000000E+00 -0.45593999997E+02  0.45594000000E+02  0.51100000000E-03 0. -1.
    9900012    2    1    2    0    0 -0.76490467451E+00  0.48162062964E+00  0.75891412088E+00  0.90007750774E+02  0.90000012284E+02 0.  0.
         12    1    1    2    0    0  0.76490467451E+00 -0.48162062964E+00 -0.75891412088E+00  0.11802492257E+01  0.00000000000E+00 0. -1.
         11    1    3    3    0    0 -0.39759592192E+00 -0.13020548976E+02  0.15762086604E+02  0.20448377748E+02  0.51100000000E-03 0. -1.
        -11    1    3    3    0    0 -0.12340995738E+02  0.34131406882E+02  0.71669462058E+01  0.36994840582E+02  0.51100000000E-03 0.  1.
         12    1    3    3    0    0  0.11973686985E+02 -0.20629237277E+02 -0.22170118689E+02  0.32564532444E+02  0.00000000000E+00 0. -1.
</event>
<event>
 7    1  0.2284751E-015  0.9000759E+02  0.7816164E-02  0.1186339E+00
        -11   -1    0    0    0    0  0.00000000000E+00  0.00000000000E+00  0.45593999997E+02  0.45594000000E+02  0.51100000000E-03 0.  1.
         11   -1    0    0    0    0 -0.00000000000E+00 -0.00000000000E+00 -0.45593999997E+02  0.45594000000E+02  0.51100000000E-03 0. -1.
    9900012    2    1    2    0    0 -0.89628181381E+00  0.21538069902E-01 -0.76783584956E+00  0.90007594616E+02  0.89999854065E+02 0.  0.
         12    1    1    2    0    0  0.89628181381E+00 -0.21538069902E-01  0.76783584956E+00  0.11804053838E+01  0.00000000000E+00 0. -1.
         11    1    3    3    0    0  0.30252485615E+01  0.20658017933E+02 -0.39098222506E+02  0.44323547208E+02  0.51100000000E-03 0. -1.
        -11    1    3    3    0    0  0.24096920690E+01 -0.50916362109E+00  0.10354901892E+02  0.10643770803E+02  0.51100000000E-03 0.  1.
        -12    1    3    3    0    0 -0.63312224443E+01 -0.20127316242E+02  0.27975484764E+02  0.35040276605E+02  0.00000000000E+00 0.  1.
</event>
<event>
 7    1  0.2284751E-015  0.9000782E+02  0.7816164E-02  0.1186339E+00
        -11   -1    0    0    0    0  0.00000000000E+00  0.00000000000E+00  0.45593999997E+02  0.45594000000E+02  0.51100000000E-03 0.  1.
         11   -1    0    0    0    0 -0.00000000000E+00 -0.00000000000E+00 -0.45593999997E+02  0.45594000000E+02  0.51100000000E-03 0. -1.
    9900012    2    1    2    0    0 -0.32006523088E+00 -0.91988242956E-01  0.11322236973E+01  0.90007816078E+02  0.90000078450E+02 0.  0.
         12    1    1    2    0    0  0.32006523088E+00  0.91988242956E-01 -0.11322236973E+01  0.11801839219E+01  0.00000000000E+00 0. -1.
         11    1    3    3    0    0  0.64850294636E+01 -0.46671228864E+01  0.12850850309E+01  0.80925327913E+01  0.51100000000E-03 0. -1.
        -11    1    3    3    0    0  0.41374692443E+01  0.35198712688E+02  0.22772722506E+02  0.42126771978E+02  0.51100000000E-03 0.  1.
         12    1    3    3    0    0 -0.10942563939E+02 -0.30623578044E+02 -0.22925583840E+02  0.39788511309E+02  0.00000000000E+00 0. -1.
</event>
<event>
 7    1  0.2284751E-015  0.9000779E+02  0.7816164E-02  0.1186339E+00
        -11   -1    0    0    0    0  0.00000000000E+00  0.00000000000E+00  0.45593999997E+02  0.45594000000E+02  0.51100000000E-03 0. -1.
         11   -1    0    0    0    0 -0.00000000000E+00 -0.00000000000E+00 -0.45593999997E+02  0.45594000000E+02  0.51100000000E-03 0.  1.
    9900012    2    1    2    0    0  0.19055044165E+00  0.11533226271E+01 -0.16258397364E+00  0.90007789806E+02  0.90000051832E+02 0.  0.
         12    1    1    2    0    0 -0.19055044165E+00 -0.11533226271E+01  0.16258397364E+00  0.11802101938E+01  0.00000000000E+00 0. -1.
         11    1    3    3    0    0  0.35133835431E+02  0.91776084590E+01  0.10286648199E+02  0.37741621859E+02  0.51100000000E-03 0. -1.
        -11    1    3    3    0    0 -0.65470257583E+01 -0.84796038063E+01  0.11984462707E+02  0.16074656253E+02  0.51100000000E-03 0.  1.
        -12    1    3    3    0    0 -0.28396259231E+02  0.45531797442E+00 -0.22433694880E+02  0.36191511695E+02  0.00000000000E+00 0.  1.
</event>
<event>
 7    1  0.2284751E-015  0.9000770E+02  0.7816164E-02  0.1186339E+00
        -11   -1    0    0    0    0  0.00000000000E+00  0.00000000000E+00  0.45593999997E+02  0.45594000000E+02  0.51100000000E-03 0. -1.
         11   -1    0    0    0    0 -0.00000000000E+00 -0.00000000000E+00 -0.45593999997E+02  0.45594000000E+02  0.51100000000E-03 0.  1.
    9900012    2    1    2    0    0  0.70270124650E+00 -0.93582744333E+00 -0.15347526221E+00  0.90007696352E+02  0.89999957144E+02 0.  0.
         12    1    1    2    0    0 -0.70270124650E+00  0.93582744333E+00  0.15347526221E+00  0.11803036481E+01  0.00000000000E+00 0. -1.
         11    1    3    3    0    0 -0.34761581847E+01 -0.93485659175E+01  0.47759764251E+01  0.11058449779E+02  0.51100000000E-03 0. -1.
        -11    1    3    3    0    0 -0.34195866565E+02  0.17214251995E+02 -0.91204120114E+01  0.39355681641E+02  0.51100000000E-03 0.  1.
         12    1    3    3    0    0  0.38374725997E+02 -0.88015135211E+01  0.41909603241E+01  0.39593564932E+02  0.00000000000E+00 0. -1.
</event>
<event>
 7    1  0.2284751E-015  0.9000769E+02  0.7816164E-02  0.1186339E+00
        -11   -1    0    0    0    0  0.00000000000E+00  0.00000000000E+00  0.45593999997E+02  0.45594000000E+02  0.51100000000E-03 0.  1.
         11   -1    0    0    0    0 -0.00000000000E+00 -0.00000000000E+00 -0.45593999997E+02  0.45594000000E+02  0.51100000000E-03 0. -1.
    9900012    2    1    2    0    0 -0.11327806755E+01 -0.33558429881E-02  0.33155793543E+00  0.90007689030E+02  0.89999949726E+02 0.  0.
         12    1    1    2    0    0  0.11327806755E+01  0.33558429881E-02 -0.33155793543E+00  0.11803109696E+01  0.00000000000E+00 0. -1.
         11    1    3    3    0    0 -0.13400457677E+02 -0.22620440978E+02 -0.29565317282E+02  0.39564688830E+02  0.51100000000E-03 0. -1.
        -11    1    3    3    0    0 -0.51309835154E+01  0.58197089622E+01 -0.40582537932E+01  0.87558796447E+01  0.51100000000E-03 0.  1.
        -12    1    3    3    0    0  0.17398660517E+02  0.16797376173E+02  0.33955129011E+02  0.41687120555E+02  0.00000000000E+00 0.  1.
</event>
<event>
 7    1  0.2284751E-015  0.9000773E+02  0.7816164E-02  0.1186339E+00
        -11   -1    0    0    0    0  0.00000000000E+00  0.00000000000E+00  0.45593999997E+02  0.45594000000E+02  0.51100000000E-03 0.  1.
         11   -1    0    0    0    0 -0.00000000000E+00 -0.00000000000E+00 -0.45593999997E+02  0.45594000000E+02  0.51100000000E-03 0. -1.
    9900012    2    1    2    0    0 -0.45333171327E+00 -0.94538503282E-01  0.10856298768E+01  0.90007729099E+02  0.89999990323E+02 0.  0.
         12    1    1    2    0    0  0.45333171327E+00  0.94538503282E-01 -0.10856298768E+01  0.11802709012E+01  0.00000000000E+00 0. -1.
         11    1    3    3    0    0  0.56507599019E+01  0.98330085393E+01 -0.12028654573E+00  0.11341675957E+02  0.51100000000E-03 0. -1.
        -11    1    3    3    0    0 -0.39502714192E+02  0.80855640090E+01  0.45240225512E+01  0.40574715700E+02  0.51100000000E-03 0.  1.
         12    1    3    3    0    0  0.33398622577E+02 -0.18013111052E+02 -0.33181061287E+01  0.38091337441E+02  0.00000000000E+00 0. -1.
</event>
<event>
 7    1  0.2284751E-015  0.9000775E+02  0.7816164E-02  0.1186339E+00
        -11   -1    0    0    0    0  0.00000000000E+00  0.00000000000E+00  0.45593999997E+02  0.45594000000E+02  0.51100000000E-03 0.  1.
         11   -1    0    0    0    0 -0.00000000000E+00 -0.00000000000E+00 -0.45593999997E+02  0.45594000000E+02  0.51100000000E-03 0. -1.
    9900012    2    1    2    0    0 -0.11198121743E+01  0.19805226211E+00  0.31589421712E+00  0.90007748688E+02  0.90000010170E+02 0.  0.
         12    1    1    2    0    0  0.11198121743E+01 -0.19805226211E+00 -0.31589421712E+00  0.11802513125E+01  0.00000000000E+00 0. -1.
         11    1    3    3    0    0  0.30972833759E+02 -0.14232622774E+02 -0.13652824854E+01  0.34113750580E+02  0.51100000000E-03 0. -1.
        -11    1    3    3    0    0  0.47053833722E+01 -0.62492265774E+01  0.10177616011E+02  0.12836562368E+02  0.51100000000E-03 0.  1.
        -12    1    3    3    0    0 -0.36798029306E+02  0.20679901614E+02 -0.84964393087E+01  0.43057435740E+02  0.00000000000E+00 0.  1.
</event>
<event>
 7    1  0.2284751E-015  0.9000770E+02  0.7816164E-02  0.1186339E+00
        -11   -1    0    0    0    0  0.00000000000E+00  0.00000000000E+00  0.45593999997E+02  0.45594000000E+02  0.51100000000E-03 0. -1.
         11   -1    0    0    0    0 -0.00000000000E+00 -0.00000000000E+00 -0.45593999997E+02  0.45594000000E+02  0.51100000000E-03 0.  1.
    9900012    2    1    2    0    0  0.99283744973E+00  0.41361867009E+00 -0.48609745718E+00  0.90007704552E+02  0.89999965452E+02 0.  0.
         12    1    1    2    0    0 -0.99283744973E+00 -0.41361867009E+00  0.48609745718E+00  0.11802954476E+01  0.00000000000E+00 0. -1.
         11    1    3    3    0    0  0.17213468196E+01  0.43224482514E+01 -0.90545824611E+01  0.10179983181E+02  0.51100000000E-03 0. -1.
        -11    1    3    3    0    0 -0.19774688218E+01  0.32445731426E+02 -0.15700486912E+02  0.36099046528E+02  0.51100000000E-03 0.  1.
         12    1    3    3    0    0  0.12489594520E+01 -0.36354561007E+02  0.24268971916E+02  0.43728674844E+02  0.00000000000E+00 0. -1.
</event>
<event>
 7    1  0.2284751E-015  0.9000774E+02  0.7816164E-02  0.1186339E+00
        -11   -1    0    0    0    0  0.00000000000E+00  0.00000000000E+00  0.45593999997E+02  0.45594000000E+02  0.51100000000E-03 0. -1.
         11   -1    0    0    0    0 -0.00000000000E+00 -0.00000000000E+00 -0.45593999997E+02  0.45594000000E+02  0.51100000000E-03 0.  1.
    9900012    2    1    2    0    0 -0.41517550164E-01  0.78948717896E+00 -0.87635597695E+00  0.90007740066E+02  0.90000001435E+02 0.  0.
         12    1    1    2    0    0  0.41517550164E-01 -0.78948717896E+00  0.87635597695E+00  0.11802599337E+01  0.00000000000E+00 0. -1.
         11    1    3    3    0    0 -0.30719735885E+02  0.13029480391E+02  0.20521093726E+02  0.39173777199E+02  0.51100000000E-03 0. -1.
        -11    1    3    3    0    0  0.34812469242E+01  0.26683342247E+01  0.73407591924E+01  0.85513644211E+01  0.51100000000E-03 0.  1.
        -12    1    3    3    0    0  0.27196971411E+02 -0.14908327436E+02 -0.28738208895E+02  0.42282598446E+02  0.00000000000E+00 0.  1.
</event>
<event>
 7    1  0.2284751E-015  0.9000777E+02  0.7816164E-02  0.1186339E+00
        -11   -1    0    0    0    0  0.00000000000E+00  0.00000000000E+00  0.45593999997E+02  0.45594000000E+02  0.51100000000E-03 0.  1.
         11   -1    0    0    0    0 -0.00000000000E+00 -0.00000000000E+00 -0.45593999997E+02  0.45594000000E+02  0.51100000000E-03 0. -1.
    9900012    2    1    2    0    0 -0.41228212738E+00 -0.38838665340E+00  0.10354380373E+01  0.90007765839E+02  0.90000027548E+02 0.  0.
         12    1    1    2    0    0  0.41228212738E+00  0.38838665340E+00 -0.10354380373E+01  0.11802341607E+01  0.00000000000E+00 0. -1.
         11    1    3    3    0    0  0.55587053756E+01 -0.17540230520E+02 -0.15611410507E+02  0.24130375680E+02  0.51100000000E-03 0. -1.
        -11    1    3    3    0    0 -0.24911344539E+02 -0.39971570613E+01 -0.98103237806E+01  0.27070182937E+02  0.51100000000E-03 0.  1.
         12    1    3    3    0    0  0.18940357036E+02  0.21149000928E+02  0.26457172325E+02  0.38807207222E+02  0.00000000000E+00 0. -1.
</event>
<event>
 7    1  0.2284751E-015  0.9000774E+02  0.7816164E-02  0.1186339E+00
        -11   -1    0    0    0    0  0.00000000000E+00  0.00000000000E+00  0.45593999997E+02  0.45594000000E+02  0.51100000000E-03 0.  1.
         11   -1    0    0    0    0 -0.00000000000E+00 -0.00000000000E+00 -0.45593999997E+02  0.45594000000E+02  0.51100000000E-03 0. -1.
    9900012    2    1    2    0    0 -0.11620313776E+01 -0.10544821544E-01  0.20637517874E+00  0.90007737813E+02  0.89999999152E+02 0.  0.
         12    1    1    2    0    0  0.11620313776E+01  0.10544821544E-01 -0.20637517874E+00  0.11802621870E+01  0.00000000000E+00 0. -1.
         11    1    3    3    0    0 -0.58458838590E+01  0.72350871279E+01 -0.22502856323E+01  0.95699858688E+01  0.51100000000E-03 0. -1.
        -11    1    3    3    0    0  0.10147272125E+02  0.28079134397E+02 -0.22035050242E+02  0.37107254809E+02  0.51100000000E-03 0.  1.
         12    1    3    3    0    0 -0.54634196437E+01 -0.35324766346E+02  0.24491711053E+02  0.43330497135E+02  0.00000000000E+00 0. -1.
</event>
<event>
 7    1  0.2284751E-015  0.9000776E+02  0.7816164E-02  0.1186339E+00
        -11   -1    0    0    0    0  0.00000000000E+00  0.00000000000E+00  0.45593999997E+02  0.45594000000E+02  0.51100000000E-03 0.  1.
         11   -1    0    0    0    0 -0.00000000000E+00 -0.00000000000E+00 -0.45593999997E+02  0.45594000000E+02  0.51100000000E-03 0. -1.
    9900012    2    1    2    0    0 -0.48665872467E+00  0.10744028633E+01  0.42155852931E-01  0.90007764709E+02  0.90000026403E+02 0.  0.
         12    1    1    2    0    0  0.48665872467E+00 -0.10744028633E+01 -0.42155852931E-01  0.11802352913E+01  0.00000000000E+00 0. -1.
         11    1    3    3    0    0  0.39456965035E+01 -0.94756133617E+01  0.77451930315E+00  0.10293476084E+02  0.51100000000E-03 0. -1.
        -11    1    3    3    0    0  0.11397704769E+02 -0.23231765450E+02 -0.24372768569E+02  0.35547917631E+02  0.51100000000E-03 0.  1.
         12    1    3    3    0    0 -0.15830059997E+02  0.33781781675E+02  0.23640405119E+02  0.44166370994E+02  0.00000000000E+00 0. -1.
</event>
<event>
 7    1  0.3119973E-015  0.9000768E+02  0.7816164E-02  0.1186339E+00
        -11   -1    0    0    0    0  0.00000000000E+00  0.00000000000E+00  0.45593999997E+02  0.45594000000E+02  0.51100000000E-03 0. -1.
         11   -1    0    0    0    0 -0.00000000000E+00 -0.00000000000E+00 -0.45593999997E+02  0.45594000000E+02  0.51100000000E-03 0.  1.
    9900012    2    1    2    0    0 -0.85508813143E+00  0.10041895930E+00 -0.80740157879E+00  0.90007679285E+02  0.89999939852E+02 0.  0.
         12    1    1    2    0    0  0.85508813143E+00 -0.10041895930E+00  0.80740157879E+00  0.11803207146E+01  0.00000000000E+00 0. -1.
         11    1    3    3    0    0 -0.43774359030E+01 -0.24209021067E+02  0.27975339987E+02  0.37253970175E+02  0.51100000000E-03 0. -1.
        -11    1    3    3    0    0 -0.43124829158E+01 -0.81102464876E+01 -0.80610273392E+00  0.92208138940E+01  0.51100000000E-03 0.  1.
        -12    1    3    3    0    0  0.78348306874E+01  0.32419686514E+02 -0.27976638832E+02  0.43532895217E+02  0.00000000000E+00 0.  1.
</event>
<event>
 7    1  0.2284751E-015  0.9000780E+02  0.7816164E-02  0.1186339E+00
        -11   -1    0    0    0    0  0.00000000000E+00  0.00000000000E+00  0.45593999997E+02  0.45594000000E+02  0.51100000000E-03 0.  1.
         11   -1    0    0    0    0 -0.00000000000E+00 -0.00000000000E+00 -0.45593999997E+02  0.45594000000E+02  0.51100000000E-03 0. -1.
    9900012    2    1    2    0    0  0.77991626571E-01  0.11375128957E+01  0.30471716801E+00  0.90007800511E+02  0.90000062678E+02 0.  0.
         12    1    1    2    0    0 -0.77991626571E-01 -0.11375128957E+01 -0.30471716801E+00  0.11801994891E+01  0.00000000000E+00 0. -1.
         11    1    3    3    0    0 -0.16443704253E+02 -0.87604286811E+01  0.58672920586E+01  0.19533705143E+02  0.51100000000E-03 0. -1.
        -11    1    3    3    0    0 -0.74671811502E+01  0.32502702090E+02  0.88437357321E+01  0.34502117319E+02  0.51100000000E-03 0.  1.
         12    1    3    3    0    0  0.23988877030E+02 -0.22604760514E+02 -0.14406310623E+02  0.35971978050E+02  0.00000000000E+00 0. -1.
</event>
<event>
 7    1  0.2284751E-015  0.9000847E+02  0.7816164E-02  0.1186338E+00
        -11   -1    0    0    0    0  0.00000000000E+00  0.00000000000E+00  0.45593999997E+02  0.45594000000E+02  0.51100000000E-03 0. -1.
         11   -1    0    0    0    0 -0.00000000000E+00 -0.00000000000E+00 -0.45593999997E+02  0.45594000000E+02  0.51100000000E-03 0.  1.
    9900012    2    1    2    0    0  0.11653041248E+01 -0.61226162947E-01  0.17207302866E+00  0.90008469808E+02  0.90000740807E+02 0.  0.
         12    1    1    2    0    0 -0.11653041248E+01  0.61226162947E-01 -0.17207302866E+00  0.11795301918E+01  0.00000000000E+00 0. -1.
         11    1    3    3    0    0 -0.33073804586E+01  0.51318194083E+01  0.61819980686E+01  0.86885808001E+01  0.51100000000E-03 0. -1.
        -11    1    3    3    0    0 -0.20603949783E+01  0.35112728756E+02  0.11338382538E+02  0.36955484938E+02  0.51100000000E-03 0.  1.
         12    1    3    3    0    0  0.65330795616E+01 -0.40305774327E+02 -0.17348307578E+02  0.44364404070E+02  0.00000000000E+00 0. -1.
</event>
<event>
 7    1  0.2284751E-015  0.9000782E+02  0.7816164E-02  0.1186339E+00
        -11   -1    0    0    0    0  0.00000000000E+00  0.00000000000E+00  0.45593999997E+02  0.45594000000E+02  0.51100000000E-03 0.  1.
         11   -1    0    0    0    0 -0.00000000000E+00 -0.00000000000E+00 -0.45593999997E+02  0.45594000000E+02  0.51100000000E-03 0. -1.
    9900012    2    1    2    0    0 -0.10509015390E+01  0.27183691126E+00 -0.46318253908E+00  0.90007818906E+02  0.90000081315E+02 0.  0.
         12    1    1    2    0    0  0.10509015390E+01 -0.27183691126E+00  0.46318253908E+00  0.11801810943E+01  0.00000000000E+00 0. -1.
         11    1    3    3    0    0 -0.12149168534E+02  0.34411659021E+02 -0.36904188328E+01  0.36679473334E+02  0.51100000000E-03 0. -1.
        -11    1    3    3    0    0 -0.66363703515E+01  0.33038842543E+01 -0.74848285813E+01  0.10534691346E+02  0.51100000000E-03 0.  1.
        -12    1    3    3    0    0  0.17734637347E+02 -0.37443706364E+02  0.10712064875E+02  0.42793654225E+02  0.00000000000E+00 0.  1.
</event>
<event>
 7    1  0.2284751E-015  0.9000775E+02  0.7816164E-02  0.1186339E+00
        -11   -1    0    0    0    0  0.00000000000E+00  0.00000000000E+00  0.45593999997E+02  0.45594000000E+02  0.51100000000E-03 0.  1.
         11   -1    0    0    0    0 -0.00000000000E+00 -0.00000000000E+00 -0.45593999997E+02  0.45594000000E+02  0.51100000000E-03 0. -1.
    9900012    2    1    2    0    0 -0.55595261640E+00  0.41933143219E+00  0.95292463459E+00  0.90007751077E+02  0.90000012591E+02 0.  0.
         12    1    1    2    0    0  0.55595261640E+00 -0.41933143219E+00 -0.95292463459E+00  0.11802489233E+01  0.00000000000E+00 0. -1.
         11    1    3    3    0    0  0.13550463685E+01  0.42034132039E+01 -0.20402976764E+02  0.20875495068E+02  0.51100000000E-03 0. -1.
        -11    1    3    3    0    0  0.20871583975E+02  0.16982090575E+02  0.26630548753E+02  0.37857635228E+02  0.51100000000E-03 0.  1.
        -12    1    3    3    0    0 -0.22782582960E+02 -0.20766172347E+02 -0.52746473539E+01  0.31274620781E+02  0.00000000000E+00 0.  1.
</event>
<event>
 7    1  0.2284751E-015  0.9000768E+02  0.7816164E-02  0.1186339E+00
        -11   -1    0    0    0    0  0.00000000000E+00  0.00000000000E+00  0.45593999997E+02  0.45594000000E+02  0.51100000000E-03 0. -1.
         11   -1    0    0    0    0 -0.00000000000E+00 -0.00000000000E+00 -0.45593999997E+02  0.45594000000E+02  0.51100000000E-03 0.  1.
    9900012    2    1    2    0    0  0.10254849593E+01  0.14905395936E+00 -0.56507438427E+00  0.90007684134E+02  0.89999944764E+02 0.  0.
         12    1    1    2    0    0 -0.10254849593E+01 -0.14905395936E+00  0.56507438427E+00  0.11803158663E+01  0.00000000000E+00 0. -1.
         11    1    3    3    0    0  0.75241526378E+00 -0.27362192042E+02  0.22762184162E+02  0.35600178513E+02  0.51100000000E-03 0. -1.
        -11    1    3    3    0    0 -0.14286326752E+02 -0.22266798355E+01 -0.10432737969E+01  0.14496401472E+02  0.51100000000E-03 0.  1.
        -12    1    3    3    0    0  0.14559396448E+02  0.29737925837E+02 -0.22283984750E+02  0.39911104148E+02  0.00000000000E+00 0.  1.
</event>
<event>
 7    1  0.2284751E-015  0.9000675E+02  0.7816164E-02  0.1186341E+00
        -11   -1    0    0    0    0  0.00000000000E+00  0.00000000000E+00  0.45593999997E+02  0.45594000000E+02  0.51100000000E-03 0. -1.
         11   -1    0    0    0    0 -0.00000000000E+00 -0.00000000000E+00 -0.45593999997E+02  0.45594000000E+02  0.51100000000E-03 0.  1.
    9900012    2    1    2    0    0 -0.99012679724E+00  0.30386408015E+00 -0.56804594312E+00  0.90006746155E+02  0.89998994398E+02 0.  0.
         12    1    1    2    0    0  0.99012679724E+00 -0.30386408015E+00  0.56804594312E+00  0.11812538454E+01  0.00000000000E+00 0. -1.
         11    1    3    3    0    0  0.22766385812E+02 -0.30326619687E+02  0.13833829782E+01  0.37946355995E+02  0.51100000000E-03 0. -1.
        -11    1    3    3    0    0  0.33787027177E+01 -0.42214204525E+01 -0.55446634550E+01  0.77446314168E+01  0.51100000000E-03 0.  1.
        -12    1    3    3    0    0 -0.27135215327E+02  0.34851904220E+02  0.35932345337E+01  0.44315758743E+02  0.00000000000E+00 0.  1.
</event>
<event>
 7    1  0.2284751E-015  0.9000775E+02  0.7816164E-02  0.1186339E+00
        -11   -1    0    0    0    0  0.00000000000E+00  0.00000000000E+00  0.45593999997E+02  0.45594000000E+02  0.51100000000E-03 0. -1.
         11   -1    0    0    0    0 -0.00000000000E+00 -0.00000000000E+00 -0.45593999997E+02  0.45594000000E+02  0.51100000000E-03 0.  1.
    9900012    2    1    2    0    0 -0.10309390573E+01  0.57439924071E+00  0.15143420587E-01  0.90007746150E+02  0.90000007599E+02 0.  0.
         12    1    1    2    0    0  0.10309390573E+01 -0.57439924071E+00 -0.15143420587E-01  0.11802538501E+01  0.00000000000E+00 0. -1.
         11    1    3    3    0    0  0.44624419172E+01 -0.76279120947E+01  0.31524114615E+02  0.32739398793E+02  0.51100000000E-03 0. -1.
        -11    1    3    3    0    0 -0.19613032317E+02 -0.11037260889E+02 -0.83232364284E+01  0.23995175130E+02  0.51100000000E-03 0.  1.
        -12    1    3    3    0    0  0.14119651343E+02  0.19239572224E+02 -0.23185734766E+02  0.33273172227E+02  0.00000000000E+00 0.  1.
</event>
<event>
 7    1  0.2284751E-015  0.9000778E+02  0.7816164E-02  0.1186339E+00
        -11   -1    0    0    0    0  0.00000000000E+00  0.00000000000E+00  0.45593999997E+02  0.45594000000E+02  0.51100000000E-03 0.  1.
         11   -1    0    0    0    0 -0.00000000000E+00 -0.00000000000E+00 -0.45593999997E+02  0.45594000000E+02  0.51100000000E-03 0. -1.
    9900012    2    1    2    0    0 -0.55771744552E+00 -0.51600432044E-01  0.10388535120E+01  0.90007776304E+02  0.90000038151E+02 0.  0.
         12    1    1    2    0    0  0.55771744552E+00  0.51600432044E-01 -0.10388535120E+01  0.11802236962E+01  0.00000000000E+00 0. -1.
         11    1    3    3    0    0  0.49983666249E+01  0.50157655779E+01 -0.66214034337E+01  0.96945632672E+01  0.51100000000E-03 0. -1.
        -11    1    3    3    0    0 -0.14228995056E+02  0.35459910648E+02  0.71130579607E+01  0.38864703232E+02  0.51100000000E-03 0.  1.
         12    1    3    3    0    0  0.86729109856E+01 -0.40527276658E+02  0.54719898497E+00  0.41448509805E+02  0.00000000000E+00 0. -1.
</event>
<event>
 7    1  0.2284751E-015  0.9000771E+02  0.7816164E-02  0.1186339E+00
        -11   -1    0    0    0    0  0.00000000000E+00  0.00000000000E+00  0.45593999997E+02  0.45594000000E+02  0.51100000000E-03 0.  1.
         11   -1    0    0    0    0 -0.00000000000E+00 -0.00000000000E+00 -0.45593999997E+02  0.45594000000E+02  0.51100000000E-03 0. -1.
    9900012    2    1    2    0    0  0.27040799645E+00  0.11254704442E+01 -0.23080797900E+00  0.90007713370E+02  0.89999974387E+02 0.  0.
         12    1    1    2    0    0 -0.27040799645E+00 -0.11254704442E+01  0.23080797900E+00  0.11802866298E+01  0.00000000000E+00 0. -1.
         11    1    3    3    0    0  0.14098266269E+02  0.51628844309E+01  0.23324634021E+02  0.27739052613E+02  0.51100000000E-03 0.  1.
        -11    1    3    3    0    0  0.93858505971E+01 -0.18934265023E+02 -0.27201852943E+02  0.34446210055E+02  0.51100000000E-03 0. -1.
         12    1    3    3    0    0 -0.23213708869E+02  0.14896851036E+02  0.36464109433E+01  0.27822450701E+02  0.00000000000E+00 0. -1.
</event>
<event>
 7    1  0.2284751E-015  0.9000757E+02  0.7816164E-02  0.1186339E+00
        -11   -1    0    0    0    0  0.00000000000E+00  0.00000000000E+00  0.45593999997E+02  0.45594000000E+02  0.51100000000E-03 0. -1.
         11   -1    0    0    0    0 -0.00000000000E+00 -0.00000000000E+00 -0.45593999997E+02  0.45594000000E+02  0.51100000000E-03 0.  1.
    9900012    2    1    2    0    0 -0.84589251799E+00  0.70086881686E+00  0.43203900810E+00  0.90007572554E+02  0.89999831712E+02 0.  0.
         12    1    1    2    0    0  0.84589251799E+00 -0.70086881686E+00 -0.43203900810E+00  0.11804274459E+01  0.00000000000E+00 0. -1.
         11    1    3    3    0    0  0.57183706594E+01  0.53592459387E+01  0.48524854596E+01  0.92178031779E+01  0.51100000000E-03 0. -1.
        -11    1    3    3    0    0  0.23316026958E+02  0.14023078699E+02 -0.27484078494E+02  0.38673743292E+02  0.51100000000E-03 0.  1.
         12    1    3    3    0    0 -0.29880290135E+02 -0.18681455821E+02  0.23063632042E+02  0.42116026084E+02  0.00000000000E+00 0. -1.
</event>
<event>
 7    1  0.2284751E-015  0.9000766E+02  0.7816164E-02  0.1186339E+00
        -11   -1    0    0    0    0  0.00000000000E+00  0.00000000000E+00  0.45593999997E+02  0.45594000000E+02  0.51100000000E-03 0. -1.
         11   -1    0    0    0    0 -0.00000000000E+00 -0.00000000000E+00 -0.45593999997E+02  0.45594000000E+02  0.51100000000E-03 0.  1.
    9900012    2    1    2    0    0  0.68930385030E+00  0.30271213883E+00 -0.90908131269E+00  0.90007659680E+02  0.89999919988E+02 0.  0.
         12    1    1    2    0    0 -0.68930385030E+00 -0.30271213883E+00  0.90908131269E+00  0.11803403196E+01  0.00000000000E+00 0. -1.
         11    1    3    3    0    0 -0.17387556697E+01  0.40597218100E+01 -0.70271696569E+01  0.82997425323E+01  0.51100000000E-03 0. -1.
        -11    1    3    3    0    0  0.17495263446E+02  0.35233391909E+02 -0.76064833710E+00  0.39345326719E+02  0.51100000000E-03 0.  1.
         12    1    3    3    0    0 -0.15067203926E+02 -0.38990401580E+02  0.68787366813E+01  0.42362590429E+02  0.00000000000E+00 0. -1.
</event>
<event>
 7    1  0.2284751E-015  0.9000773E+02  0.7816164E-02  0.1186339E+00
        -11   -1    0    0    0    0  0.00000000000E+00  0.00000000000E+00  0.45593999997E+02  0.45594000000E+02  0.51100000000E-03 0. -1.
         11   -1    0    0    0    0 -0.00000000000E+00 -0.00000000000E+00 -0.45593999997E+02  0.45594000000E+02  0.51100000000E-03 0.  1.
    9900012    2    1    2    0    0  0.62425338462E+00 -0.39871916058E-01 -0.10008724200E+01  0.90007734073E+02  0.89999995362E+02 0.  0.
         12    1    1    2    0    0 -0.62425338462E+00  0.39871916058E-01  0.10008724200E+01  0.11802659273E+01  0.00000000000E+00 0. -1.
         11    1    3    3    0    0  0.19675449965E+02 -0.21497081726E+02  0.20475939817E+02  0.35616175619E+02  0.51100000000E-03 0. -1.
        -11    1    3    3    0    0  0.69158535980E+01  0.18141455480E+00  0.73856685105E+01  0.10119784674E+02  0.51100000000E-03 0.  1.
        -12    1    3    3    0    0 -0.25967050179E+02  0.21275795255E+02 -0.28862480747E+02  0.44271773780E+02  0.00000000000E+00 0.  1.
</event>
<event>
 7    1  0.2284751E-015  0.9000772E+02  0.7816164E-02  0.1186339E+00
        -11   -1    0    0    0    0  0.00000000000E+00  0.00000000000E+00  0.45593999997E+02  0.45594000000E+02  0.51100000000E-03 0. -1.
         11   -1    0    0    0    0 -0.00000000000E+00 -0.00000000000E+00 -0.45593999997E+02  0.45594000000E+02  0.51100000000E-03 0.  1.
    9900012    2    1    2    0    0  0.57123027625E+00 -0.97290654741E+00  0.34671891304E+00  0.90007718176E+02  0.89999979256E+02 0.  0.
         12    1    1    2    0    0 -0.57123027625E+00  0.97290654741E+00 -0.34671891304E+00  0.11802818236E+01  0.00000000000E+00 0. -1.
         11    1    3    3    0    0 -0.33217814701E+00 -0.93706095891E+01  0.17540701689E+01  0.95391524158E+01  0.51100000000E-03 0. -1.
        -11    1    3    3    0    0  0.40410271890E+02  0.52817264653E+01 -0.24236545295E+01  0.40825982049E+02  0.51100000000E-03 0.  1.
         12    1    3    3    0    0 -0.39506863467E+02  0.31159765764E+01  0.10163032736E+01  0.39642583712E+02  0.00000000000E+00 0. -1.
</event>
<event>
 7    1  0.2284751E-015  0.9000775E+02  0.7816164E-02  0.1186339E+00
        -11   -1    0    0    0    0  0.00000000000E+00  0.00000000000E+00  0.45593999997E+02  0.45594000000E+02  0.51100000000E-03 0.  1.
         11   -1    0    0    0    0 -0.00000000000E+00 -0.00000000000E+00 -0.45593999997E+02  0.45594000000E+02  0.51100000000E-03 0. -1.
    9900012    2    1    2    0    0  0.10591413563E+01  0.14786954741E+00 -0.49933929071E+00  0.90007751915E+02  0.90000013440E+02 0.  0.
         12    1    1    2    0    0 -0.10591413563E+01 -0.14786954741E+00  0.49933929071E+00  0.11802480854E+01  0.00000000000E+00 0. -1.
         11    1    3    3    0    0 -0.36097646254E+01  0.22902970071E+02 -0.24956334729E+02  0.34064572243E+02  0.51100000000E-03 0. -1.
        -11    1    3    3    0    0 -0.11513583782E+02  0.89704367346E+01  0.54973377828E+01  0.15596540311E+02  0.51100000000E-03 0.  1.
        -12    1    3    3    0    0  0.16182489764E+02 -0.31725537258E+02  0.18959657655E+02  0.40346639361E+02  0.00000000000E+00 0.  1.
</event>
<event>
 7    1  0.2284751E-015  0.9000781E+02  0.7816164E-02  0.1186339E+00
        -11   -1    0    0    0    0  0.00000000000E+00  0.00000000000E+00  0.45593999997E+02  0.45594000000E+02  0.51100000000E-03 0. -1.
         11   -1    0    0    0    0 -0.00000000000E+00 -0.00000000000E+00 -0.45593999997E+02  0.45594000000E+02  0.51100000000E-03 0.  1.
    9900012    2    1    2    0    0 -0.79678814771E+00  0.68920865943E-01 -0.86789140071E+00  0.90007806405E+02  0.90000068650E+02 0.  0.
         12    1    1    2    0    0  0.79678814771E+00 -0.68920865943E-01  0.86789140071E+00  0.11801935949E+01  0.00000000000E+00 0. -1.
         11    1    3    3    0    0  0.60661022284E+01 -0.39437831632E+02 -0.11751181485E+01  0.39918931136E+02  0.51100000000E-03 0. -1.
        -11    1    3    3    0    0  0.37662175105E+00  0.68889541967E+00 -0.93945763186E+01  0.94273265197E+01  0.51100000000E-03 0.  1.
        -12    1    3    3    0    0 -0.72395121272E+01  0.38817857078E+02  0.97018030664E+01  0.40661548750E+02  0.00000000000E+00 0.  1.
</event>
<event>
 7    1  0.2284751E-015  0.9000775E+02  0.7816164E-02  0.1186339E+00
        -11   -1    0    0    0    0  0.00000000000E+00  0.00000000000E+00  0.45593999997E+02  0.45594000000E+02  0.51100000000E-03 0. -1.
         11   -1    0    0    0    0 -0.00000000000E+00 -0.00000000000E+00 -0.45593999997E+02  0.45594000000E+02  0.51100000000E-03 0.  1.
    9900012    2    1    2    0    0 -0.12229056041E+00  0.90047122157E+00 -0.75311553835E+00  0.90007751545E+02  0.90000013065E+02 0.  0.
         12    1    1    2    0    0  0.12229056041E+00 -0.90047122157E+00  0.75311553835E+00  0.11802484553E+01  0.00000000000E+00 0. -1.
         11    1    3    3    0    0  0.11716574123E+02  0.35550532449E+01 -0.11829258451E+02  0.17024919046E+02  0.51100000000E-03 0. -1.
        -11    1    3    3    0    0  0.16799592580E+02  0.53422711863E+01 -0.22206304079E+02  0.28352885451E+02  0.51100000000E-03 0.  1.
         12    1    3    3    0    0 -0.28638457264E+02 -0.79968532096E+01  0.33282446992E+02  0.44629947048E+02  0.00000000000E+00 0. -1.
</event>
<event>
 7    1  0.2284751E-015  0.9000775E+02  0.7816164E-02  0.1186339E+00
        -11   -1    0    0    0    0  0.00000000000E+00  0.00000000000E+00  0.45593999997E+02  0.45594000000E+02  0.51100000000E-03 0.  1.
         11   -1    0    0    0    0 -0.00000000000E+00 -0.00000000000E+00 -0.45593999997E+02  0.45594000000E+02  0.51100000000E-03 0. -1.
    9900012    2    1    2    0    0 -0.91127890958E+00  0.66673420834E+00  0.34355879688E+00  0.90007747314E+02  0.90000008779E+02 0.  0.
         12    1    1    2    0    0  0.91127890958E+00 -0.66673420834E+00 -0.34355879688E+00  0.11802526859E+01  0.00000000000E+00 0. -1.
         11    1    3    3    0    0  0.41830312698E+01 -0.16509459473E+01  0.92962561882E+01  0.10326846203E+02  0.51100000000E-03 0. -1.
        -11    1    3    3    0    0 -0.48262101224E+01  0.35081563367E+02  0.15641302438E+02  0.38712513928E+02  0.51100000000E-03 0.  1.
         12    1    3    3    0    0 -0.26810005700E+00 -0.32763883211E+02 -0.24593999830E+02  0.40968387183E+02  0.00000000000E+00 0. -1.
</event>
<event>
 7    1  0.2284751E-015  0.9000771E+02  0.7816164E-02  0.1186339E+00
        -11   -1    0    0    0    0  0.00000000000E+00  0.00000000000E+00  0.45593999997E+02  0.45594000000E+02  0.51100000000E-03 0. -1.
         11   -1    0    0    0    0 -0.00000000000E+00 -0.00000000000E+00 -0.45593999997E+02  0.45594000000E+02  0.51100000000E-03 0.  1.
    9900012    2    1    2    0    0 -0.39512484589E+00  0.91294170869E-02 -0.11121507640E+01  0.90007709226E+02  0.89999970187E+02 0.  0.
         12    1    1    2    0    0  0.39512484589E+00 -0.91294170869E-02  0.11121507640E+01  0.11802907743E+01  0.00000000000E+00 0. -1.
         11    1    3    3    0    0  0.61703150232E+01 -0.72251391807E+01 -0.30955611974E+01  0.99928936277E+01  0.51100000000E-03 0. -1.
        -11    1    3    3    0    0 -0.14407409415E+02 -0.82817927394E+01 -0.35223363068E+02  0.38946718002E+02  0.51100000000E-03 0.  1.
         12    1    3    3    0    0  0.78419695464E+01  0.15516061337E+02  0.37206773501E+02  0.41068097596E+02  0.00000000000E+00 0. -1.
</event>
<event>
 7    1  0.2284751E-015  0.9000778E+02  0.7816164E-02  0.1186339E+00
        -11   -1    0    0    0    0  0.00000000000E+00  0.00000000000E+00  0.45593999997E+02  0.45594000000E+02  0.51100000000E-03 0. -1.
         11   -1    0    0    0    0 -0.00000000000E+00 -0.00000000000E+00 -0.45593999997E+02  0.45594000000E+02  0.51100000000E-03 0.  1.
    9900012    2    1    2    0    0  0.69009872624E+00  0.31315525138E+00  0.90477437206E+00  0.90007780051E+02  0.90000041948E+02 0.  0.
         12    1    1    2    0    0 -0.69009872624E+00 -0.31315525138E+00 -0.90477437206E+00  0.11802199489E+01  0.00000000000E+00 0. -1.
         11    1    3    3    0    0  0.95365808060E+01 -0.68779353632E+01  0.70847520264E+01  0.13727566422E+02  0.51100000000E-03 0. -1.
        -11    1    3    3    0    0 -0.35785591454E+02 -0.78032073811E+01  0.14243212498E+02  0.39298444036E+02  0.51100000000E-03 0.  1.
         12    1    3    3    0    0  0.26939109374E+02  0.14994297996E+02 -0.20423190152E+02  0.36981769593E+02  0.00000000000E+00 0. -1.
</event>
<event>
 7    1  0.2284751E-015  0.9000642E+02  0.7816164E-02  0.1186342E+00
        -11   -1    0    0    0    0  0.00000000000E+00  0.00000000000E+00  0.45593999997E+02  0.45594000000E+02  0.51100000000E-03 0.  1.
         11   -1    0    0    0    0 -0.00000000000E+00 -0.00000000000E+00 -0.45593999997E+02  0.45594000000E+02  0.51100000000E-03 0. -1.
    9900012    2    1    2    0    0  0.10764127590E+01  0.27196440961E+00  0.40435908499E+00  0.90006418290E+02  0.89998662202E+02 0.  0.
         12    1    1    2    0    0 -0.10764127590E+01 -0.27196440961E+00 -0.40435908499E+00  0.11815817100E+01  0.00000000000E+00 0. -1.
         11    1    3    3    0    0  0.46266293069E+01 -0.28480100787E+02  0.77772538123E+01  0.29883231364E+02  0.51100000000E-03 0.  1.
        -11    1    3    3    0    0  0.38473889531E+01  0.15052073183E+02 -0.29339126008E+02  0.33198669010E+02  0.51100000000E-03 0. -1.
         12    1    3    3    0    0 -0.73976055011E+01  0.13699992014E+02  0.21966231281E+02  0.26924517916E+02  0.00000000000E+00 0. -1.
</event>
<event>
 7    1  0.3256011E-015  0.9000756E+02  0.7816164E-02  0.1186339E+00
        -11   -1    0    0    0    0  0.00000000000E+00  0.00000000000E+00  0.45593999997E+02  0.45594000000E+02  0.51100000000E-03 0.  1.
         11   -1    0    0    0    0 -0.00000000000E+00 -0.00000000000E+00 -0.45593999997E+02  0.45594000000E+02  0.51100000000E-03 0. -1.
    9900012    2    1    2    0    0  0.63062041974E+00 -0.99740246663E+00 -0.30791221186E-01  0.90007558602E+02  0.89999817576E+02 0.  0.
         12    1    1    2    0    0 -0.63062041974E+00  0.99740246663E+00  0.30791221186E-01  0.11804413978E+01  0.00000000000E+00 0. -1.
         11    1    3    3    0    0 -0.19549262743E+02  0.30180535406E+01 -0.32246256261E+02  0.37829926832E+02  0.51100000000E-03 0. -1.
        -11    1    3    3    0    0  0.32684046975E+01  0.72557490364E+01 -0.52648272428E+01  0.95418430873E+01  0.51100000000E-03 0.  1.
        -12    1    3    3    0    0  0.16911478465E+02 -0.11271205044E+02  0.37480292283E+02  0.42635788683E+02  0.00000000000E+00 0.  1.
</event>
<event>
 7    1  0.2284751E-015  0.9000756E+02  0.7816164E-02  0.1186339E+00
        -11   -1    0    0    0    0  0.00000000000E+00  0.00000000000E+00  0.45593999997E+02  0.45594000000E+02  0.51100000000E-03 0. -1.
         11   -1    0    0    0    0 -0.00000000000E+00 -0.00000000000E+00 -0.45593999997E+02  0.45594000000E+02  0.51100000000E-03 0.  1.
    9900012    2    1    2    0    0  0.23900357877E+00 -0.55652792496E+00 -0.10132084513E+01  0.90007560502E+02  0.89999819501E+02 0.  0.
         12    1    1    2    0    0 -0.23900357877E+00  0.55652792496E+00  0.10132084513E+01  0.11804394977E+01  0.00000000000E+00 0. -1.
         11    1    3    3    0    0 -0.19080881159E+01  0.90468651080E+01  0.15075002386E+01  0.93679840826E+01  0.51100000000E-03 0. -1.
        -11    1    3    3    0    0 -0.31914793579E+02 -0.11020512438E+02 -0.23015305849E+02  0.40862085693E+02  0.51100000000E-03 0.  1.
         12    1    3    3    0    0  0.34061885274E+02  0.14171194052E+01  0.20494597159E+02  0.39777490727E+02  0.00000000000E+00 0. -1.
</event>
<event>
 7    1  0.2284751E-015  0.9000773E+02  0.7816164E-02  0.1186339E+00
        -11   -1    0    0    0    0  0.00000000000E+00  0.00000000000E+00  0.45593999997E+02  0.45594000000E+02  0.51100000000E-03 0.  1.
         11   -1    0    0    0    0 -0.00000000000E+00 -0.00000000000E+00 -0.45593999997E+02  0.45594000000E+02  0.51100000000E-03 0. -1.
    9900012    2    1    2    0    0  0.32947112501E+00 -0.31064470673E+00  0.10899501928E+01  0.90007727668E+02  0.89999988873E+02 0.  0.
         12    1    1    2    0    0 -0.32947112501E+00  0.31064470673E+00 -0.10899501928E+01  0.11802723324E+01  0.00000000000E+00 0. -1.
         11    1    3    3    0    0 -0.74103567679E+01 -0.43126594429E+01 -0.46920231121E+01  0.97738170662E+01  0.51100000000E-03 0. -1.
        -11    1    3    3    0    0 -0.23714116393E+02 -0.21683164201E+02  0.19240618707E+02  0.37452908226E+02  0.51100000000E-03 0.  1.
         12    1    3    3    0    0  0.31453944286E+02  0.25685178938E+02 -0.13458645402E+02  0.42781002376E+02  0.00000000000E+00 0. -1.
</event>
<event>
 7    1  0.2284751E-015  0.9000784E+02  0.7816164E-02  0.1186339E+00
        -11   -1    0    0    0    0  0.00000000000E+00  0.00000000000E+00  0.45593999997E+02  0.45594000000E+02  0.51100000000E-03 0. -1.
         11   -1    0    0    0    0 -0.00000000000E+00 -0.00000000000E+00 -0.45593999997E+02  0.45594000000E+02  0.51100000000E-03 0.  1.
    9900012    2    1    2    0    0  0.54162741954E+00  0.10309363858E+01  0.19127731003E+00  0.90007840222E+02  0.90000102912E+02 0.  0.
         12    1    1    2    0    0 -0.54162741954E+00 -0.10309363858E+01 -0.19127731003E+00  0.11801597784E+01  0.00000000000E+00 0. -1.
         11    1    3    3    0    0 -0.11365874055E+02 -0.80198197737E+01  0.12797977937E+01  0.13969197718E+02  0.51100000000E-03 0. -1.
        -11    1    3    3    0    0 -0.21355048265E+02  0.20344057762E+02  0.19466440432E+02  0.35339228571E+02  0.51100000000E-03 0.  1.
         12    1    3    3    0    0  0.33262549739E+02 -0.11293301602E+02 -0.20554960916E+02  0.40699413933E+02  0.00000000000E+00 0. -1.
</event>
<event>
 7    1  0.2284751E-015  0.9000868E+02  0.7816164E-02  0.1186337E+00
        -11   -1    0    0    0    0  0.00000000000E+00  0.00000000000E+00  0.45593999997E+02  0.45594000000E+02  0.51100000000E-03 0. -1.
         11   -1    0    0    0    0 -0.00000000000E+00 -0.00000000000E+00 -0.45593999997E+02  0.45594000000E+02  0.51100000000E-03 0.  1.
    9900012    2    1    2    0    0 -0.70252471355E+00  0.53999859095E+00  0.77824525806E+00  0.90008675985E+02  0.90000949703E+02 0.  0.
         12    1    1    2    0    0  0.70252471355E+00 -0.53999859095E+00 -0.77824525806E+00  0.11793240153E+01  0.00000000000E+00 0. -1.
         11    1    3    3    0    0 -0.57565128096E+01  0.38312763925E+02  0.92074522135E+01  0.39821884634E+02  0.51100000000E-03 0. -1.
        -11    1    3    3    0    0  0.38513769027E+01  0.28345369002E+01  0.54553159012E+01  0.72545279191E+01  0.51100000000E-03 0.  1.
        -12    1    3    3    0    0  0.12026111933E+01 -0.40607302234E+02 -0.13884522857E+02  0.42932263432E+02  0.00000000000E+00 0.  1.
</event>
<event>
 7    1  0.2284751E-015  0.9000761E+02  0.7816164E-02  0.1186339E+00
        -11   -1    0    0    0    0  0.00000000000E+00  0.00000000000E+00  0.45593999997E+02  0.45594000000E+02  0.51100000000E-03 0. -1.
         11   -1    0    0    0    0 -0.00000000000E+00 -0.00000000000E+00 -0.45593999997E+02  0.45594000000E+02  0.51100000000E-03 0.  1.
    9900012    2    1    2    0    0  0.65598537029E+00 -0.98036342636E+00  0.43402423671E-01  0.90007613189E+02  0.89999872883E+02 0.  0.
         12    1    1    2    0    0 -0.65598537029E+00  0.98036342636E+00 -0.43402423671E-01  0.11803868112E+01  0.00000000000E+00 0. -1.
         11    1    3    3    0    0 -0.14375494998E+02 -0.67205265014E+01 -0.16549628590E+01  0.15954912573E+02  0.51100000000E-03 0. -1.
        -11    1    3    3    0    0  0.28664377000E+01 -0.28043237819E+02  0.19200681083E+02  0.34107269119E+02  0.51100000000E-03 0.  1.
         12    1    3    3    0    0  0.12165042668E+02  0.33783400894E+02 -0.17502315800E+02  0.39945431496E+02  0.00000000000E+00 0. -1.
</event>
<event>
 7    1  0.2382296E-015  0.9000775E+02  0.7816164E-02  0.1186339E+00
        -11   -1    0    0    0    0  0.00000000000E+00  0.00000000000E+00  0.45593999997E+02  0.45594000000E+02  0.51100000000E-03 0.  1.
         11   -1    0    0    0    0 -0.00000000000E+00 -0.00000000000E+00 -0.45593999997E+02  0.45594000000E+02  0.51100000000E-03 0. -1.
    9900012    2    1    2    0    0 -0.83090500487E+00 -0.68960149742E+00  0.47649415558E+00  0.90007745776E+02  0.90000007220E+02 0.  0.
         12    1    1    2    0    0  0.83090500487E+00  0.68960149742E+00 -0.47649415558E+00  0.11802542237E+01  0.00000000000E+00 0. -1.
         11    1    3    3    0    0  0.25103918808E+02  0.66069723560E+01 -0.27046629292E+02  0.37488384595E+02  0.51100000000E-03 0. -1.
        -11    1    3    3    0    0  0.37757185495E+01 -0.85174046179E+01 -0.31151866121E+01  0.98237782894E+01  0.51100000000E-03 0.  1.
        -12    1    3    3    0    0 -0.29710542362E+02  0.12208307645E+01  0.30638310059E+02  0.42695582892E+02  0.00000000000E+00 0.  1.
</event>
<event>
 7    1  0.2284751E-015  0.9000779E+02  0.7816164E-02  0.1186339E+00
        -11   -1    0    0    0    0  0.00000000000E+00  0.00000000000E+00  0.45593999997E+02  0.45594000000E+02  0.51100000000E-03 0. -1.
         11   -1    0    0    0    0 -0.00000000000E+00 -0.00000000000E+00 -0.45593999997E+02  0.45594000000E+02  0.51100000000E-03 0.  1.
    9900012    2    1    2    0    0  0.11334952739E+01 -0.32665767132E+00  0.37137503714E-01  0.90007789864E+02  0.90000051891E+02 0.  0.
         12    1    1    2    0    0 -0.11334952739E+01  0.32665767132E+00 -0.37137503714E-01  0.11802101357E+01  0.00000000000E+00 0. -1.
         11    1    3    3    0    0 -0.41195547200E+01 -0.83551143887E+01 -0.47498563424E+01  0.10456567461E+02  0.51100000000E-03 0. -1.
        -11    1    3    3    0    0  0.14513135748E+00 -0.11500965962E+02 -0.33963423153E+02  0.35858156585E+02  0.51100000000E-03 0.  1.
         12    1    3    3    0    0  0.51079186364E+01  0.19529422679E+02  0.38750416999E+02  0.43693065818E+02  0.00000000000E+00 0. -1.
</event>
<event>
 7    1  0.2284751E-015  0.9000777E+02  0.7816164E-02  0.1186339E+00
        -11   -1    0    0    0    0  0.00000000000E+00  0.00000000000E+00  0.45593999997E+02  0.45594000000E+02  0.51100000000E-03 0.  1.
         11   -1    0    0    0    0 -0.00000000000E+00 -0.00000000000E+00 -0.45593999997E+02  0.45594000000E+02  0.51100000000E-03 0. -1.
    9900012    2    1    2    0    0  0.11643451025E+01  0.15501250816E+00  0.11499068678E+00  0.90007766441E+02  0.90000028158E+02 0.  0.
         12    1    1    2    0    0 -0.11643451025E+01 -0.15501250816E+00 -0.11499068678E+00  0.11802335588E+01  0.00000000000E+00 0. -1.
         11    1    3    3    0    0  0.42811842311E+01 -0.85706172447E+00  0.71339786926E+01  0.83640149132E+01  0.51100000000E-03 0. -1.
        -11    1    3    3    0    0 -0.99811559383E+01 -0.39059783518E+02  0.39980616935E+00  0.40316870012E+02  0.51100000000E-03 0.  1.
         12    1    3    3    0    0  0.68643168096E+01  0.40071857750E+02 -0.74187941752E+01  0.41326881516E+02  0.00000000000E+00 0. -1.
</event>
<event>
 7    1  0.2284751E-015  0.9000774E+02  0.7816164E-02  0.1186339E+00
        -11   -1    0    0    0    0  0.00000000000E+00  0.00000000000E+00  0.45593999997E+02  0.45594000000E+02  0.51100000000E-03 0.  1.
         11   -1    0    0    0    0 -0.00000000000E+00 -0.00000000000E+00 -0.45593999997E+02  0.45594000000E+02  0.51100000000E-03 0. -1.
    9900012    2    1    2    0    0 -0.90480733106E+00  0.57806131459E+00  0.49008570797E+00  0.90007739355E+02  0.90000000714E+02 0.  0.
         12    1    1    2    0    0  0.90480733106E+00 -0.57806131459E+00 -0.49008570797E+00  0.11802606453E+01  0.00000000000E+00 0. -1.
         11    1    3    3    0    0  0.47956849226E+01 -0.10593478332E+02  0.63264869076E+01  0.13238006417E+02  0.51100000000E-03 0. -1.
        -11    1    3    3    0    0 -0.16333129467E+02 -0.23184304911E+02  0.18031325967E+02  0.33606722970E+02  0.51100000000E-03 0.  1.
         12    1    3    3    0    0  0.10632637213E+02  0.34355844557E+02 -0.23867727167E+02  0.43163009968E+02  0.00000000000E+00 0. -1.
</event>
<event>
 7    1  0.2284751E-015  0.9000827E+02  0.7816164E-02  0.1186338E+00
        -11   -1    0    0    0    0  0.00000000000E+00  0.00000000000E+00  0.45593999997E+02  0.45594000000E+02  0.51100000000E-03 0. -1.
         11   -1    0    0    0    0 -0.00000000000E+00 -0.00000000000E+00 -0.45593999997E+02  0.45594000000E+02  0.51100000000E-03 0.  1.
    9900012    2    1    2    0    0  0.45519399798E+00 -0.10020989641E+01 -0.42468071210E+00  0.90008272228E+02  0.90000540619E+02 0.  0.
         12    1    1    2    0    0 -0.45519399798E+00  0.10020989641E+01  0.42468071210E+00  0.11797277723E+01  0.00000000000E+00 0. -1.
         11    1    3    3    0    0 -0.76728549979E+01  0.64136762414E+01  0.20562079563E+01  0.10209600294E+02  0.51100000000E-03 0. -1.
        -11    1    3    3    0    0 -0.68889997752E+01 -0.39693310681E+02 -0.13571548352E+02  0.42511223879E+02  0.51100000000E-03 0.  1.
         12    1    3    3    0    0  0.15017048771E+02  0.32277535476E+02  0.11090659684E+02  0.37287448054E+02  0.00000000000E+00 0. -1.
</event>
<event>
 7    1  0.2284751E-015  0.9000765E+02  0.7816164E-02  0.1186339E+00
        -11   -1    0    0    0    0  0.00000000000E+00  0.00000000000E+00  0.45593999997E+02  0.45594000000E+02  0.51100000000E-03 0.  1.
         11   -1    0    0    0    0 -0.00000000000E+00 -0.00000000000E+00 -0.45593999997E+02  0.45594000000E+02  0.51100000000E-03 0. -1.
    9900012    2    1    2    0    0 -0.79153524697E+00  0.57256647706E+00  0.66246354391E+00  0.90007653286E+02  0.89999913510E+02 0.  0.
         12    1    1    2    0    0  0.79153524697E+00 -0.57256647706E+00 -0.66246354391E+00  0.11803467138E+01  0.00000000000E+00 0. -1.
         11    1    3    3    0    0 -0.75117374699E+01  0.52169160474E+01  0.56034948992E+01  0.10725743247E+02  0.51100000000E-03 0. -1.
        -11    1    3    3    0    0  0.18234643820E+02  0.33963379471E+02 -0.58106934067E+01  0.38984324266E+02  0.51100000000E-03 0.  1.
         12    1    3    3    0    0 -0.11514441597E+02 -0.38607729042E+02  0.86966205143E+00  0.40297585773E+02  0.00000000000E+00 0. -1.
</event>
<event>
 7    1  0.2284751E-015  0.9000773E+02  0.7816164E-02  0.1186339E+00
        -11   -1    0    0    0    0  0.00000000000E+00  0.00000000000E+00  0.45593999997E+02  0.45594000000E+02  0.51100000000E-03 0. -1.
         11   -1    0    0    0    0 -0.00000000000E+00 -0.00000000000E+00 -0.45593999997E+02  0.45594000000E+02  0.51100000000E-03 0.  1.
    9900012    2    1    2    0    0 -0.84454634499E+00  0.52889954334E+00 -0.63248867637E+00  0.90007730886E+02  0.89999992134E+02 0.  0.
         12    1    1    2    0    0  0.84454634499E+00 -0.52889954334E+00  0.63248867637E+00  0.11802691140E+01  0.00000000000E+00 0. -1.
         11    1    3    3    0    0 -0.77915478397E+01  0.77497606200E+01  0.27778201357E+01  0.11335047083E+02  0.51100000000E-03 0. -1.
        -11    1    3    3    0    0  0.54057973550E+01  0.32320087699E+00 -0.40465340091E+02  0.40826105040E+02  0.51100000000E-03 0.  1.
         12    1    3    3    0    0  0.15412041397E+01 -0.75440619536E+01  0.37055031279E+02  0.37846578763E+02  0.00000000000E+00 0. -1.
</event>
<event>
 7    1  0.2284751E-015  0.9000775E+02  0.7816164E-02  0.1186339E+00
        -11   -1    0    0    0    0  0.00000000000E+00  0.00000000000E+00  0.45593999997E+02  0.45594000000E+02  0.51100000000E-03 0.  1.
         11   -1    0    0    0    0 -0.00000000000E+00 -0.00000000000E+00 -0.45593999997E+02  0.45594000000E+02  0.51100000000E-03 0. -1.
    9900012    2    1    2    0    0 -0.45330514311E-03  0.11662278506E+01  0.18139785337E+00  0.90007748846E+02  0.90000010331E+02 0.  0.
         12    1    1    2    0    0  0.45330514311E-03 -0.11662278506E+01 -0.18139785337E+00  0.11802511538E+01  0.00000000000E+00 0. -1.
         11    1    3    3    0    0  0.27555167738E+02 -0.79196337306E+01 -0.24375357505E+02  0.37631980034E+02  0.51100000000E-03 0. -1.
        -11    1    3    3    0    0  0.82443620510E+01  0.50658390270E+01  0.20285571467E+01  0.98867221583E+01  0.51100000000E-03 0.  1.
        -12    1    3    3    0    0 -0.35799983094E+02  0.40200225542E+01  0.22528198212E+02  0.42489046654E+02  0.00000000000E+00 0.  1.
</event>
<event>
 7    1  0.2284751E-015  0.9000774E+02  0.7816164E-02  0.1186339E+00
        -11   -1    0    0    0    0  0.00000000000E+00  0.00000000000E+00  0.45593999997E+02  0.45594000000E+02  0.51100000000E-03 0.  1.
         11   -1    0    0    0    0 -0.00000000000E+00 -0.00000000000E+00 -0.45593999997E+02  0.45594000000E+02  0.51100000000E-03 0. -1.
    9900012    2    1    2    0    0 -0.13299041328E+00  0.15740258648E+00  0.11621279267E+01  0.90007744374E+02  0.90000005800E+02 0.  0.
         12    1    1    2    0    0  0.13299041328E+00 -0.15740258648E+00 -0.11621279267E+01  0.11802556258E+01  0.00000000000E+00 0. -1.
         11    1    3    3    0    0  0.61923837413E+01 -0.98836930133E+01 -0.55927011112E+01  0.12934887319E+02  0.51100000000E-03 0. -1.
        -11    1    3    3    0    0  0.30497878052E+02 -0.12965721756E+02  0.56718475937E-01  0.33139609587E+02  0.51100000000E-03 0.  1.
         12    1    3    3    0    0 -0.36823252207E+02  0.23006817356E+02  0.66981105620E+01  0.43933247468E+02  0.00000000000E+00 0. -1.
</event>
<event>
 7    1  0.2284751E-015  0.9000774E+02  0.7816164E-02  0.1186339E+00
        -11   -1    0    0    0    0  0.00000000000E+00  0.00000000000E+00  0.45593999997E+02  0.45594000000E+02  0.51100000000E-03 0. -1.
         11   -1    0    0    0    0 -0.00000000000E+00 -0.00000000000E+00 -0.45593999997E+02  0.45594000000E+02  0.51100000000E-03 0.  1.
    9900012    2    1    2    0    0  0.35742184400E+00 -0.32764332803E+00 -0.10760646623E+01  0.90007739146E+02  0.90000000503E+02 0.  0.
         12    1    1    2    0    0 -0.35742184400E+00  0.32764332803E+00  0.10760646623E+01  0.11802608535E+01  0.00000000000E+00 0. -1.
         11    1    3    3    0    0 -0.20272051205E+02  0.12272047856E+02 -0.23579109232E+02  0.33429532020E+02  0.51100000000E-03 0. -1.
        -11    1    3    3    0    0  0.16801920358E+02  0.15199876094E+02  0.16100954047E+02  0.27795350015E+02  0.51100000000E-03 0.  1.
         12    1    3    3    0    0  0.38275526912E+01 -0.27799567278E+02  0.64020905224E+01  0.28782857111E+02  0.00000000000E+00 0. -1.
</event>
<event>
 7    1  0.2284751E-015  0.9000774E+02  0.7816164E-02  0.1186339E+00
        -11   -1    0    0    0    0  0.00000000000E+00  0.00000000000E+00  0.45593999997E+02  0.45594000000E+02  0.51100000000E-03 0. -1.
         11   -1    0    0    0    0 -0.00000000000E+00 -0.00000000000E+00 -0.45593999997E+02  0.45594000000E+02  0.51100000000E-03 0.  1.
    9900012    2    1    2    0    0 -0.26748801562E+00 -0.10155004045E+01 -0.53871787676E+00  0.90007742460E+02  0.90000003860E+02 0.  0.
         12    1    1    2    0    0  0.26748801562E+00  0.10155004045E+01  0.53871787676E+00  0.11802575401E+01  0.00000000000E+00 0. -1.
         11    1    3    3    0    0  0.23286319809E+02 -0.18513855554E+02  0.91740299978E+01  0.31131629645E+02  0.51100000000E-03 0. -1.
        -11    1    3    3    0    0  0.88720493928E+01  0.15925280527E+02  0.10103023795E+02  0.20842238612E+02  0.51100000000E-03 0.  1.
        -12    1    3    3    0    0 -0.32425857217E+02  0.15730746227E+01 -0.19815771670E+02  0.38033874203E+02  0.00000000000E+00 0.  1.
</event>
<event>
 7    1  0.2284751E-015  0.9000762E+02  0.7816164E-02  0.1186339E+00
        -11   -1    0    0    0    0  0.00000000000E+00  0.00000000000E+00  0.45593999997E+02  0.45594000000E+02  0.51100000000E-03 0.  1.
         11   -1    0    0    0    0 -0.00000000000E+00 -0.00000000000E+00 -0.45593999997E+02  0.45594000000E+02  0.51100000000E-03 0. -1.
    9900012    2    1    2    0    0  0.91488675999E+00  0.33604576659E+00 -0.66585328662E+00  0.90007616528E+02  0.89999876266E+02 0.  0.
         12    1    1    2    0    0 -0.91488675999E+00 -0.33604576659E+00  0.66585328662E+00  0.11803834717E+01  0.00000000000E+00 0. -1.
         11    1    3    3    0    0 -0.19978289947E+02 -0.29315383773E+02 -0.14385808224E+02  0.38281526530E+02  0.51100000000E-03 0. -1.
        -11    1    3    3    0    0 -0.59226115608E+01  0.23149715545E+01 -0.59217726393E+01  0.86892929776E+01  0.51100000000E-03 0.  1.
        -12    1    3    3    0    0  0.26815788268E+02  0.27336457985E+02  0.19641727577E+02  0.43036797021E+02  0.00000000000E+00 0.  1.
</event>
<event>
 7    1  0.2284751E-015  0.9000773E+02  0.7816164E-02  0.1186339E+00
        -11   -1    0    0    0    0  0.00000000000E+00  0.00000000000E+00  0.45593999997E+02  0.45594000000E+02  0.51100000000E-03 0. -1.
         11   -1    0    0    0    0 -0.00000000000E+00 -0.00000000000E+00 -0.45593999997E+02  0.45594000000E+02  0.51100000000E-03 0.  1.
    9900012    2    1    2    0    0 -0.23770001278E+00 -0.11425259389E+01 -0.17652413347E+00  0.90007734103E+02  0.89999995393E+02 0.  0.
         12    1    1    2    0    0  0.23770001278E+00  0.11425259389E+01  0.17652413347E+00  0.11802658967E+01  0.00000000000E+00 0. -1.
         11    1    3    3    0    0 -0.29090647910E+01 -0.86968763086E+01  0.17180443416E+01  0.93300585264E+01  0.51100000000E-03 0. -1.
        -11    1    3    3    0    0 -0.10458235047E+02 -0.31890887082E+02 -0.15454387769E+02  0.36949174020E+02  0.51100000000E-03 0.  1.
         12    1    3    3    0    0  0.13129599825E+02  0.39445237452E+02  0.13559819294E+02  0.43728501557E+02  0.00000000000E+00 0. -1.
</event>
<event>
 7    1  0.2284751E-015  0.9000792E+02  0.7816164E-02  0.1186339E+00
        -11   -1    0    0    0    0  0.00000000000E+00  0.00000000000E+00  0.45593999997E+02  0.45594000000E+02  0.51100000000E-03 0.  1.
         11   -1    0    0    0    0 -0.00000000000E+00 -0.00000000000E+00 -0.45593999997E+02  0.45594000000E+02  0.51100000000E-03 0. -1.
    9900012    2    1    2    0    0 -0.87866486965E+00  0.58323508532E+00  0.52950453721E+00  0.90007919421E+02  0.90000183157E+02 0.  0.
         12    1    1    2    0    0  0.87866486965E+00 -0.58323508532E+00 -0.52950453721E+00  0.11800805790E+01  0.00000000000E+00 0. -1.
         11    1    3    3    0    0  0.25194802728E+02 -0.30028074969E+01 -0.34263779096E+02  0.42635683360E+02  0.51100000000E-03 0. -1.
        -11    1    3    3    0    0 -0.57794657719E+01  0.71854290466E+01  0.34213037074E+01  0.98355444441E+01  0.51100000000E-03 0.  1.
        -12    1    3    3    0    0 -0.20294001826E+02 -0.35993864644E+01  0.31371979926E+02  0.37536691617E+02  0.00000000000E+00 0.  1.
</event>
<event>
 7    1  0.2284751E-015  0.9000757E+02  0.7816164E-02  0.1186339E+00
        -11   -1    0    0    0    0  0.00000000000E+00  0.00000000000E+00  0.45593999997E+02  0.45594000000E+02  0.51100000000E-03 0. -1.
         11   -1    0    0    0    0 -0.00000000000E+00 -0.00000000000E+00 -0.45593999997E+02  0.45594000000E+02  0.51100000000E-03 0.  1.
    9900012    2    1    2    0    0  0.26034919001E+00  0.12525556117E+00 -0.11445326558E+01  0.90007565480E+02  0.89999824544E+02 0.  0.
         12    1    1    2    0    0 -0.26034919001E+00 -0.12525556117E+00  0.11445326558E+01  0.11804345202E+01  0.00000000000E+00 0. -1.
         11    1    3    3    0    0  0.45318350148E+01 -0.76918461864E+01  0.11008981106E+01  0.89952211350E+01  0.51100000000E-03 0. -1.
        -11    1    3    3    0    0  0.20311705513E+02  0.34531069091E+02 -0.14636761055E+02  0.42652020912E+02  0.51100000000E-03 0.  1.
         12    1    3    3    0    0 -0.24583191338E+02 -0.26713967343E+02  0.12391330289E+02  0.38360323433E+02  0.00000000000E+00 0. -1.
</event>
<event>
 7    1  0.2284751E-015  0.9000771E+02  0.7816164E-02  0.1186339E+00
        -11   -1    0    0    0    0  0.00000000000E+00  0.00000000000E+00  0.45593999997E+02  0.45594000000E+02  0.51100000000E-03 0.  1.
         11   -1    0    0    0    0 -0.00000000000E+00 -0.00000000000E+00 -0.45593999997E+02  0.45594000000E+02  0.51100000000E-03 0. -1.
    9900012    2    1    2    0    0  0.31310229311E+00  0.10442637593E+01  0.45229010450E+00  0.90007709280E+02  0.89999970243E+02 0.  0.
         12    1    1    2    0    0 -0.31310229311E+00 -0.10442637593E+01 -0.45229010450E+00  0.11802907200E+01  0.00000000000E+00 0. -1.
         11    1    3    3    0    0 -0.24549198514E+01 -0.24700540022E+02 -0.27182508722E+02  0.36810760512E+02  0.51100000000E-03 0. -1.
        -11    1    3    3    0    0 -0.54603752524E+01 -0.62822770994E+01 -0.22542350472E+01  0.86234725813E+01  0.51100000000E-03 0.  1.
        -12    1    3    3    0    0  0.82283973969E+01  0.32027080880E+02  0.29889033874E+02  0.44573476186E+02  0.00000000000E+00 0.  1.
</event>
<event>
 7    1  0.2284751E-015  0.9000826E+02  0.7816164E-02  0.1186338E+00
        -11   -1    0    0    0    0  0.00000000000E+00  0.00000000000E+00  0.45593999997E+02  0.45594000000E+02  0.51100000000E-03 0. -1.
         11   -1    0    0    0    0 -0.00000000000E+00 -0.00000000000E+00 -0.45593999997E+02  0.45594000000E+02  0.51100000000E-03 0.  1.
    9900012    2    1    2    0    0  0.67961032065E+00  0.91263412613E+00  0.31147574407E+00  0.90008259191E+02  0.90000527411E+02 0.  0.
         12    1    1    2    0    0 -0.67961032065E+00 -0.91263412613E+00 -0.31147574407E+00  0.11797408085E+01  0.00000000000E+00 0. -1.
         11    1    3    3    0    0 -0.17276083219E+02  0.30206906150E+02  0.21018483185E+02  0.40653374598E+02  0.51100000000E-03 0. -1.
        -11    1    3    3    0    0  0.15994889898E+01 -0.57617302125E+01  0.71960996014E+01  0.93562679421E+01  0.51100000000E-03 0.  1.
        -12    1    3    3    0    0  0.16356204550E+02 -0.23532541812E+02 -0.27903107042E+02  0.39998616651E+02  0.00000000000E+00 0.  1.
</event>
<event>
 7    1  0.2343441E-015  0.9000789E+02  0.7816164E-02  0.1186339E+00
        -11   -1    0    0    0    0  0.00000000000E+00  0.00000000000E+00  0.45593999997E+02  0.45594000000E+02  0.51100000000E-03 0.  1.
         11   -1    0    0    0    0 -0.00000000000E+00 -0.00000000000E+00 -0.45593999997E+02  0.45594000000E+02  0.51100000000E-03 0. -1.
    9900012    2    1    2    0    0 -0.11539353379E+01 -0.19564133259E+00 -0.15104526588E+00  0.90007891121E+02  0.90000154483E+02 0.  0.
         12    1    1    2    0    0  0.11539353379E+01  0.19564133259E+00  0.15104526588E+00  0.11801088795E+01  0.00000000000E+00 0. -1.
         11    1    3    3    0    0  0.30737432982E+02  0.10196553065E+02  0.23544842008E+02  0.40038969344E+02  0.51100000000E-03 0. -1.
        -11    1    3    3    0    0 -0.45353180988E+01  0.82507627828E+01 -0.27870885291E+00  0.94192290364E+01  0.51100000000E-03 0.  1.
        -12    1    3    3    0    0 -0.27356050221E+02 -0.18642957181E+02 -0.23417178421E+02  0.40549692740E+02  0.00000000000E+00 0.  1.
</event>
<event>
 7    1  0.2284751E-015  0.9000788E+02  0.7816164E-02  0.1186339E+00
        -11   -1    0    0    0    0  0.00000000000E+00  0.00000000000E+00  0.45593999997E+02  0.45594000000E+02  0.51100000000E-03 0.  1.
         11   -1    0    0    0    0 -0.00000000000E+00 -0.00000000000E+00 -0.45593999997E+02  0.45594000000E+02  0.51100000000E-03 0. -1.
    9900012    2    1    2    0    0  0.10635230450E+01 -0.50303963742E+00  0.92441257924E-01  0.90007883256E+02  0.90000146515E+02 0.  0.
         12    1    1    2    0    0 -0.10635230450E+01  0.50303963742E+00 -0.92441257924E-01  0.11801167443E+01  0.00000000000E+00 0. -1.
         11    1    3    3    0    0 -0.77560792827E+01  0.49351966111E+01  0.73758548563E+00  0.92226332487E+01  0.51100000000E-03 0. -1.
        -11    1    3    3    0    0 -0.16755277866E+02 -0.19969315979E+02  0.29020315354E+02  0.39008865922E+02  0.51100000000E-03 0.  1.
         12    1    3    3    0    0  0.25574880194E+02  0.14531079730E+02 -0.29665459581E+02  0.41776384085E+02  0.00000000000E+00 0. -1.
</event>
<event>
 7    1  0.2284751E-015  0.9000773E+02  0.7816164E-02  0.1186339E+00
        -11   -1    0    0    0    0  0.00000000000E+00  0.00000000000E+00  0.45593999997E+02  0.45594000000E+02  0.51100000000E-03 0. -1.
         11   -1    0    0    0    0 -0.00000000000E+00 -0.00000000000E+00 -0.45593999997E+02  0.45594000000E+02  0.51100000000E-03 0.  1.
    9900012    2    1    2    0    0 -0.63072039895E+00  0.18829872689E+00  0.97968080296E+00  0.90007729223E+02  0.89999990448E+02 0.  0.
         12    1    1    2    0    0  0.63072039895E+00 -0.18829872689E+00 -0.97968080296E+00  0.11802707774E+01  0.00000000000E+00 0. -1.
         11    1    3    3    0    0 -0.20857926128E+01 -0.25776510041E+02  0.26788809418E+02  0.37234652019E+02  0.51100000000E-03 0. -1.
        -11    1    3    3    0    0  0.34153942481E+01 -0.13612242781E+01  0.82681472041E+01  0.90487627803E+01  0.51100000000E-03 0.  1.
        -12    1    3    3    0    0 -0.19603220342E+01  0.27326033046E+02 -0.34077275819E+02  0.43724314423E+02  0.00000000000E+00 0.  1.
</event>
<event>
 7    1  0.2284751E-015  0.9000765E+02  0.7816164E-02  0.1186339E+00
        -11   -1    0    0    0    0  0.00000000000E+00  0.00000000000E+00  0.45593999997E+02  0.45594000000E+02  0.51100000000E-03 0.  1.
         11   -1    0    0    0    0 -0.00000000000E+00 -0.00000000000E+00 -0.45593999997E+02  0.45594000000E+02  0.51100000000E-03 0. -1.
    9900012    2    1    2    0    0  0.11796002184E+01  0.23997313337E-01  0.34428812972E-01  0.90007653488E+02  0.89999913714E+02 0.  0.
         12    1    1    2    0    0 -0.11796002184E+01 -0.23997313337E-01 -0.34428812972E-01  0.11803465124E+01  0.00000000000E+00 0. -1.
         11    1    3    3    0    0 -0.32564979234E+02 -0.17438624533E+02 -0.10655547965E+01  0.36955634285E+02  0.51100000000E-03 0. -1.
        -11    1    3    3    0    0  0.28205543048E+00 -0.61357564224E+01  0.94422609011E+01  0.11264251121E+02  0.51100000000E-03 0.  1.
        -12    1    3    3    0    0  0.33462524022E+02  0.23598378268E+02 -0.83422772917E+01  0.41787768081E+02  0.00000000000E+00 0.  1.
</event>
<event>
 7    1  0.2284751E-015  0.9000770E+02  0.7816164E-02  0.1186339E+00
        -11   -1    0    0    0    0  0.00000000000E+00  0.00000000000E+00  0.45593999997E+02  0.45594000000E+02  0.51100000000E-03 0.  1.
         11   -1    0    0    0    0 -0.00000000000E+00 -0.00000000000E+00 -0.45593999997E+02  0.45594000000E+02  0.51100000000E-03 0. -1.
    9900012    2    1    2    0    0  0.81807830736E-01 -0.11741413034E-01  0.11774037179E+01  0.90007699235E+02  0.89999960064E+02 0.  0.
         12    1    1    2    0    0 -0.81807830736E-01  0.11741413034E-01 -0.11774037179E+01  0.11803007655E+01  0.00000000000E+00 0. -1.
         11    1    3    3    0    0 -0.69201846410E+01 -0.28259580688E+02 -0.49678301419E+01  0.29515626246E+02  0.51100000000E-03 0. -1.
        -11    1    3    3    0    0  0.83552213390E+01 -0.13049740708E+02  0.10833972487E+02  0.18907152516E+02  0.51100000000E-03 0.  1.
        -12    1    3    3    0    0 -0.13532288673E+01  0.41297579982E+02 -0.46887386271E+01  0.41584920472E+02  0.00000000000E+00 0.  1.
</event>
<event>
 7    1  0.2284751E-015  0.9000777E+02  0.7816164E-02  0.1186339E+00
        -11   -1    0    0    0    0  0.00000000000E+00  0.00000000000E+00  0.45593999997E+02  0.45594000000E+02  0.51100000000E-03 0. -1.
         11   -1    0    0    0    0 -0.00000000000E+00 -0.00000000000E+00 -0.45593999997E+02  0.45594000000E+02  0.51100000000E-03 0.  1.
    9900012    2    1    2    0    0 -0.27839037691E-01  0.84743214884E+00 -0.82099085830E+00  0.90007770256E+02  0.90000032024E+02 0.  0.
         12    1    1    2    0    0  0.27839037691E-01 -0.84743214884E+00  0.82099085830E+00  0.11802297439E+01  0.00000000000E+00 0. -1.
         11    1    3    3    0    0 -0.30877966630E+02 -0.20763213882E+02  0.17509840511E+01  0.37250849914E+02  0.51100000000E-03 0. -1.
        -11    1    3    3    0    0 -0.52031320979E+01 -0.15150543819E+01 -0.79148482802E+01  0.95923301115E+01  0.51100000000E-03 0.  1.
        -12    1    3    3    0    0  0.36053259690E+02  0.23125700413E+02  0.53428733708E+01  0.43164590230E+02  0.00000000000E+00 0.  1.
</event>
<event>
 7    1  0.2284751E-015  0.9000776E+02  0.7816164E-02  0.1186339E+00
        -11   -1    0    0    0    0  0.00000000000E+00  0.00000000000E+00  0.45593999997E+02  0.45594000000E+02  0.51100000000E-03 0.  1.
         11   -1    0    0    0    0 -0.00000000000E+00 -0.00000000000E+00 -0.45593999997E+02  0.45594000000E+02  0.51100000000E-03 0. -1.
    9900012    2    1    2    0    0  0.70727351660E+00 -0.77114556929E+00  0.54594590522E+00  0.90007763478E+02  0.90000025156E+02 0.  0.
         12    1    1    2    0    0 -0.70727351660E+00  0.77114556929E+00 -0.54594590522E+00  0.11802365220E+01  0.00000000000E+00 0. -1.
         11    1    3    3    0    0 -0.13721483519E+02  0.39109903741E+02 -0.71281152744E+01  0.42055602578E+02  0.51100000000E-03 0. -1.
        -11    1    3    3    0    0  0.37353260993E+01 -0.50216637658E+01  0.95761115175E+01  0.11439916088E+02  0.51100000000E-03 0.  1.
        -12    1    3    3    0    0  0.10693430936E+02 -0.34859385544E+02 -0.19020503379E+01  0.36512244812E+02  0.00000000000E+00 0.  1.
</event>
<event>
 7    1  0.2284751E-015  0.9000774E+02  0.7816164E-02  0.1186339E+00
        -11   -1    0    0    0    0  0.00000000000E+00  0.00000000000E+00  0.45593999997E+02  0.45594000000E+02  0.51100000000E-03 0.  1.
         11   -1    0    0    0    0 -0.00000000000E+00 -0.00000000000E+00 -0.45593999997E+02  0.45594000000E+02  0.51100000000E-03 0. -1.
    9900012    2    1    2    0    0  0.49975812807E+00  0.71934466640E+00 -0.79108019072E+00  0.90007736130E+02  0.89999997447E+02 0.  0.
         12    1    1    2    0    0 -0.49975812807E+00 -0.71934466640E+00  0.79108019072E+00  0.11802638704E+01  0.00000000000E+00 0. -1.
         11    1    3    3    0    0  0.40418184076E+01 -0.78168815773E+01  0.11666069078E+02  0.14612908732E+02  0.51100000000E-03 0. -1.
        -11    1    3    3    0    0 -0.26832783463E+02 -0.11245072343E+01  0.20579900020E+02  0.33834820378E+02  0.51100000000E-03 0.  1.
         12    1    3    3    0    0  0.23290723184E+02  0.96607334779E+01 -0.33037049289E+02  0.41560007019E+02  0.00000000000E+00 0. -1.
</event>
<event>
 7    1  0.2284751E-015  0.9000778E+02  0.7816164E-02  0.1186339E+00
        -11   -1    0    0    0    0  0.00000000000E+00  0.00000000000E+00  0.45593999997E+02  0.45594000000E+02  0.51100000000E-03 0.  1.
         11   -1    0    0    0    0 -0.00000000000E+00 -0.00000000000E+00 -0.45593999997E+02  0.45594000000E+02  0.51100000000E-03 0. -1.
    9900012    2    1    2    0    0 -0.60995722834E+00 -0.56110127789E+00  0.84025930837E+00  0.90007780457E+02  0.90000042359E+02 0.  0.
         12    1    1    2    0    0  0.60995722834E+00  0.56110127789E+00 -0.84025930837E+00  0.11802195430E+01  0.00000000000E+00 0. -1.
         11    1    3    3    0    0  0.68270705058E+01 -0.45396617694E+00  0.57157819701E+01  0.89154439470E+01  0.51100000000E-03 0. -1.
        -11    1    3    3    0    0  0.29094708928E+02  0.20469654235E+02  0.94096725408E+01  0.36797428846E+02  0.51100000000E-03 0.  1.
         12    1    3    3    0    0 -0.36531736662E+02 -0.20576789336E+02 -0.14285195203E+02  0.44294907664E+02  0.00000000000E+00 0. -1.
</event>
<event>
 7    1  0.2284751E-015  0.9000774E+02  0.7816164E-02  0.1186339E+00
        -11   -1    0    0    0    0  0.00000000000E+00  0.00000000000E+00  0.45593999997E+02  0.45594000000E+02  0.51100000000E-03 0. -1.
         11   -1    0    0    0    0 -0.00000000000E+00 -0.00000000000E+00 -0.45593999997E+02  0.45594000000E+02  0.51100000000E-03 0.  1.
    9900012    2    1    2    0    0 -0.96898509810E+00  0.31478262562E+00  0.59581538106E+00  0.90007738931E+02  0.90000000285E+02 0.  0.
         12    1    1    2    0    0  0.96898509810E+00 -0.31478262562E+00 -0.59581538106E+00  0.11802610686E+01  0.00000000000E+00 0. -1.
         11    1    3    3    0    0  0.33483736883E+01 -0.35537150164E+02  0.31565664990E+01  0.35833846577E+02  0.51100000000E-03 0. -1.
        -11    1    3    3    0    0  0.78087613480E+01 -0.63804974623E+01  0.74080053663E+00  0.10111196139E+02  0.51100000000E-03 0.  1.
        -12    1    3    3    0    0 -0.12126120134E+02  0.42232430252E+02 -0.33015516546E+01  0.44062696216E+02  0.00000000000E+00 0.  1.
</event>
<event>
 7    1  0.2284751E-015  0.9000770E+02  0.7816164E-02  0.1186339E+00
        -11   -1    0    0    0    0  0.00000000000E+00  0.00000000000E+00  0.45593999997E+02  0.45594000000E+02  0.51100000000E-03 0. -1.
         11   -1    0    0    0    0 -0.00000000000E+00 -0.00000000000E+00 -0.45593999997E+02  0.45594000000E+02  0.51100000000E-03 0.  1.
    9900012    2    1    2    0    0  0.11557424311E+01  0.16890521219E+00 -0.16980817484E+00  0.90007701583E+02  0.89999962444E+02 0.  0.
         12    1    1    2    0    0 -0.11557424311E+01 -0.16890521219E+00  0.16980817484E+00  0.11802984174E+01  0.00000000000E+00 0. -1.
         11    1    3    3    0    0  0.23382960653E+02 -0.21908373070E+02 -0.18498965082E+02  0.36999342816E+02  0.51100000000E-03 0. -1.
        -11    1    3    3    0    0  0.88873904656E+01 -0.32284495445E+01  0.17782791642E+01  0.96213758266E+01  0.51100000000E-03 0.  1.
        -12    1    3    3    0    0 -0.31114608687E+02  0.25305727827E+02  0.16550877742E+02  0.43386982940E+02  0.00000000000E+00 0.  1.
</event>
<event>
 7    1  0.2284751E-015  0.9000773E+02  0.7816164E-02  0.1186339E+00
        -11   -1    0    0    0    0  0.00000000000E+00  0.00000000000E+00  0.45593999997E+02  0.45594000000E+02  0.51100000000E-03 0. -1.
         11   -1    0    0    0    0 -0.00000000000E+00 -0.00000000000E+00 -0.45593999997E+02  0.45594000000E+02  0.51100000000E-03 0.  1.
    9900012    2    1    2    0    0  0.11615163738E+00 -0.11237224217E+01  0.34173789959E+00  0.90007733896E+02  0.89999995184E+02 0.  0.
         12    1    1    2    0    0 -0.11615163738E+00  0.11237224217E+01 -0.34173789959E+00  0.11802661039E+01  0.00000000000E+00 0. -1.
         11    1    3    3    0    0 -0.25931389213E+01  0.69630130619E+01  0.37118289933E+02  0.37854661116E+02  0.51100000000E-03 0. -1.
        -11    1    3    3    0    0 -0.89284548206E+01  0.35303315135E+01  0.21999317048E+01  0.98498855753E+01  0.51100000000E-03 0.  1.
        -12    1    3    3    0    0  0.11637745379E+02 -0.11617066997E+02 -0.38976483738E+02  0.42303187205E+02  0.00000000000E+00 0.  1.
</event>
<event>
 7    1  0.2284751E-015  0.9000782E+02  0.7816164E-02  0.1186339E+00
        -11   -1    0    0    0    0  0.00000000000E+00  0.00000000000E+00  0.45593999997E+02  0.45594000000E+02  0.51100000000E-03 0. -1.
         11   -1    0    0    0    0 -0.00000000000E+00 -0.00000000000E+00 -0.45593999997E+02  0.45594000000E+02  0.51100000000E-03 0.  1.
    9900012    2    1    2    0    0  0.51316400456E+00 -0.10386017485E+01 -0.22539468723E+00  0.90007816263E+02  0.90000078638E+02 0.  0.
         12    1    1    2    0    0 -0.51316400456E+00  0.10386017485E+01  0.22539468723E+00  0.11801837368E+01  0.00000000000E+00 0. -1.
         11    1    3    3    0    0  0.30570605388E+00  0.69221686213E+01  0.53143247954E+01  0.87322347029E+01  0.51100000000E-03 0. -1.
        -11    1    3    3    0    0 -0.87058992782E+01  0.27698848796E+02 -0.26201802330E+02  0.39109504630E+02  0.51100000000E-03 0.  1.
         12    1    3    3    0    0  0.89133572289E+01 -0.35659619165E+02  0.20662082847E+02  0.42166076930E+02  0.00000000000E+00 0. -1.
</event>
<event>
 7    1  0.2284751E-015  0.9000770E+02  0.7816164E-02  0.1186339E+00
        -11   -1    0    0    0    0  0.00000000000E+00  0.00000000000E+00  0.45593999997E+02  0.45594000000E+02  0.51100000000E-03 0.  1.
         11   -1    0    0    0    0 -0.00000000000E+00 -0.00000000000E+00 -0.45593999997E+02  0.45594000000E+02  0.51100000000E-03 0. -1.
    9900012    2    1    2    0    0  0.50356254654E+00  0.10674644125E+01 -0.74375215576E-02  0.90007698841E+02  0.89999959665E+02 0.  0.
         12    1    1    2    0    0 -0.50356254654E+00 -0.10674644125E+01  0.74375215576E-02  0.11803011594E+01  0.00000000000E+00 0. -1.
         11    1    3    3    0    0 -0.30131272299E+02 -0.18922270449E+02 -0.24512741046E+01  0.35664472999E+02  0.51100000000E-03 0. -1.
        -11    1    3    3    0    0 -0.97830674170E+01  0.40160012579E+01 -0.15996364276E+01  0.10695583722E+02  0.51100000000E-03 0.  1.
        -12    1    3    3    0    0  0.40417902263E+02  0.15973733604E+02  0.40434730106E+01  0.43647642119E+02  0.00000000000E+00 0.  1.
</event>
<event>
 7    1  0.2284751E-015  0.9000788E+02  0.7816164E-02  0.1186339E+00
        -11   -1    0    0    0    0  0.00000000000E+00  0.00000000000E+00  0.45593999997E+02  0.45594000000E+02  0.51100000000E-03 0.  1.
         11   -1    0    0    0    0 -0.00000000000E+00 -0.00000000000E+00 -0.45593999997E+02  0.45594000000E+02  0.51100000000E-03 0. -1.
    9900012    2    1    2    0    0 -0.26924396899E-02 -0.11041679752E+01  0.41651067185E+00  0.90007883351E+02  0.90000146611E+02 0.  0.
         12    1    1    2    0    0  0.26924396899E-02  0.11041679752E+01 -0.41651067185E+00  0.11801166495E+01  0.00000000000E+00 0. -1.
         11    1    3    3    0    0 -0.31878598661E+02  0.14487409712E+02 -0.11496858605E+02  0.36855228269E+02  0.51100000000E-03 0. -1.
        -11    1    3    3    0    0  0.17479207424E+02  0.10998136883E+02 -0.51668066314E-02  0.20651434188E+02  0.51100000000E-03 0.  1.
        -12    1    3    3    0    0  0.14396698797E+02 -0.26589714570E+02  0.11918536084E+02  0.32501220893E+02  0.00000000000E+00 0.  1.
</event>
<event>
 7    1  0.2284751E-015  0.9000774E+02  0.7816164E-02  0.1186339E+00
        -11   -1    0    0    0    0  0.00000000000E+00  0.00000000000E+00  0.45593999997E+02  0.45594000000E+02  0.51100000000E-03 0. -1.
         11   -1    0    0    0    0 -0.00000000000E+00 -0.00000000000E+00 -0.45593999997E+02  0.45594000000E+02  0.51100000000E-03 0.  1.
    9900012    2    1    2    0    0 -0.20013921662E+00 -0.49700414889E-01 -0.11621007160E+01  0.90007744133E+02  0.90000005556E+02 0.  0.
         12    1    1    2    0    0  0.20013921662E+00  0.49700414889E-01  0.11621007160E+01  0.11802558670E+01  0.00000000000E+00 0. -1.
         11    1    3    3    0    0 -0.23442652746E+01 -0.90598098953E+01  0.32405465256E+02  0.33729659259E+02  0.51100000000E-03 0. -1.
        -11    1    3    3    0    0 -0.16690556539E+02 -0.41930474051E+01 -0.21535618897E+01  0.17343418152E+02  0.51100000000E-03 0.  1.
        -12    1    3    3    0    0  0.18834682597E+02  0.13203156886E+02 -0.31414004082E+02  0.38934666722E+02  0.00000000000E+00 0.  1.
</event>
<event>
 7    1  0.2284751E-015  0.9000771E+02  0.7816164E-02  0.1186339E+00
        -11   -1    0    0    0    0  0.00000000000E+00  0.00000000000E+00  0.45593999997E+02  0.45594000000E+02  0.51100000000E-03 0.  1.
         11   -1    0    0    0    0 -0.00000000000E+00 -0.00000000000E+00 -0.45593999997E+02  0.45594000000E+02  0.51100000000E-03 0. -1.
    9900012    2    1    2    0    0 -0.48682504191E+00  0.85836026046E+00  0.64753636488E+00  0.90007710077E+02  0.89999971050E+02 0.  0.
         12    1    1    2    0    0  0.48682504191E+00 -0.85836026046E+00 -0.64753636488E+00  0.11802899229E+01  0.00000000000E+00 0. -1.
         11    1    3    3    0    0 -0.15214754664E+01  0.59590439298E+01 -0.52896240025E+01  0.81120413277E+01  0.51100000000E-03 0. -1.
        -11    1    3    3    0    0  0.39869240479E+02 -0.13223853855E+02  0.30224924337E+01  0.42113680769E+02  0.51100000000E-03 0.  1.
         12    1    3    3    0    0 -0.38834590054E+02  0.81231701858E+01  0.29146679337E+01  0.39781987981E+02  0.00000000000E+00 0. -1.
</event>
<event>
 7    1  0.2284751E-015  0.9000777E+02  0.7816164E-02  0.1186339E+00
        -11   -1    0    0    0    0  0.00000000000E+00  0.00000000000E+00  0.45593999997E+02  0.45594000000E+02  0.51100000000E-03 0.  1.
         11   -1    0    0    0    0 -0.00000000000E+00 -0.00000000000E+00 -0.45593999997E+02  0.45594000000E+02  0.51100000000E-03 0. -1.
    9900012    2    1    2    0    0 -0.50502743779E+00  0.76225521061E+00  0.74622474890E+00  0.90007772439E+02  0.90000034236E+02 0.  0.
         12    1    1    2    0    0  0.50502743779E+00 -0.76225521061E+00 -0.74622474890E+00  0.11802275606E+01  0.00000000000E+00 0. -1.
         11    1    3    3    0    0  0.37420163998E+02 -0.43417449990E+01 -0.74814857300E+00  0.37678629882E+02  0.51100000000E-03 0. -1.
        -11    1    3    3    0    0  0.23482867302E+01 -0.72744620367E+01 -0.57664778975E+01  0.95752031881E+01  0.51100000000E-03 0.  1.
        -12    1    3    3    0    0 -0.40273478166E+02  0.12378462246E+02  0.72608512194E+01  0.42753939369E+02  0.00000000000E+00 0.  1.
</event>
<event>
 7    1  0.2284751E-015  0.9000769E+02  0.7816164E-02  0.1186339E+00
        -11   -1    0    0    0    0  0.00000000000E+00  0.00000000000E+00  0.45593999997E+02  0.45594000000E+02  0.51100000000E-03 0. -1.
         11   -1    0    0    0    0 -0.00000000000E+00 -0.00000000000E+00 -0.45593999997E+02  0.45594000000E+02  0.51100000000E-03 0.  1.
    9900012    2    1    2    0    0  0.43530388857E+00 -0.44403493097E+00 -0.10032328062E+01  0.90007689635E+02  0.89999950338E+02 0.  0.
         12    1    1    2    0    0 -0.43530388857E+00  0.44403493097E+00  0.10032328062E+01  0.11803103654E+01  0.00000000000E+00 0. -1.
         11    1    3    3    0    0  0.44754216029E+01 -0.75848847631E+01 -0.11505626144E+02  0.14489282543E+02  0.51100000000E-03 0. -1.
        -11    1    3    3    0    0  0.17271812303E+02  0.31655616680E+02 -0.96012389932E+01  0.37317252821E+02  0.51100000000E-03 0.  1.
         12    1    3    3    0    0 -0.21311930017E+02 -0.24514766848E+02  0.20103632331E+02  0.38201154270E+02  0.00000000000E+00 0. -1.
</event>
<event>
 7    1  0.2284751E-015  0.9000773E+02  0.7816164E-02  0.1186339E+00
        -11   -1    0    0    0    0  0.00000000000E+00  0.00000000000E+00  0.45593999997E+02  0.45594000000E+02  0.51100000000E-03 0. -1.
         11   -1    0    0    0    0 -0.00000000000E+00 -0.00000000000E+00 -0.45593999997E+02  0.45594000000E+02  0.51100000000E-03 0.  1.
    9900012    2    1    2    0    0  0.55172078196E+00  0.98084534946E+00 -0.35578220147E+00  0.90007731219E+02  0.89999992471E+02 0.  0.
         12    1    1    2    0    0 -0.55172078196E+00 -0.98084534946E+00  0.35578220147E+00  0.11802687811E+01  0.00000000000E+00 0. -1.
         11    1    3    3    0    0  0.89932652075E+01  0.59013472735E+01  0.14224725917E+02  0.17833887585E+02  0.51100000000E-03 0. -1.
        -11    1    3    3    0    0  0.29850978660E+02 -0.16532112921E+01  0.27348914709E+01  0.30021553360E+02  0.51100000000E-03 0.  1.
         12    1    3    3    0    0 -0.38292523086E+02 -0.32672906319E+01 -0.17315399589E+02  0.42152290273E+02  0.00000000000E+00 0. -1.
</event>
<event>
 7    1  0.2284751E-015  0.9000781E+02  0.7816164E-02  0.1186339E+00
        -11   -1    0    0    0    0  0.00000000000E+00  0.00000000000E+00  0.45593999997E+02  0.45594000000E+02  0.51100000000E-03 0.  1.
         11   -1    0    0    0    0 -0.00000000000E+00 -0.00000000000E+00 -0.45593999997E+02  0.45594000000E+02  0.51100000000E-03 0. -1.
    9900012    2    1    2    0    0 -0.11176013832E+01 -0.30811378768E+00  0.22108750031E+00  0.90007810761E+02  0.90000073063E+02 0.  0.
         12    1    1    2    0    0  0.11176013832E+01  0.30811378768E+00 -0.22108750031E+00  0.11801892394E+01  0.00000000000E+00 0. -1.
         11    1    3    3    0    0  0.34511081102E+02  0.90662153281E+01 -0.17989805702E+02  0.39960531637E+02  0.51100000000E-03 0. -1.
        -11    1    3    3    0    0 -0.24789419463E+01  0.85423488482E+01  0.43021392204E+01  0.98805505489E+01  0.51100000000E-03 0.  1.
        -12    1    3    3    0    0 -0.33149740539E+02 -0.17916677964E+02  0.13908753982E+02  0.40166728575E+02  0.00000000000E+00 0.  1.
</event>
<event>
 7    1  0.2284751E-015  0.9000783E+02  0.7816164E-02  0.1186339E+00
        -11   -1    0    0    0    0  0.00000000000E+00  0.00000000000E+00  0.45593999997E+02  0.45594000000E+02  0.51100000000E-03 0. -1.
         11   -1    0    0    0    0 -0.00000000000E+00 -0.00000000000E+00 -0.45593999997E+02  0.45594000000E+02  0.51100000000E-03 0.  1.
    9900012    2    1    2    0    0 -0.75454610959E+00  0.47859431589E+00  0.77097623654E+00  0.90007831915E+02  0.90000094497E+02 0.  0.
         12    1    1    2    0    0  0.75454610959E+00 -0.47859431589E+00 -0.77097623654E+00  0.11801680846E+01  0.00000000000E+00 0. -1.
         11    1    3    3    0    0 -0.16795814908E+02 -0.21222154548E+02  0.24739719430E+02  0.36667873674E+02  0.51100000000E-03 0. -1.
        -11    1    3    3    0    0 -0.88560430388E+01 -0.47479219029E+01 -0.43290929349E+00  0.10057816434E+02  0.51100000000E-03 0.  1.
        -12    1    3    3    0    0  0.24897311837E+02  0.26448670767E+02 -0.23535833900E+02  0.43282141807E+02  0.00000000000E+00 0.  1.
</event>
<event>
 7    1  0.2284751E-015  0.9000778E+02  0.7816164E-02  0.1186339E+00
        -11   -1    0    0    0    0  0.00000000000E+00  0.00000000000E+00  0.45593999997E+02  0.45594000000E+02  0.51100000000E-03 0. -1.
         11   -1    0    0    0    0 -0.00000000000E+00 -0.00000000000E+00 -0.45593999997E+02  0.45594000000E+02  0.51100000000E-03 0.  1.
    9900012    2    1    2    0    0 -0.92122721035E+00 -0.63505062443E+00 -0.37546128564E+00  0.90007779662E+02  0.90000041554E+02 0.  0.
         12    1    1    2    0    0  0.92122721035E+00  0.63505062443E+00  0.37546128564E+00  0.11802203378E+01  0.00000000000E+00 0. -1.
         11    1    3    3    0    0  0.51614675610E+01  0.82390093819E+01  0.12277199785E+01  0.97994550657E+01  0.51100000000E-03 0. -1.
        -11    1    3    3    0    0  0.44655443555E+01  0.33900296785E+02 -0.94142401238E+01  0.35465463847E+02  0.51100000000E-03 0.  1.
         12    1    3    3    0    0 -0.10548239127E+02 -0.42774356791E+02  0.78110588597E+01  0.44742860750E+02  0.00000000000E+00 0. -1.
</event>
<event>
 7    1  0.2284751E-015  0.9000763E+02  0.7816164E-02  0.1186339E+00
        -11   -1    0    0    0    0  0.00000000000E+00  0.00000000000E+00  0.45593999997E+02  0.45594000000E+02  0.51100000000E-03 0.  1.
         11   -1    0    0    0    0 -0.00000000000E+00 -0.00000000000E+00 -0.45593999997E+02  0.45594000000E+02  0.51100000000E-03 0. -1.
    9900012    2    1    2    0    0  0.21229125993E-01 -0.81439343912E+00  0.85415476038E+00  0.90007632386E+02  0.89999892333E+02 0.  0.
         12    1    1    2    0    0 -0.21229125993E-01  0.81439343912E+00 -0.85415476038E+00  0.11803676140E+01  0.00000000000E+00 0. -1.
         11    1    3    3    0    0  0.16113342167E+01 -0.23868787712E+01 -0.71105685258E+01  0.76716212920E+01  0.51100000000E-03 0. -1.
        -11    1    3    3    0    0 -0.23905523640E+02 -0.31820130193E+02 -0.50469216222E+01  0.40118152552E+02  0.51100000000E-03 0.  1.
         12    1    3    3    0    0  0.22315418550E+02  0.33392615525E+02  0.13011644908E+02  0.42217858542E+02  0.00000000000E+00 0. -1.
</event>
<event>
 7    1  0.2284751E-015  0.9000783E+02  0.7816164E-02  0.1186339E+00
        -11   -1    0    0    0    0  0.00000000000E+00  0.00000000000E+00  0.45593999997E+02  0.45594000000E+02  0.51100000000E-03 0. -1.
         11   -1    0    0    0    0 -0.00000000000E+00 -0.00000000000E+00 -0.45593999997E+02  0.45594000000E+02  0.51100000000E-03 0.  1.
    9900012    2    1    2    0    0 -0.59200416641E+00  0.51157474995E+00 -0.88352380634E+00  0.90007833921E+02  0.90000096529E+02 0.  0.
         12    1    1    2    0    0  0.59200416641E+00 -0.51157474995E+00  0.88352380634E+00  0.11801660791E+01  0.00000000000E+00 0. -1.
         11    1    3    3    0    0 -0.24501663628E+02  0.21335597195E+01 -0.22251517631E+02  0.33166453454E+02  0.51100000000E-03 0. -1.
        -11    1    3    3    0    0 -0.84765735462E+01  0.96317996030E+01 -0.48118791030E+01  0.13703212887E+02  0.51100000000E-03 0.  1.
        -12    1    3    3    0    0  0.32386233007E+02 -0.11253784573E+02  0.26179872927E+02  0.43138167579E+02  0.00000000000E+00 0.  1.
</event>
<event>
 7    1  0.2284751E-015  0.9000760E+02  0.7816164E-02  0.1186339E+00
        -11   -1    0    0    0    0  0.00000000000E+00  0.00000000000E+00  0.45593999997E+02  0.45594000000E+02  0.51100000000E-03 0. -1.
         11   -1    0    0    0    0 -0.00000000000E+00 -0.00000000000E+00 -0.45593999997E+02  0.45594000000E+02  0.51100000000E-03 0.  1.
    9900012    2    1    2    0    0  0.40161290563E+00 -0.11097044734E+01  0.24682550847E-01  0.90007599148E+02  0.89999858656E+02 0.  0.
         12    1    1    2    0    0 -0.40161290563E+00  0.11097044734E+01 -0.24682550847E-01  0.11804008525E+01  0.00000000000E+00 0. -1.
         11    1    3    3    0    0  0.26129295023E+02 -0.81125121354E+01  0.24045162013E+02  0.36424205249E+02  0.51100000000E-03 0. -1.
        -11    1    3    3    0    0  0.98100619515E+01  0.62638179753E+01 -0.21139994394E+01  0.11829696742E+02  0.51100000000E-03 0.  1.
        -12    1    3    3    0    0 -0.35537744069E+02  0.73898968670E+00 -0.21906480023E+02  0.41753697156E+02  0.00000000000E+00 0.  1.
</event>
<event>
 7    1  0.2284751E-015  0.9000771E+02  0.7816164E-02  0.1186339E+00
        -11   -1    0    0    0    0  0.00000000000E+00  0.00000000000E+00  0.45593999997E+02  0.45594000000E+02  0.51100000000E-03 0. -1.
         11   -1    0    0    0    0 -0.00000000000E+00 -0.00000000000E+00 -0.45593999997E+02  0.45594000000E+02  0.51100000000E-03 0.  1.
    9900012    2    1    2    0    0  0.17005935097E+00  0.31857330272E+00 -0.11236850309E+01  0.90007713094E+02  0.89999974107E+02 0.  0.
         12    1    1    2    0    0 -0.17005935097E+00 -0.31857330272E+00  0.11236850309E+01  0.11802869062E+01  0.00000000000E+00 0. -1.
         11    1    3    3    0    0  0.41858225976E+01 -0.10223330934E+01 -0.11032140454E+02  0.11843749365E+02  0.51100000000E-03 0. -1.
        -11    1    3    3    0    0 -0.10111713975E+02  0.11456161160E+01 -0.33149424086E+02  0.34676267292E+02  0.51100000000E-03 0.  1.
         12    1    3    3    0    0  0.60959507279E+01  0.19529028008E+00  0.43057879509E+02  0.43487696437E+02  0.00000000000E+00 0. -1.
</event>
<event>
 7    1  0.2284751E-015  0.9000698E+02  0.7816164E-02  0.1186341E+00
        -11   -1    0    0    0    0  0.00000000000E+00  0.00000000000E+00  0.45593999997E+02  0.45594000000E+02  0.51100000000E-03 0. -1.
         11   -1    0    0    0    0 -0.00000000000E+00 -0.00000000000E+00 -0.45593999997E+02  0.45594000000E+02  0.51100000000E-03 0.  1.
    9900012    2    1    2    0    0  0.79575294252E-01  0.89405912788E+00 -0.76755145399E+00  0.90006979600E+02  0.89999230927E+02 0.  0.
         12    1    1    2    0    0 -0.79575294252E-01 -0.89405912788E+00  0.76755145399E+00  0.11810204004E+01  0.00000000000E+00 0. -1.
         11    1    3    3    0    0 -0.58909801564E+01 -0.28617733343E+01 -0.44724388644E+01  0.79307063668E+01  0.51100000000E-03 0. -1.
        -11    1    3    3    0    0 -0.34533969353E+02  0.81994492296E+01 -0.13325485564E+02  0.37912986861E+02  0.51100000000E-03 0.  1.
         12    1    3    3    0    0  0.40504524804E+02 -0.44436167674E+01  0.17030372974E+02  0.44163286372E+02  0.00000000000E+00 0. -1.
</event>
<event>
 7    1  0.2534907E-015  0.9000782E+02  0.7816164E-02  0.1186339E+00
        -11   -1    0    0    0    0  0.00000000000E+00  0.00000000000E+00  0.45593999997E+02  0.45594000000E+02  0.51100000000E-03 0.  1.
         11   -1    0    0    0    0 -0.00000000000E+00 -0.00000000000E+00 -0.45593999997E+02  0.45594000000E+02  0.51100000000E-03 0. -1.
    9900012    2    1    2    0    0  0.81967536041E-01 -0.67133144564E+00  0.96717028630E+00  0.90007820798E+02  0.90000083232E+02 0.  0.
         12    1    1    2    0    0 -0.81967536041E-01  0.67133144564E+00 -0.96717028630E+00  0.11801792023E+01  0.00000000000E+00 0. -1.
         11    1    3    3    0    0 -0.13802511519E+01  0.37042082894E+02 -0.86549427514E+01  0.38064800441E+02  0.51100000000E-03 0. -1.
        -11    1    3    3    0    0 -0.98594919019E+01  0.16744222476E+01  0.88852851533E+00  0.10040057451E+02  0.51100000000E-03 0.  1.
        -12    1    3    3    0    0  0.11321710590E+02 -0.39387836587E+02  0.87335845224E+01  0.41902962906E+02  0.00000000000E+00 0.  1.
</event>
<event>
 7    1  0.2284751E-015  0.9000769E+02  0.7816164E-02  0.1186339E+00
        -11   -1    0    0    0    0  0.00000000000E+00  0.00000000000E+00  0.45593999997E+02  0.45594000000E+02  0.51100000000E-03 0. -1.
         11   -1    0    0    0    0 -0.00000000000E+00 -0.00000000000E+00 -0.45593999997E+02  0.45594000000E+02  0.51100000000E-03 0.  1.
    9900012    2    1    2    0    0  0.74807136658E+00 -0.66304533704E+00 -0.62759885252E+00  0.90007694867E+02  0.89999955639E+02 0.  0.
         12    1    1    2    0    0 -0.74807136658E+00  0.66304533704E+00  0.62759885252E+00  0.11803051335E+01  0.00000000000E+00 0. -1.
         11    1    3    3    0    0  0.30384962035E+01 -0.10867977848E+01 -0.90706206345E+01  0.96275514831E+01  0.51100000000E-03 0. -1.
        -11    1    3    3    0    0  0.14068282525E+02  0.36440811790E+02 -0.30650475693E+01  0.39182187968E+02  0.51100000000E-03 0.  1.
         12    1    3    3    0    0 -0.16358707361E+02 -0.36017059342E+02  0.11508069351E+02  0.41197955415E+02  0.00000000000E+00 0. -1.
</event>
<event>
 7    1  0.3442532E-015  0.9000772E+02  0.7816164E-02  0.1186339E+00
        -11   -1    0    0    0    0  0.00000000000E+00  0.00000000000E+00  0.45593999997E+02  0.45594000000E+02  0.51100000000E-03 0. -1.
         11   -1    0    0    0    0 -0.00000000000E+00 -0.00000000000E+00 -0.45593999997E+02  0.45594000000E+02  0.51100000000E-03 0.  1.
    9900012    2    1    2    0    0  0.54027337044E+00 -0.25780041709E+00 -0.10172074786E+01  0.90007717227E+02  0.89999978294E+02 0.  0.
         12    1    1    2    0    0 -0.54027337044E+00  0.25780041709E+00  0.10172074786E+01  0.11802827731E+01  0.00000000000E+00 0. -1.
         11    1    3    3    0    0  0.26926043408E+02 -0.15291519677E+02  0.19434531289E+02  0.36558766313E+02  0.51100000000E-03 0. -1.
        -11    1    3    3    0    0  0.62610450932E+01  0.43817932356E+01  0.63112193027E+01  0.99112202562E+01  0.51100000000E-03 0.  1.
        -12    1    3    3    0    0 -0.32646815131E+02  0.10651926024E+02 -0.26762958070E+02  0.43537730658E+02  0.00000000000E+00 0.  1.
</event>
<event>
 7    1  0.2284751E-015  0.9000773E+02  0.7816164E-02  0.1186339E+00
        -11   -1    0    0    0    0  0.00000000000E+00  0.00000000000E+00  0.45593999997E+02  0.45594000000E+02  0.51100000000E-03 0.  1.
         11   -1    0    0    0    0 -0.00000000000E+00 -0.00000000000E+00 -0.45593999997E+02  0.45594000000E+02  0.51100000000E-03 0. -1.
    9900012    2    1    2    0    0  0.70319581658E+00 -0.92068021142E+00  0.22562344814E+00  0.90007727850E+02  0.89999989057E+02 0.  0.
         12    1    1    2    0    0 -0.70319581658E+00  0.92068021142E+00 -0.22562344814E+00  0.11802721502E+01  0.00000000000E+00 0. -1.
         11    1    3    3    0    0 -0.21385951213E+02  0.22779498385E+02 -0.25162056430E+02  0.40117247413E+02  0.51100000000E-03 0. -1.
        -11    1    3    3    0    0  0.81679693722E+00  0.44922688149E+01  0.10713263223E+02  0.11645670676E+02  0.51100000000E-03 0.  1.
        -12    1    3    3    0    0  0.21272350092E+02 -0.28192447411E+02  0.14674416655E+02  0.38244809761E+02  0.00000000000E+00 0.  1.
</event>
<event>
 7    1  0.2284751E-015  0.9000771E+02  0.7816164E-02  0.1186339E+00
        -11   -1    0    0    0    0  0.00000000000E+00  0.00000000000E+00  0.45593999997E+02  0.45594000000E+02  0.51100000000E-03 0.  1.
         11   -1    0    0    0    0 -0.00000000000E+00 -0.00000000000E+00 -0.45593999997E+02  0.45594000000E+02  0.51100000000E-03 0. -1.
    9900012    2    1    2    0    0 -0.80501018761E+00 -0.51949156552E+00  0.68932250404E+00  0.90007712576E+02  0.89999973582E+02 0.  0.
         12    1    1    2    0    0  0.80501018761E+00  0.51949156552E+00 -0.68932250404E+00  0.11802874241E+01  0.00000000000E+00 0. -1.
         11    1    3    3    0    0 -0.67495952713E+01  0.18291468783E+01  0.23339887644E+01  0.73722668456E+01  0.51100000000E-03 0. -1.
        -11    1    3    3    0    0  0.34315521504E+02 -0.24580408308E+02  0.12333927237E+02  0.43975871226E+02  0.51100000000E-03 0.  1.
         12    1    3    3    0    0 -0.28370936421E+02  0.22231769865E+02 -0.13978593497E+02  0.38659574504E+02  0.00000000000E+00 0. -1.
</event>
<event>
 7    1  0.2427185E-015  0.9000774E+02  0.7816164E-02  0.1186339E+00
        -11   -1    0    0    0    0  0.00000000000E+00  0.00000000000E+00  0.45593999997E+02  0.45594000000E+02  0.51100000000E-03 0.  1.
         11   -1    0    0    0    0 -0.00000000000E+00 -0.00000000000E+00 -0.45593999997E+02  0.45594000000E+02  0.51100000000E-03 0. -1.
    9900012    2    1    2    0    0  0.84151667204E+00 -0.52012066547E+00  0.64369161035E+00  0.90007739560E+02  0.90000000923E+02 0.  0.
         12    1    1    2    0    0 -0.84151667204E+00  0.52012066547E+00 -0.64369161035E+00  0.11802604396E+01  0.00000000000E+00 0. -1.
         11    1    3    3    0    0 -0.28390924919E+02 -0.52825649054E+01 -0.21234691196E+02  0.35844974825E+02  0.51100000000E-03 0. -1.
        -11    1    3    3    0    0 -0.59074533744E+01  0.56074322495E+01 -0.53115082383E+01  0.97238583818E+01  0.51100000000E-03 0.  1.
        -12    1    3    3    0    0  0.35139894965E+02 -0.84498800962E+00  0.27189891045E+02  0.44438906354E+02  0.00000000000E+00 0.  1.
</event>
<event>
 7    1  0.2284751E-015  0.9000773E+02  0.7816164E-02  0.1186339E+00
        -11   -1    0    0    0    0  0.00000000000E+00  0.00000000000E+00  0.45593999997E+02  0.45594000000E+02  0.51100000000E-03 0.  1.
         11   -1    0    0    0    0 -0.00000000000E+00 -0.00000000000E+00 -0.45593999997E+02  0.45594000000E+02  0.51100000000E-03 0. -1.
    9900012    2    1    2    0    0 -0.75493021737E+00 -0.32562023786E+00  0.84680554073E+00  0.90007734015E+02  0.89999995304E+02 0.  0.
         12    1    1    2    0    0  0.75493021737E+00  0.32562023786E+00 -0.84680554073E+00  0.11802659854E+01  0.00000000000E+00 0. -1.
         11    1    3    3    0    0 -0.26754957528E+02  0.18627061467E+02  0.25827100716E+02  0.41591276764E+02  0.51100000000E-03 0. -1.
        -11    1    3    3    0    0 -0.51747629005E+01 -0.48796952450E+01 -0.59603713437E+01  0.92798504070E+01  0.51100000000E-03 0.  1.
        -12    1    3    3    0    0  0.31174790212E+02 -0.14072986459E+02 -0.19019923832E+02  0.39136606843E+02  0.00000000000E+00 0.  1.
</event>
<event>
 7    1  0.2284751E-015  0.9000780E+02  0.7816164E-02  0.1186339E+00
        -11   -1    0    0    0    0  0.00000000000E+00  0.00000000000E+00  0.45593999997E+02  0.45594000000E+02  0.51100000000E-03 0.  1.
         11   -1    0    0    0    0 -0.00000000000E+00 -0.00000000000E+00 -0.45593999997E+02  0.45594000000E+02  0.51100000000E-03 0. -1.
    9900012    2    1    2    0    0 -0.55320580282E+00 -0.18046335253E+00  0.10267784830E+01  0.90007797587E+02  0.90000059715E+02 0.  0.
         12    1    1    2    0    0  0.55320580282E+00  0.18046335253E+00 -0.10267784830E+01  0.11802024127E+01  0.00000000000E+00 0. -1.
         11    1    3    3    0    0  0.10061223863E+02 -0.17336808365E+01 -0.47032339799E+01  0.11240742191E+02  0.51100000000E-03 0. -1.
        -11    1    3    3    0    0 -0.16904055665E+02 -0.14096738180E+01  0.40184556536E+02  0.43618033684E+02  0.51100000000E-03 0.  1.
         12    1    3    3    0    0  0.62896259992E+01  0.29628913019E+01 -0.34454544073E+02  0.35149021713E+02  0.00000000000E+00 0. -1.
</event>
<event>
 7    1  0.2284751E-015  0.9000737E+02  0.7816164E-02  0.1186340E+00
        -11   -1    0    0    0    0  0.00000000000E+00  0.00000000000E+00  0.45593999997E+02  0.45594000000E+02  0.51100000000E-03 0.  1.
         11   -1    0    0    0    0 -0.00000000000E+00 -0.00000000000E+00 -0.45593999997E+02  0.45594000000E+02  0.51100000000E-03 0. -1.
    9900012    2    1    2    0    0 -0.71627672783E+00  0.41182963676E+00  0.84334871458E+00  0.90007367519E+02  0.89999623970E+02 0.  0.
         12    1    1    2    0    0  0.71627672783E+00 -0.41182963676E+00 -0.84334871458E+00  0.11806324809E+01  0.00000000000E+00 0. -1.
         11    1    3    3    0    0 -0.24544718209E+01  0.89580693700E+01  0.20092079229E+01  0.95030708456E+01  0.51100000000E-03 0. -1.
        -11    1    3    3    0    0 -0.27351979743E+02 -0.24892779122E+01 -0.28892302033E+02  0.39863422049E+02  0.51100000000E-03 0.  1.
         12    1    3    3    0    0  0.29090174836E+02 -0.60569618210E+01  0.27726442825E+02  0.40640874625E+02  0.00000000000E+00 0. -1.
</event>
<event>
 7    1  0.2284751E-015  0.9000761E+02  0.7816164E-02  0.1186339E+00
        -11   -1    0    0    0    0  0.00000000000E+00  0.00000000000E+00  0.45593999997E+02  0.45594000000E+02  0.51100000000E-03 0.  1.
         11   -1    0    0    0    0 -0.00000000000E+00 -0.00000000000E+00 -0.45593999997E+02  0.45594000000E+02  0.51100000000E-03 0. -1.
    9900012    2    1    2    0    0  0.25169502969E+00 -0.94380242944E+00  0.66271927088E+00  0.90007614366E+02  0.89999874075E+02 0.  0.
         12    1    1    2    0    0 -0.25169502969E+00  0.94380242944E+00 -0.66271927088E+00  0.11803856343E+01  0.00000000000E+00 0. -1.
         11    1    3    3    0    0 -0.32221420600E+02  0.23885782815E+02  0.80935481577E+01  0.40917674521E+02  0.51100000000E-03 0. -1.
        -11    1    3    3    0    0  0.21180529006E+01  0.18344647848E+01 -0.82146042011E+01  0.86793508731E+01  0.51100000000E-03 0.  1.
        -12    1    3    3    0    0  0.30355062729E+02 -0.26664050029E+02  0.78377531426E+00  0.40410588971E+02  0.00000000000E+00 0.  1.
</event>
<event>
 7    1  0.2284751E-015  0.9000759E+02  0.7816164E-02  0.1186339E+00
        -11   -1    0    0    0    0  0.00000000000E+00  0.00000000000E+00  0.45593999997E+02  0.45594000000E+02  0.51100000000E-03 0. -1.
         11   -1    0    0    0    0 -0.00000000000E+00 -0.00000000000E+00 -0.45593999997E+02  0.45594000000E+02  0.51100000000E-03 0.  1.
    9900012    2    1    2    0    0 -0.94501736005E+00  0.23499035903E-01 -0.70693690913E+00  0.90007589136E+02  0.89999848512E+02 0.  0.
         12    1    1    2    0    0  0.94501736005E+00 -0.23499035903E-01  0.70693690913E+00  0.11804108645E+01  0.00000000000E+00 0. -1.
         11    1    3    3    0    0  0.57956500883E+01 -0.10564941063E+02  0.38307706875E+00  0.12056296608E+02  0.51100000000E-03 0. -1.
        -11    1    3    3    0    0  0.20763089418E+02 -0.24868674422E+02  0.45861295748E+01  0.32719862995E+02  0.51100000000E-03 0.  1.
         12    1    3    3    0    0 -0.27503756867E+02  0.35457114520E+02 -0.56761435527E+01  0.45231429532E+02  0.00000000000E+00 0. -1.
</event>
<event>
 7    1  0.2284751E-015  0.9000801E+02  0.7816164E-02  0.1186339E+00
        -11   -1    0    0    0    0  0.00000000000E+00  0.00000000000E+00  0.45593999997E+02  0.45594000000E+02  0.51100000000E-03 0. -1.
         11   -1    0    0    0    0 -0.00000000000E+00 -0.00000000000E+00 -0.45593999997E+02  0.45594000000E+02  0.51100000000E-03 0.  1.
    9900012    2    1    2    0    0 -0.10145085024E+01 -0.19344791859E+00  0.57073384759E+00  0.90008005626E+02  0.90000270500E+02 0.  0.
         12    1    1    2    0    0  0.10145085024E+01  0.19344791859E+00 -0.57073384759E+00  0.11799943743E+01  0.00000000000E+00 0. -1.
         11    1    3    3    0    0 -0.15853379634E+01  0.73899433593E+01 -0.29974789944E+01  0.81307711746E+01  0.51100000000E-03 0. -1.
        -11    1    3    3    0    0 -0.24614014366E+02 -0.14698830469E+02 -0.28541080328E+02  0.40453659746E+02  0.51100000000E-03 0.  1.
         12    1    3    3    0    0  0.25184843827E+02  0.71154391910E+01  0.32109293169E+02  0.41423574705E+02  0.00000000000E+00 0. -1.
</event>
<event>
 7    1  0.2284751E-015  0.9000771E+02  0.7816164E-02  0.1186339E+00
        -11   -1    0    0    0    0  0.00000000000E+00  0.00000000000E+00  0.45593999997E+02  0.45594000000E+02  0.51100000000E-03 0. -1.
         11   -1    0    0    0    0 -0.00000000000E+00 -0.00000000000E+00 -0.45593999997E+02  0.45594000000E+02  0.51100000000E-03 0.  1.
    9900012    2    1    2    0    0  0.25911285454E+00  0.26456572449E+00 -0.11206873325E+01  0.90007714191E+02  0.89999975218E+02 0.  0.
         12    1    1    2    0    0 -0.25911285454E+00 -0.26456572449E+00  0.11206873325E+01  0.11802858091E+01  0.00000000000E+00 0. -1.
         11    1    3    3    0    0  0.12879648067E+01  0.10077183146E+02  0.77607174357E+01  0.12784256290E+02  0.51100000000E-03 0. -1.
        -11    1    3    3    0    0  0.11855974500E+02  0.21107411267E+01 -0.39847447600E+02  0.41627376088E+02  0.51100000000E-03 0.  1.
         12    1    3    3    0    0 -0.12884826452E+02 -0.11923358548E+02  0.30966042832E+02  0.35596081813E+02  0.00000000000E+00 0. -1.
</event>
<event>
 7    1  0.2284751E-015  0.9000744E+02  0.7816164E-02  0.1186340E+00
        -11   -1    0    0    0    0  0.00000000000E+00  0.00000000000E+00  0.45593999997E+02  0.45594000000E+02  0.51100000000E-03 0.  1.
         11   -1    0    0    0    0 -0.00000000000E+00 -0.00000000000E+00 -0.45593999997E+02  0.45594000000E+02  0.51100000000E-03 0. -1.
    9900012    2    1    2    0    0  0.10642221248E+01  0.50574408532E+00 -0.73352061023E-01  0.90007438127E+02  0.89999695510E+02 0.  0.
         12    1    1    2    0    0 -0.10642221248E+01 -0.50574408532E+00  0.73352061023E-01  0.11805618729E+01  0.00000000000E+00 0. -1.
         11    1    3    3    0    0  0.15006228118E+02 -0.31939488259E+02 -0.18045931989E+02  0.39635507492E+02  0.51100000000E-03 0. -1.
        -11    1    3    3    0    0 -0.10133837982E+02 -0.87850989125E+00 -0.32530297083E+01  0.10679356461E+02  0.51100000000E-03 0.  1.
        -12    1    3    3    0    0 -0.38081680115E+01  0.33323742235E+02  0.21225609636E+02  0.39692574174E+02  0.00000000000E+00 0.  1.
</event>
<event>
 7    1  0.2284751E-015  0.9000774E+02  0.7816164E-02  0.1186339E+00
        -11   -1    0    0    0    0  0.00000000000E+00  0.00000000000E+00  0.45593999997E+02  0.45594000000E+02  0.51100000000E-03 0. -1.
         11   -1    0    0    0    0 -0.00000000000E+00 -0.00000000000E+00 -0.45593999997E+02  0.45594000000E+02  0.51100000000E-03 0.  1.
    9900012    2    1    2    0    0 -0.20992469917E+00 -0.11501873621E+01  0.16126532310E+00  0.90007743311E+02  0.90000004723E+02 0.  0.
         12    1    1    2    0    0  0.20992469917E+00  0.11501873621E+01 -0.16126532310E+00  0.11802566889E+01  0.00000000000E+00 0. -1.
         11    1    3    3    0    0 -0.39000653348E+01  0.91395206399E+01 -0.33105036454E+01  0.10473814099E+02  0.51100000000E-03 0. -1.
        -11    1    3    3    0    0  0.72612608615E+01 -0.11860663243E+02 -0.36661983401E+02  0.39210996787E+02  0.51100000000E-03 0.  1.
         12    1    3    3    0    0 -0.35711202259E+01  0.15709552413E+01  0.40133752370E+02  0.40322932425E+02  0.00000000000E+00 0. -1.
</event>
<event>
 7    1  0.2284751E-015  0.9000774E+02  0.7816164E-02  0.1186339E+00
        -11   -1    0    0    0    0  0.00000000000E+00  0.00000000000E+00  0.45593999997E+02  0.45594000000E+02  0.51100000000E-03 0.  1.
         11   -1    0    0    0    0 -0.00000000000E+00 -0.00000000000E+00 -0.45593999997E+02  0.45594000000E+02  0.51100000000E-03 0. -1.
    9900012    2    1    2    0    0  0.28504867443E+00 -0.47933163234E+00  0.10401976619E+01  0.90007736158E+02  0.89999997475E+02 0.  0.
         12    1    1    2    0    0 -0.28504867443E+00  0.47933163234E+00 -0.10401976619E+01  0.11802638418E+01  0.00000000000E+00 0. -1.
         11    1    3    3    0    0  0.42081427369E+01 -0.44885037679E+01  0.80659533248E+01  0.10144689974E+02  0.51100000000E-03 0. -1.
        -11    1    3    3    0    0 -0.15838505141E+02 -0.28420740289E+02  0.18017475374E+02  0.37191748316E+02  0.51100000000E-03 0.  1.
         12    1    3    3    0    0  0.11915411079E+02  0.32429912424E+02 -0.25043231037E+02  0.42671297869E+02  0.00000000000E+00 0. -1.
</event>
<event>
 7    1  0.2284751E-015  0.9000762E+02  0.7816164E-02  0.1186339E+00
        -11   -1    0    0    0    0  0.00000000000E+00  0.00000000000E+00  0.45593999997E+02  0.45594000000E+02  0.51100000000E-03 0. -1.
         11   -1    0    0    0    0 -0.00000000000E+00 -0.00000000000E+00 -0.45593999997E+02  0.45594000000E+02  0.51100000000E-03 0.  1.
    9900012    2    1    2    0    0  0.18769707319E+00 -0.54141357103E+00  0.10319543845E+01  0.90007623493E+02  0.89999883323E+02 0.  0.
         12    1    1    2    0    0 -0.18769707319E+00  0.54141357103E+00 -0.10319543845E+01  0.11803765069E+01  0.00000000000E+00 0. -1.
         11    1    3    3    0    0 -0.26625855282E+02 -0.88563900943E+01  0.58046690439E+01  0.28654249213E+02  0.51100000000E-03 0. -1.
        -11    1    3    3    0    0  0.30939403432E+01  0.14842626414E+02  0.20884231078E+02  0.25807501501E+02  0.51100000000E-03 0.  1.
        -12    1    3    3    0    0  0.23719612012E+02 -0.65276498909E+01 -0.25656945738E+02  0.35545872780E+02  0.00000000000E+00 0.  1.
</event>
<event>
 7    1  0.2284751E-015  0.9000775E+02  0.7816164E-02  0.1186339E+00
        -11   -1    0    0    0    0  0.00000000000E+00  0.00000000000E+00  0.45593999997E+02  0.45594000000E+02  0.51100000000E-03 0.  1.
         11   -1    0    0    0    0 -0.00000000000E+00 -0.00000000000E+00 -0.45593999997E+02  0.45594000000E+02  0.51100000000E-03 0. -1.
    9900012    2    1    2    0    0 -0.61807315996E+00  0.17499051200E+00  0.99012619500E+00  0.90007751724E+02  0.90000013247E+02 0.  0.
         12    1    1    2    0    0  0.61807315996E+00 -0.17499051200E+00 -0.99012619500E+00  0.11802482757E+01  0.00000000000E+00 0. -1.
         11    1    3    3    0    0  0.30992171981E+02  0.14452667949E+02  0.17456636174E+02  0.38394380861E+02  0.51100000000E-03 0. -1.
        -11    1    3    3    0    0  0.74561651483E+01 -0.51423393018E+00 -0.30834332245E+01  0.80849487299E+01  0.51100000000E-03 0.  1.
        -12    1    3    3    0    0 -0.39066410289E+02 -0.13763443507E+02 -0.13383076754E+02  0.43528422134E+02  0.00000000000E+00 0.  1.
</event>
<event>
 7    1  0.2284751E-015  0.9000767E+02  0.7816164E-02  0.1186339E+00
        -11   -1    0    0    0    0  0.00000000000E+00  0.00000000000E+00  0.45593999997E+02  0.45594000000E+02  0.51100000000E-03 0.  1.
         11   -1    0    0    0    0 -0.00000000000E+00 -0.00000000000E+00 -0.45593999997E+02  0.45594000000E+02  0.51100000000E-03 0. -1.
    9900012    2    1    2    0    0  0.78253896674E+00  0.18733201640E+00  0.86354729375E+00  0.90007671890E+02  0.89999932359E+02 0.  0.
         12    1    1    2    0    0 -0.78253896674E+00 -0.18733201640E+00 -0.86354729375E+00  0.11803281101E+01  0.00000000000E+00 0. -1.
         11    1    3    3    0    0 -0.62161698414E+00 -0.17171341834E+01  0.82997590820E+01  0.84982915083E+01  0.51100000000E-03 0. -1.
        -11    1    3    3    0    0  0.24593180851E+02  0.38716622993E+01  0.29034057593E+02  0.38246448383E+02  0.51100000000E-03 0.  1.
         12    1    3    3    0    0 -0.23189024901E+02 -0.19671960995E+01 -0.36470269381E+02  0.43262931998E+02  0.00000000000E+00 0. -1.
</event>
<event>
 7    1  0.2284751E-015  0.9000762E+02  0.7816164E-02  0.1186339E+00
        -11   -1    0    0    0    0  0.00000000000E+00  0.00000000000E+00  0.45593999997E+02  0.45594000000E+02  0.51100000000E-03 0. -1.
         11   -1    0    0    0    0 -0.00000000000E+00 -0.00000000000E+00 -0.45593999997E+02  0.45594000000E+02  0.51100000000E-03 0.  1.
    9900012    2    1    2    0    0 -0.10810241301E+01 -0.47155276087E+00 -0.48226967581E-01  0.90007618275E+02  0.89999878036E+02 0.  0.
         12    1    1    2    0    0  0.10810241301E+01  0.47155276087E+00  0.48226967581E-01  0.11803817249E+01  0.00000000000E+00 0. -1.
         11    1    3    3    0    0  0.34684439274E+02  0.21034087113E+01  0.39051952622E+01  0.34966915881E+02  0.51100000000E-03 0. -1.
        -11    1    3    3    0    0  0.75327649277E+01 -0.22333470124E+01  0.68389348225E+01  0.10416401303E+02  0.51100000000E-03 0.  1.
        -12    1    3    3    0    0 -0.43298228332E+02 -0.34161445972E+00 -0.10792357052E+02  0.44624301091E+02  0.00000000000E+00 0.  1.
</event>
<event>
 7    1  0.2284751E-015  0.9000771E+02  0.7816164E-02  0.1186339E+00
        -11   -1    0    0    0    0  0.00000000000E+00  0.00000000000E+00  0.45593999997E+02  0.45594000000E+02  0.51100000000E-03 0.  1.
         11   -1    0    0    0    0 -0.00000000000E+00 -0.00000000000E+00 -0.45593999997E+02  0.45594000000E+02  0.51100000000E-03 0. -1.
    9900012    2    1    2    0    0  0.36753933793E+00  0.81114407406E+00  0.77462421777E+00  0.90007710818E+02  0.89999971801E+02 0.  0.
         12    1    1    2    0    0 -0.36753933793E+00 -0.81114407406E+00 -0.77462421777E+00  0.11802891817E+01  0.00000000000E+00 0. -1.
         11    1    3    3    0    0  0.82495015172E+01 -0.35944767323E+02 -0.35994750800E+01  0.37054511119E+02  0.51100000000E-03 0. -1.
        -11    1    3    3    0    0  0.54880203782E+01 -0.55725513468E+01  0.34641483464E+01  0.85540645433E+01  0.51100000000E-03 0.  1.
        -12    1    3    3    0    0 -0.13369982557E+02  0.42328462744E+02  0.90995095136E+00  0.44399135156E+02  0.00000000000E+00 0.  1.
</event>
<event>
 7    1  0.2284751E-015  0.9000770E+02  0.7816164E-02  0.1186339E+00
        -11   -1    0    0    0    0  0.00000000000E+00  0.00000000000E+00  0.45593999997E+02  0.45594000000E+02  0.51100000000E-03 0.  1.
         11   -1    0    0    0    0 -0.00000000000E+00 -0.00000000000E+00 -0.45593999997E+02  0.45594000000E+02  0.51100000000E-03 0. -1.
    9900012    2    1    2    0    0 -0.38176978595E+00  0.19063054479E+00  0.11004648244E+01  0.90007698766E+02  0.89999959589E+02 0.  0.
         12    1    1    2    0    0  0.38176978595E+00 -0.19063054479E+00 -0.11004648244E+01  0.11803012343E+01  0.00000000000E+00 0. -1.
         11    1    3    3    0    0  0.19300117962E+02 -0.28722609170E+02 -0.97245402531E+01  0.35945090267E+02  0.51100000000E-03 0. -1.
        -11    1    3    3    0    0  0.26111682563E+01 -0.87881112621E+01  0.19801357649E+01  0.93792343571E+01  0.51100000000E-03 0.  1.
        -12    1    3    3    0    0 -0.22293056005E+02  0.37701350977E+02  0.88448693126E+01  0.44683374142E+02  0.00000000000E+00 0.  1.
</event>
<event>
 7    1  0.2284751E-015  0.9000782E+02  0.7816164E-02  0.1186339E+00
        -11   -1    0    0    0    0  0.00000000000E+00  0.00000000000E+00  0.45593999997E+02  0.45594000000E+02  0.51100000000E-03 0. -1.
         11   -1    0    0    0    0 -0.00000000000E+00 -0.00000000000E+00 -0.45593999997E+02  0.45594000000E+02  0.51100000000E-03 0.  1.
    9900012    2    1    2    0    0 -0.39061432647E+00  0.11134890185E+01  0.19502102303E-01  0.90007823031E+02  0.90000085495E+02 0.  0.
         12    1    1    2    0    0  0.39061432647E+00 -0.11134890185E+01 -0.19502102303E-01  0.11801769691E+01  0.00000000000E+00 0. -1.
         11    1    3    3    0    0  0.11006757637E+02 -0.35204062090E+02 -0.58585785285E+01  0.37346989757E+02  0.51100000000E-03 0. -1.
        -11    1    3    3    0    0 -0.44326348051E+01 -0.44960803752E+01  0.91624451484E+01  0.11127146598E+02  0.51100000000E-03 0.  1.
        -12    1    3    3    0    0 -0.69647371586E+01  0.40813631484E+02 -0.32843645175E+01  0.41533686675E+02  0.00000000000E+00 0.  1.
</event>
<event>
 7    1  0.2284751E-015  0.9000771E+02  0.7816164E-02  0.1186339E+00
        -11   -1    0    0    0    0  0.00000000000E+00  0.00000000000E+00  0.45593999997E+02  0.45594000000E+02  0.51100000000E-03 0.  1.
         11   -1    0    0    0    0 -0.00000000000E+00 -0.00000000000E+00 -0.45593999997E+02  0.45594000000E+02  0.51100000000E-03 0. -1.
    9900012    2    1    2    0    0  0.31135537271E+00  0.47070411479E+00  0.10366250208E+01  0.90007705136E+02  0.89999966044E+02 0.  0.
         12    1    1    2    0    0 -0.31135537271E+00 -0.47070411479E+00 -0.10366250208E+01  0.11802948638E+01  0.00000000000E+00 0. -1.
         11    1    3    3    0    0  0.10086446678E+02 -0.13941976162E+02 -0.10528908698E+01  0.17240176488E+02  0.51100000000E-03 0. -1.
        -11    1    3    3    0    0  0.18873350171E+02  0.49337787641E+01  0.27226351140E+02  0.33493577239E+02  0.51100000000E-03 0.  1.
         12    1    3    3    0    0 -0.28648441477E+02  0.94789015129E+01 -0.25136835249E+02  0.39273951409E+02  0.00000000000E+00 0. -1.
</event>
<event>
 7    1  0.2284751E-015  0.9000765E+02  0.7816164E-02  0.1186339E+00
        -11   -1    0    0    0    0  0.00000000000E+00  0.00000000000E+00  0.45593999997E+02  0.45594000000E+02  0.51100000000E-03 0. -1.
         11   -1    0    0    0    0 -0.00000000000E+00 -0.00000000000E+00 -0.45593999997E+02  0.45594000000E+02  0.51100000000E-03 0.  1.
    9900012    2    1    2    0    0  0.92697660162E+00  0.12433288506E+00 -0.72006419992E+00  0.90007645503E+02  0.89999905624E+02 0.  0.
         12    1    1    2    0    0 -0.92697660162E+00 -0.12433288506E+00  0.72006419992E+00  0.11803544969E+01  0.00000000000E+00 0. -1.
         11    1    3    3    0    0  0.27409575905E+02  0.13442849360E+02  0.31451781568E+02  0.43831605198E+02  0.51100000000E-03 0. -1.
        -11    1    3    3    0    0  0.86646907712E+00 -0.23780427014E+01 -0.69520049623E+01  0.73983936776E+01  0.51100000000E-03 0.  1.
        -12    1    3    3    0    0 -0.27349068381E+02 -0.10940473774E+02 -0.25219840806E+02  0.38777646627E+02  0.00000000000E+00 0.  1.
</event>
<event>
 7    1  0.2284751E-015  0.9000771E+02  0.7816164E-02  0.1186339E+00
        -11   -1    0    0    0    0  0.00000000000E+00  0.00000000000E+00  0.45593999997E+02  0.45594000000E+02  0.51100000000E-03 0.  1.
         11   -1    0    0    0    0 -0.00000000000E+00 -0.00000000000E+00 -0.45593999997E+02  0.45594000000E+02  0.51100000000E-03 0. -1.
    9900012    2    1    2    0    0 -0.83494318356E+00  0.41834599160E-01  0.83319375418E+00  0.90007706780E+02  0.89999967709E+02 0.  0.
         12    1    1    2    0    0  0.83494318356E+00 -0.41834599160E-01 -0.83319375418E+00  0.11802932201E+01  0.00000000000E+00 0. -1.
         11    1    3    3    0    0 -0.32096950118E+02 -0.19928130917E+02 -0.76653078456E+01  0.38549987722E+02  0.51100000000E-03 0. -1.
        -11    1    3    3    0    0 -0.15796245925E+01  0.31867179281E+01 -0.96993690449E+01  0.10330931475E+02  0.51100000000E-03 0.  1.
        -12    1    3    3    0    0  0.32841631527E+02  0.16783247588E+02  0.18197870645E+02  0.41126787584E+02  0.00000000000E+00 0.  1.
</event>
<event>
 7    1  0.2284751E-015  0.9000774E+02  0.7816164E-02  0.1186339E+00
        -11   -1    0    0    0    0  0.00000000000E+00  0.00000000000E+00  0.45593999997E+02  0.45594000000E+02  0.51100000000E-03 0.  1.
         11   -1    0    0    0    0 -0.00000000000E+00 -0.00000000000E+00 -0.45593999997E+02  0.45594000000E+02  0.51100000000E-03 0. -1.
    9900012    2    1    2    0    0 -0.11888486563E+00  0.65850965631E+00  0.97223164282E+00  0.90007744542E+02  0.90000005970E+02 0.  0.
         12    1    1    2    0    0  0.11888486563E+00 -0.65850965631E+00 -0.97223164282E+00  0.11802554580E+01  0.00000000000E+00 0. -1.
         11    1    3    3    0    0  0.35739915002E+01 -0.11213917903E+01  0.46990516830E+01  0.60093278968E+01  0.51100000000E-03 0. -1.
        -11    1    3    3    0    0 -0.32559589393E+02  0.24207003329E+02  0.14584070126E+02  0.43113814182E+02  0.51100000000E-03 0.  1.
         12    1    3    3    0    0  0.28866713027E+02 -0.22427101883E+02 -0.18310890167E+02  0.40884602463E+02  0.00000000000E+00 0. -1.
</event>
<event>
 7    1  0.2284751E-015  0.9000778E+02  0.7816164E-02  0.1186339E+00
        -11   -1    0    0    0    0  0.00000000000E+00  0.00000000000E+00  0.45593999997E+02  0.45594000000E+02  0.51100000000E-03 0.  1.
         11   -1    0    0    0    0 -0.00000000000E+00 -0.00000000000E+00 -0.45593999997E+02  0.45594000000E+02  0.51100000000E-03 0. -1.
    9900012    2    1    2    0    0  0.13955404747E+00 -0.60578601939E+00  0.10032266175E+01  0.90007781512E+02  0.90000043428E+02 0.  0.
         12    1    1    2    0    0 -0.13955404747E+00  0.60578601939E+00 -0.10032266175E+01  0.11802184880E+01  0.00000000000E+00 0. -1.
         11    1    3    3    0    0  0.73872864183E+01  0.42888552487E+01  0.69166728921E+01  0.10991207583E+02  0.51100000000E-03 0. -1.
        -11    1    3    3    0    0  0.34243529141E+02 -0.22230309912E+01 -0.13272883626E+02  0.36793078083E+02  0.51100000000E-03 0.  1.
         12    1    3    3    0    0 -0.41491261512E+02 -0.26716102769E+01  0.73594373510E+01  0.42223495846E+02  0.00000000000E+00 0. -1.
</event>
<event>
 7    1  0.2284751E-015  0.9000779E+02  0.7816164E-02  0.1186339E+00
        -11   -1    0    0    0    0  0.00000000000E+00  0.00000000000E+00  0.45593999997E+02  0.45594000000E+02  0.51100000000E-03 0. -1.
         11   -1    0    0    0    0 -0.00000000000E+00 -0.00000000000E+00 -0.45593999997E+02  0.45594000000E+02  0.51100000000E-03 0.  1.
    9900012    2    1    2    0    0  0.86079117756E+00  0.78684283319E+00 -0.18110992227E+00  0.90007794976E+02  0.90000057069E+02 0.  0.
         12    1    1    2    0    0 -0.86079117756E+00 -0.78684283319E+00  0.18110992227E+00  0.11802050243E+01  0.00000000000E+00 0. -1.
         11    1    3    3    0    0  0.58127869641E+01  0.65353754603E+01 -0.55055675809E+01  0.10334935866E+02  0.51100000000E-03 0. -1.
        -11    1    3    3    0    0  0.80145459800E+01 -0.10801127715E+02 -0.34744067782E+02  0.37256510216E+02  0.51100000000E-03 0.  1.
         12    1    3    3    0    0 -0.12966541767E+02  0.50525950874E+01  0.40068525441E+02  0.42416348894E+02  0.00000000000E+00 0. -1.
</event>
<event>
 7    1  0.2284751E-015  0.9000764E+02  0.7816164E-02  0.1186339E+00
        -11   -1    0    0    0    0  0.00000000000E+00  0.00000000000E+00  0.45593999997E+02  0.45594000000E+02  0.51100000000E-03 0.  1.
         11   -1    0    0    0    0 -0.00000000000E+00 -0.00000000000E+00 -0.45593999997E+02  0.45594000000E+02  0.51100000000E-03 0. -1.
    9900012    2    1    2    0    0  0.25059760661E+00 -0.10266395376E+01  0.52579883545E+00  0.90007638904E+02  0.89999898938E+02 0.  0.
         12    1    1    2    0    0 -0.25059760661E+00  0.10266395376E+01 -0.52579883545E+00  0.11803610956E+01  0.00000000000E+00 0. -1.
         11    1    3    3    0    0 -0.36965909670E+02 -0.14824646352E+02  0.13667805147E+01  0.39851181995E+02  0.51100000000E-03 0. -1.
        -11    1    3    3    0    0  0.30458479679E+01 -0.60076432193E+01  0.71905596013E+01  0.98525689307E+01  0.51100000000E-03 0.  1.
        -12    1    3    3    0    0  0.34170659309E+02  0.19805650034E+02 -0.80315412805E+01  0.40303887978E+02  0.00000000000E+00 0.  1.
</event>
<event>
 7    1  0.2284751E-015  0.9000772E+02  0.7816164E-02  0.1186339E+00
        -11   -1    0    0    0    0  0.00000000000E+00  0.00000000000E+00  0.45593999997E+02  0.45594000000E+02  0.51100000000E-03 0.  1.
         11   -1    0    0    0    0 -0.00000000000E+00 -0.00000000000E+00 -0.45593999997E+02  0.45594000000E+02  0.51100000000E-03 0. -1.
    9900012    2    1    2    0    0 -0.27304972468E+00 -0.71815412082E+00 -0.89597466152E+00  0.90007715252E+02  0.89999976293E+02 0.  0.
         12    1    1    2    0    0  0.27304972468E+00  0.71815412082E+00  0.89597466152E+00  0.11802847485E+01  0.00000000000E+00 0. -1.
         11    1    3    3    0    0  0.34455028988E+01  0.15301124982E+02 -0.58231291335E+00  0.15695063063E+02  0.51100000000E-03 0. -1.
        -11    1    3    3    0    0  0.53232052483E+00  0.27038890396E+02  0.11612081108E+02  0.29431707170E+02  0.51100000000E-03 0.  1.
         12    1    3    3    0    0 -0.42508731483E+01 -0.43058169499E+02 -0.11925742856E+02  0.44880945019E+02  0.00000000000E+00 0. -1.
</event>
<event>
 7    1  0.2284751E-015  0.9000775E+02  0.7816164E-02  0.1186339E+00
        -11   -1    0    0    0    0  0.00000000000E+00  0.00000000000E+00  0.45593999997E+02  0.45594000000E+02  0.51100000000E-03 0. -1.
         11   -1    0    0    0    0 -0.00000000000E+00 -0.00000000000E+00 -0.45593999997E+02  0.45594000000E+02  0.51100000000E-03 0.  1.
    9900012    2    1    2    0    0  0.11434916442E+01  0.96837389852E-01 -0.27577332670E+00  0.90007745134E+02  0.90000006570E+02 0.  0.
         12    1    1    2    0    0 -0.11434916442E+01 -0.96837389852E-01  0.27577332670E+00  0.11802548658E+01  0.00000000000E+00 0. -1.
         11    1    3    3    0    0 -0.28051948280E+01 -0.62775802524E+01  0.82298608982E+01  0.10724166285E+02  0.51100000000E-03 0. -1.
        -11    1    3    3    0    0  0.31878208933E+02 -0.22071094461E+02 -0.14575707067E+01  0.38800488761E+02  0.51100000000E-03 0.  1.
         12    1    3    3    0    0 -0.27929522461E+02  0.28445512103E+02 -0.70480635183E+01  0.40483090088E+02  0.00000000000E+00 0. -1.
</event>
<event>
 7    1  0.2284751E-015  0.9000777E+02  0.7816164E-02  0.1186339E+00
        -11   -1    0    0    0    0  0.00000000000E+00  0.00000000000E+00  0.45593999997E+02  0.45594000000E+02  0.51100000000E-03 0.  1.
         11   -1    0    0    0    0 -0.00000000000E+00 -0.00000000000E+00 -0.45593999997E+02  0.45594000000E+02  0.51100000000E-03 0. -1.
    9900012    2    1    2    0    0  0.48156646191E+00  0.10719359545E+01 -0.10953214622E+00  0.90007766871E+02  0.90000028594E+02 0.  0.
         12    1    1    2    0    0 -0.48156646191E+00 -0.10719359545E+01  0.10953214622E+00  0.11802331291E+01  0.00000000000E+00 0. -1.
         11    1    3    3    0    0  0.24554074070E+02  0.29280068629E+02  0.22048287849E+01  0.38276445010E+02  0.51100000000E-03 0. -1.
        -11    1    3    3    0    0  0.59716701475E+01  0.18136257358E+01 -0.65504477015E+01  0.90475658611E+01  0.51100000000E-03 0.  1.
        -12    1    3    3    0    0 -0.30044177756E+02 -0.30021758411E+02  0.42360867704E+01  0.42683756000E+02  0.00000000000E+00 0.  1.
</event>
<event>
 7    1  0.2284751E-015  0.9000776E+02  0.7816164E-02  0.1186339E+00
        -11   -1    0    0    0    0  0.00000000000E+00  0.00000000000E+00  0.45593999997E+02  0.45594000000E+02  0.51100000000E-03 0.  1.
         11   -1    0    0    0    0 -0.00000000000E+00 -0.00000000000E+00 -0.45593999997E+02  0.45594000000E+02  0.51100000000E-03 0. -1.
    9900012    2    1    2    0    0 -0.95234006108E+00  0.66040355337E+00  0.22334959474E+00  0.90007758717E+02  0.90000020332E+02 0.  0.
         12    1    1    2    0    0  0.95234006108E+00 -0.66040355337E+00 -0.22334959474E+00  0.11802412833E+01  0.00000000000E+00 0. -1.
         11    1    3    3    0    0  0.22585130430E+01  0.26343081295E+01  0.95195697206E+01  0.10132258801E+02  0.51100000000E-03 0. -1.
        -11    1    3    3    0    0 -0.60733089210E+01 -0.74910012233E+01  0.34406788793E+02  0.35732720242E+02  0.51100000000E-03 0.  1.
         12    1    3    3    0    0  0.28624558170E+01  0.55170966471E+01 -0.43703008919E+02  0.44142779673E+02  0.00000000000E+00 0. -1.
</event>
<event>
 7    1  0.2284751E-015  0.9000736E+02  0.7816164E-02  0.1186340E+00
        -11   -1    0    0    0    0  0.00000000000E+00  0.00000000000E+00  0.45593999997E+02  0.45594000000E+02  0.51100000000E-03 0.  1.
         11   -1    0    0    0    0 -0.00000000000E+00 -0.00000000000E+00 -0.45593999997E+02  0.45594000000E+02  0.51100000000E-03 0. -1.
    9900012    2    1    2    0    0  0.19038010145E+00 -0.85156116602E+00  0.79530680680E+00  0.90007358683E+02  0.89999615017E+02 0.  0.
         12    1    1    2    0    0 -0.19038010145E+00  0.85156116602E+00 -0.79530680680E+00  0.11806413170E+01  0.00000000000E+00 0. -1.
         11    1    3    3    0    0 -0.58442853510E+01 -0.52794139518E+00  0.91776145126E+01  0.10893254876E+02  0.51100000000E-03 0. -1.
        -11    1    3    3    0    0 -0.34828131886E+02  0.10396380946E+02 -0.21377551871E+01  0.36409524921E+02  0.51100000000E-03 0.  1.
         12    1    3    3    0    0  0.40862797339E+02 -0.10720000717E+02 -0.62445525187E+01  0.42704578887E+02  0.00000000000E+00 0. -1.
</event>
<event>
 7    1  0.2284751E-015  0.9000764E+02  0.7816164E-02  0.1186339E+00
        -11   -1    0    0    0    0  0.00000000000E+00  0.00000000000E+00  0.45593999997E+02  0.45594000000E+02  0.51100000000E-03 0. -1.
         11   -1    0    0    0    0 -0.00000000000E+00 -0.00000000000E+00 -0.45593999997E+02  0.45594000000E+02  0.51100000000E-03 0.  1.
    9900012    2    1    2    0    0  0.58739557368E+00 -0.30082155477E-01 -0.10233787873E+01  0.90007643004E+02  0.89999903091E+02 0.  0.
         12    1    1    2    0    0 -0.58739557368E+00  0.30082155477E-01  0.10233787873E+01  0.11803569961E+01  0.00000000000E+00 0. -1.
         11    1    3    3    0    0 -0.17169867169E+01  0.12658166955E+02  0.16266840683E+01  0.12877240985E+02  0.51100000000E-03 0. -1.
        -11    1    3    3    0    0  0.35753935261E+02 -0.14981941609E+02  0.11943216916E+02  0.40564059111E+02  0.51100000000E-03 0.  1.
         12    1    3    3    0    0 -0.33449552970E+02  0.22936924977E+01 -0.14593279772E+02  0.36566342908E+02  0.00000000000E+00 0. -1.
</event>
<event>
 7    1  0.2284751E-015  0.9000799E+02  0.7816164E-02  0.1186339E+00
        -11   -1    0    0    0    0  0.00000000000E+00  0.00000000000E+00  0.45593999997E+02  0.45594000000E+02  0.51100000000E-03 0.  1.
         11   -1    0    0    0    0 -0.00000000000E+00 -0.00000000000E+00 -0.45593999997E+02  0.45594000000E+02  0.51100000000E-03 0. -1.
    9900012    2    1    2    0    0  0.15497920874E+00 -0.10763515849E+01  0.45812597682E+00  0.90007986992E+02  0.90000251620E+02 0.  0.
         12    1    1    2    0    0 -0.15497920874E+00  0.10763515849E+01 -0.45812597682E+00  0.11800130084E+01  0.00000000000E+00 0. -1.
         11    1    3    3    0    0 -0.71613655907E+01  0.43206527845E+01 -0.52688608287E+01  0.98850438694E+01  0.51100000000E-03 0. -1.
        -11    1    3    3    0    0 -0.23024228407E+02 -0.28555905170E+02 -0.11221859957E+02  0.38359939455E+02  0.51100000000E-03 0.  1.
         12    1    3    3    0    0  0.30340573206E+02  0.23158900801E+02  0.16948846763E+02  0.41763003668E+02  0.00000000000E+00 0. -1.
</event>
<event>
 7    1  0.2284751E-015  0.9000801E+02  0.7816164E-02  0.1186339E+00
        -11   -1    0    0    0    0  0.00000000000E+00  0.00000000000E+00  0.45593999997E+02  0.45594000000E+02  0.51100000000E-03 0. -1.
         11   -1    0    0    0    0 -0.00000000000E+00 -0.00000000000E+00 -0.45593999997E+02  0.45594000000E+02  0.51100000000E-03 0.  1.
    9900012    2    1    2    0    0 -0.27658035413E+00 -0.25666642210E+00 -0.11180374569E+01  0.90008007585E+02  0.90000272485E+02 0.  0.
         12    1    1    2    0    0  0.27658035413E+00  0.25666642210E+00  0.11180374569E+01  0.11799924150E+01  0.00000000000E+00 0. -1.
         11    1    3    3    0    0  0.29034097383E+02  0.24473807802E+02  0.11873602905E+02  0.39786034301E+02  0.51100000000E-03 0. -1.
        -11    1    3    3    0    0 -0.50848944745E+01  0.69540630473E+01 -0.18675810401E+01  0.88149307362E+01  0.51100000000E-03 0.  1.
        -12    1    3    3    0    0 -0.24225783262E+02 -0.31684537272E+02 -0.11124059322E+02  0.41407042548E+02  0.00000000000E+00 0.  1.
</event>
<event>
 7    1  0.2284751E-015  0.9000773E+02  0.7816164E-02  0.1186339E+00
        -11   -1    0    0    0    0  0.00000000000E+00  0.00000000000E+00  0.45593999997E+02  0.45594000000E+02  0.51100000000E-03 0.  1.
         11   -1    0    0    0    0 -0.00000000000E+00 -0.00000000000E+00 -0.45593999997E+02  0.45594000000E+02  0.51100000000E-03 0. -1.
    9900012    2    1    2    0    0 -0.61877313100E+00 -0.21336084405E+00  0.98216017199E+00  0.90007728150E+02  0.89999989361E+02 0.  0.
         12    1    1    2    0    0  0.61877313100E+00  0.21336084405E+00 -0.98216017199E+00  0.11802718504E+01  0.00000000000E+00 0. -1.
         11    1    3    3    0    0 -0.63626679648E+01 -0.58930884273E+01  0.41496167910E+01  0.96141226649E+01  0.51100000000E-03 0. -1.
        -11    1    3    3    0    0  0.37033078734E+01  0.42887361935E+02 -0.78804549865E+00  0.43054167266E+02  0.51100000000E-03 0.  1.
         12    1    3    3    0    0  0.20405869604E+01 -0.37207634352E+02 -0.23794111204E+01  0.37339438219E+02  0.00000000000E+00 0. -1.
</event>
<event>
 7    1  0.2284751E-015  0.9000779E+02  0.7816164E-02  0.1186339E+00
        -11   -1    0    0    0    0  0.00000000000E+00  0.00000000000E+00  0.45593999997E+02  0.45594000000E+02  0.51100000000E-03 0.  1.
         11   -1    0    0    0    0 -0.00000000000E+00 -0.00000000000E+00 -0.45593999997E+02  0.45594000000E+02  0.51100000000E-03 0. -1.
    9900012    2    1    2    0    0 -0.51090525170E+00  0.77028044270E+00 -0.73385734918E+00  0.90007786991E+02  0.90000048980E+02 0.  0.
         12    1    1    2    0    0  0.51090525170E+00 -0.77028044270E+00  0.73385734918E+00  0.11802130086E+01  0.00000000000E+00 0. -1.
         11    1    3    3    0    0  0.70027481422E+01 -0.41638018564E+01 -0.21537646076E+01  0.84270059742E+01  0.51100000000E-03 0. -1.
        -11    1    3    3    0    0  0.27467182908E+02  0.28187726571E+02 -0.22122208790E+01  0.39419385937E+02  0.51100000000E-03 0.  1.
         12    1    3    3    0    0 -0.34980836302E+02 -0.23253644272E+02  0.36321281374E+01  0.42161395080E+02  0.00000000000E+00 0. -1.
</event>
<event>
 7    1  0.2284751E-015  0.9000767E+02  0.7816164E-02  0.1186339E+00
        -11   -1    0    0    0    0  0.00000000000E+00  0.00000000000E+00  0.45593999997E+02  0.45594000000E+02  0.51100000000E-03 0.  1.
         11   -1    0    0    0    0 -0.00000000000E+00 -0.00000000000E+00 -0.45593999997E+02  0.45594000000E+02  0.51100000000E-03 0. -1.
    9900012    2    1    2    0    0  0.99190499568E+00 -0.20291368839E+00 -0.60673760952E+00  0.90007669533E+02  0.89999929970E+02 0.  0.
         12    1    1    2    0    0 -0.99190499568E+00  0.20291368839E+00  0.60673760952E+00  0.11803304674E+01  0.00000000000E+00 0. -1.
         11    1    3    3    0    0 -0.35249439134E+02 -0.79560429335E+00  0.11130905236E+02  0.36973679788E+02  0.51100000000E-03 0. -1.
        -11    1    3    3    0    0 -0.65402498625E+01  0.46754418702E+01  0.12550866247E+01  0.81369446134E+01  0.51100000000E-03 0.  1.
        -12    1    3    3    0    0  0.42781593992E+02 -0.40827512652E+01 -0.12992729470E+02  0.44897045131E+02  0.00000000000E+00 0.  1.
</event>
<event>
 7    1  0.2284751E-015  0.9000773E+02  0.7816164E-02  0.1186339E+00
        -11   -1    0    0    0    0  0.00000000000E+00  0.00000000000E+00  0.45593999997E+02  0.45594000000E+02  0.51100000000E-03 0.  1.
         11   -1    0    0    0    0 -0.00000000000E+00 -0.00000000000E+00 -0.45593999997E+02  0.45594000000E+02  0.51100000000E-03 0. -1.
    9900012    2    1    2    0    0 -0.11568601315E+01 -0.71729360389E-01  0.22264926773E+00  0.90007727505E+02  0.89999988709E+02 0.  0.
         12    1    1    2    0    0  0.11568601315E+01  0.71729360389E-01 -0.22264926773E+00  0.11802724945E+01  0.00000000000E+00 0. -1.
         11    1    3    3    0    0 -0.95360158106E+01  0.19760620866E+01  0.22978096819E-01  0.97386316885E+01  0.51100000000E-03 0. -1.
        -11    1    3    3    0    0  0.14697554924E+02 -0.10875400611E+02  0.37339296152E+02  0.41575419379E+02  0.51100000000E-03 0.  1.
         12    1    3    3    0    0 -0.63183992449E+01  0.88276091638E+01 -0.37139624981E+02  0.38693676438E+02  0.00000000000E+00 0. -1.
</event>
<event>
 7    1  0.2284751E-015  0.9000772E+02  0.7816164E-02  0.1186339E+00
        -11   -1    0    0    0    0  0.00000000000E+00  0.00000000000E+00  0.45593999997E+02  0.45594000000E+02  0.51100000000E-03 0.  1.
         11   -1    0    0    0    0 -0.00000000000E+00 -0.00000000000E+00 -0.45593999997E+02  0.45594000000E+02  0.51100000000E-03 0. -1.
    9900012    2    1    2    0    0 -0.11721441720E+00 -0.73186285647E+00  0.91852780096E+00  0.90007722159E+02  0.89999983292E+02 0.  0.
         12    1    1    2    0    0  0.11721441720E+00  0.73186285647E+00 -0.91852780096E+00  0.11802778408E+01  0.00000000000E+00 0. -1.
         11    1    3    3    0    0 -0.29235377903E+00  0.83630583280E+01  0.69805782138E+01  0.10897462447E+02  0.51100000000E-03 0. -1.
        -11    1    3    3    0    0 -0.31657256606E+02 -0.61670073673E+01  0.19927147650E+02  0.37911806728E+02  0.51100000000E-03 0.  1.
         12    1    3    3    0    0  0.31832395967E+02 -0.29279138171E+01 -0.25989198063E+02  0.41198452984E+02  0.00000000000E+00 0. -1.
</event>
<event>
 7    1  0.2284751E-015  0.9000775E+02  0.7816164E-02  0.1186339E+00
        -11   -1    0    0    0    0  0.00000000000E+00  0.00000000000E+00  0.45593999997E+02  0.45594000000E+02  0.51100000000E-03 0.  1.
         11   -1    0    0    0    0 -0.00000000000E+00 -0.00000000000E+00 -0.45593999997E+02  0.45594000000E+02  0.51100000000E-03 0. -1.
    9900012    2    1    2    0    0 -0.29234225235E+00  0.94884870256E-02  0.11434322990E+01  0.90007749414E+02  0.90000010906E+02 0.  0.
         12    1    1    2    0    0  0.29234225235E+00 -0.94884870256E-02 -0.11434322990E+01  0.11802505862E+01  0.00000000000E+00 0. -1.
         11    1    3    3    0    0 -0.65155146485E+01 -0.65751558482E+01  0.10962707237E+01  0.93212882866E+01  0.51100000000E-03 0. -1.
        -11    1    3    3    0    0 -0.21512911678E+01 -0.34970582386E+02 -0.11281433322E+02  0.36808157033E+02  0.51100000000E-03 0.  1.
         12    1    3    3    0    0  0.83744635639E+01  0.41555226721E+02  0.11328594897E+02  0.43878304094E+02  0.00000000000E+00 0. -1.
</event>
<event>
 7    1  0.2284751E-015  0.9000783E+02  0.7816164E-02  0.1186339E+00
        -11   -1    0    0    0    0  0.00000000000E+00  0.00000000000E+00  0.45593999997E+02  0.45594000000E+02  0.51100000000E-03 0.  1.
         11   -1    0    0    0    0 -0.00000000000E+00 -0.00000000000E+00 -0.45593999997E+02  0.45594000000E+02  0.51100000000E-03 0. -1.
    9900012    2    1    2    0    0 -0.59477472183E+00  0.86690978983E+00 -0.53619232450E+00  0.90007834011E+02  0.90000096620E+02 0.  0.
         12    1    1    2    0    0  0.59477472183E+00 -0.86690978983E+00  0.53619232450E+00  0.11801659893E+01  0.00000000000E+00 0. -1.
         11    1    3    3    0    0 -0.68891433980E+01 -0.29325644184E+01  0.49083177474E+01  0.89527545592E+01  0.51100000000E-03 0. -1.
        -11    1    3    3    0    0  0.19230721978E+02  0.38929308018E+02 -0.37234533727E+01  0.43579534140E+02  0.51100000000E-03 0.  1.
         12    1    3    3    0    0 -0.12936353302E+02 -0.35129833810E+02 -0.17210566993E+01  0.37475545312E+02  0.00000000000E+00 0. -1.
</event>
<event>
 7    1  0.2284751E-015  0.9000778E+02  0.7816164E-02  0.1186339E+00
        -11   -1    0    0    0    0  0.00000000000E+00  0.00000000000E+00  0.45593999997E+02  0.45594000000E+02  0.51100000000E-03 0. -1.
         11   -1    0    0    0    0 -0.00000000000E+00 -0.00000000000E+00 -0.45593999997E+02  0.45594000000E+02  0.51100000000E-03 0.  1.
    9900012    2    1    2    0    0 -0.11537130506E+01  0.19344930671E+00 -0.15633344313E+00  0.90007781129E+02  0.90000043040E+02 0.  0.
         12    1    1    2    0    0  0.11537130506E+01 -0.19344930671E+00  0.15633344313E+00  0.11802188707E+01  0.00000000000E+00 0. -1.
         11    1    3    3    0    0 -0.24259276790E+02 -0.20489109797E+02  0.21938436759E+02  0.38595480802E+02  0.51100000000E-03 0. -1.
        -11    1    3    3    0    0  0.45905269280E+01 -0.76258604920E+01  0.28916124505E+01  0.93588518818E+01  0.51100000000E-03 0.  1.
        -12    1    3    3    0    0  0.18515036811E+02  0.28308419596E+02 -0.24986382652E+02  0.42053448446E+02  0.00000000000E+00 0.  1.
</event>
<event>
 7    1  0.2284751E-015  0.9000778E+02  0.7816164E-02  0.1186339E+00
        -11   -1    0    0    0    0  0.00000000000E+00  0.00000000000E+00  0.45593999997E+02  0.45594000000E+02  0.51100000000E-03 0. -1.
         11   -1    0    0    0    0 -0.00000000000E+00 -0.00000000000E+00 -0.45593999997E+02  0.45594000000E+02  0.51100000000E-03 0.  1.
    9900012    2    1    2    0    0 -0.25833014336E+00  0.11502333207E+01 -0.56068964571E-01  0.90007781849E+02  0.90000043769E+02 0.  0.
         12    1    1    2    0    0  0.25833014336E+00 -0.11502333207E+01  0.56068964571E-01  0.11802181510E+01  0.00000000000E+00 0. -1.
         11    1    3    3    0    0  0.39938686203E+01 -0.16902196679E+02 -0.65017137055E+00  0.17379814792E+02  0.51100000000E-03 0. -1.
        -11    1    3    3    0    0  0.17820440463E+02 -0.12750885978E+02 -0.19852899258E+02  0.29568408830E+02  0.51100000000E-03 0.  1.
         12    1    3    3    0    0 -0.22072639227E+02  0.30803315978E+02  0.20447001664E+02  0.43059558227E+02  0.00000000000E+00 0. -1.
</event>
<event>
 7    1  0.2284751E-015  0.9000772E+02  0.7816164E-02  0.1186339E+00
        -11   -1    0    0    0    0  0.00000000000E+00  0.00000000000E+00  0.45593999997E+02  0.45594000000E+02  0.51100000000E-03 0. -1.
         11   -1    0    0    0    0 -0.00000000000E+00 -0.00000000000E+00 -0.45593999997E+02  0.45594000000E+02  0.51100000000E-03 0.  1.
    9900012    2    1    2    0    0  0.26280563040E-01  0.10178627788E+01 -0.59693205179E+00  0.90007719025E+02  0.89999980117E+02 0.  0.
         12    1    1    2    0    0 -0.26280563040E-01 -0.10178627788E+01  0.59693205179E+00  0.11802809745E+01  0.00000000000E+00 0. -1.
         11    1    3    3    0    0  0.13359409478E+01 -0.86704691832E+01 -0.34774987399E+01  0.94368835862E+01  0.51100000000E-03 0. -1.
        -11    1    3    3    0    0 -0.32201376478E+02 -0.17534102435E+02 -0.89265085477E+01  0.37736665863E+02  0.51100000000E-03 0.  1.
         12    1    3    3    0    0  0.30891716094E+02  0.27222434397E+02  0.11807075236E+02  0.42834169577E+02  0.00000000000E+00 0. -1.
</event>
<event>
 7    1  0.2284751E-015  0.9000770E+02  0.7816164E-02  0.1186339E+00
        -11   -1    0    0    0    0  0.00000000000E+00  0.00000000000E+00  0.45593999997E+02  0.45594000000E+02  0.51100000000E-03 0. -1.
         11   -1    0    0    0    0 -0.00000000000E+00 -0.00000000000E+00 -0.45593999997E+02  0.45594000000E+02  0.51100000000E-03 0.  1.
    9900012    2    1    2    0    0  0.65328657065E+00  0.76922786102E+00 -0.61205967689E+00  0.90007698389E+02  0.89999959207E+02 0.  0.
         12    1    1    2    0    0 -0.65328657065E+00 -0.76922786102E+00  0.61205967689E+00  0.11803016113E+01  0.00000000000E+00 0. -1.
         11    1    3    3    0    0  0.10605095593E+02 -0.40072555432E+02 -0.49785188648E+00  0.41455103524E+02  0.51100000000E-03 0. -1.
        -11    1    3    3    0    0 -0.65948731251E+01  0.13211461405E+01 -0.52851616318E+01  0.85539880989E+01  0.51100000000E-03 0.  1.
        -12    1    3    3    0    0 -0.33569358971E+01  0.39520637153E+02  0.51709538414E+01  0.39998606766E+02  0.00000000000E+00 0.  1.
</event>
<event>
 7    1  0.2284751E-015  0.9000738E+02  0.7816164E-02  0.1186340E+00
        -11   -1    0    0    0    0  0.00000000000E+00  0.00000000000E+00  0.45593999997E+02  0.45594000000E+02  0.51100000000E-03 0.  1.
         11   -1    0    0    0    0 -0.00000000000E+00 -0.00000000000E+00 -0.45593999997E+02  0.45594000000E+02  0.51100000000E-03 0. -1.
    9900012    2    1    2    0    0 -0.25491563687E+00  0.77258319807E+00  0.85556493871E+00  0.90007382304E+02  0.89999638950E+02 0.  0.
         12    1    1    2    0    0  0.25491563687E+00 -0.77258319807E+00 -0.85556493871E+00  0.11806176960E+01  0.00000000000E+00 0. -1.
         11    1    3    3    0    0  0.43423539760E+01 -0.35852477310E+02  0.15275212779E+02  0.39212093709E+02  0.51100000000E-03 0. -1.
        -11    1    3    3    0    0  0.98681433106E+01  0.30066699449E+01  0.22830616505E+01  0.10565637099E+02  0.51100000000E-03 0.  1.
        -12    1    3    3    0    0 -0.14465412923E+02  0.33618390563E+02 -0.16702709491E+02  0.40229651496E+02  0.00000000000E+00 0.  1.
</event>
<event>
 7    1  0.2284751E-015  0.9000774E+02  0.7816164E-02  0.1186339E+00
        -11   -1    0    0    0    0  0.00000000000E+00  0.00000000000E+00  0.45593999997E+02  0.45594000000E+02  0.51100000000E-03 0. -1.
         11   -1    0    0    0    0 -0.00000000000E+00 -0.00000000000E+00 -0.45593999997E+02  0.45594000000E+02  0.51100000000E-03 0.  1.
    9900012    2    1    2    0    0 -0.75381332597E+00 -0.83857211080E+00 -0.34866592793E+00  0.90007743399E+02  0.90000004812E+02 0.  0.
         12    1    1    2    0    0  0.75381332597E+00  0.83857211080E+00  0.34866592793E+00  0.11802566012E+01  0.00000000000E+00 0. -1.
         11    1    3    3    0    0  0.94726147869E+01 -0.41126388118E+00 -0.44510593110E+00  0.94919802166E+01  0.51100000000E-03 0. -1.
        -11    1    3    3    0    0  0.28473176470E+02 -0.16158446808E+01 -0.21925657575E+02  0.35973145438E+02  0.51100000000E-03 0.  1.
         12    1    3    3    0    0 -0.38699604583E+02  0.11885364512E+01  0.22022097578E+02  0.44542617744E+02  0.00000000000E+00 0. -1.
</event>
<event>
 7    1  0.2284751E-015  0.9000773E+02  0.7816164E-02  0.1186339E+00
        -11   -1    0    0    0    0  0.00000000000E+00  0.00000000000E+00  0.45593999997E+02  0.45594000000E+02  0.51100000000E-03 0. -1.
         11   -1    0    0    0    0 -0.00000000000E+00 -0.00000000000E+00 -0.45593999997E+02  0.45594000000E+02  0.51100000000E-03 0.  1.
    9900012    2    1    2    0    0  0.70926530218E+00 -0.36429677487E+00 -0.87020778441E+00  0.90007732659E+02  0.89999993930E+02 0.  0.
         12    1    1    2    0    0 -0.70926530218E+00  0.36429677487E+00  0.87020778441E+00  0.11802673414E+01  0.00000000000E+00 0. -1.
         11    1    3    3    0    0 -0.72708181009E+01  0.23693732686E+01  0.18684618125E+01  0.78720947243E+01  0.51100000000E-03 0. -1.
        -11    1    3    3    0    0 -0.44799613936E+01  0.38557880597E+02 -0.37099005328E+01  0.38994147926E+02  0.51100000000E-03 0.  1.
         12    1    3    3    0    0  0.12460044797E+02 -0.41291550641E+02  0.97123093597E+00  0.43141490009E+02  0.00000000000E+00 0. -1.
</event>
<event>
 7    1  0.2284751E-015  0.9000773E+02  0.7816164E-02  0.1186339E+00
        -11   -1    0    0    0    0  0.00000000000E+00  0.00000000000E+00  0.45593999997E+02  0.45594000000E+02  0.51100000000E-03 0. -1.
         11   -1    0    0    0    0 -0.00000000000E+00 -0.00000000000E+00 -0.45593999997E+02  0.45594000000E+02  0.51100000000E-03 0.  1.
    9900012    2    1    2    0    0  0.10003556123E+01  0.54907303039E+00 -0.30141617511E+00  0.90007727042E+02  0.89999988239E+02 0.  0.
         12    1    1    2    0    0 -0.10003556123E+01 -0.54907303039E+00  0.30141617511E+00  0.11802729576E+01  0.00000000000E+00 0. -1.
         11    1    3    3    0    0 -0.22951247081E+02  0.71661302655E+01  0.24267184420E+02  0.34161519367E+02  0.51100000000E-03 0. -1.
        -11    1    3    3    0    0 -0.11143316311E+02 -0.61788550533E+01  0.44123831159E+00  0.12749370168E+02  0.51100000000E-03 0.  1.
        -12    1    3    3    0    0  0.35094919003E+02 -0.43820218178E+00 -0.25009838907E+02  0.43096837508E+02  0.00000000000E+00 0.  1.
</event>
<event>
 7    1  0.2284751E-015  0.9000775E+02  0.7816164E-02  0.1186339E+00
        -11   -1    0    0    0    0  0.00000000000E+00  0.00000000000E+00  0.45593999997E+02  0.45594000000E+02  0.51100000000E-03 0. -1.
         11   -1    0    0    0    0 -0.00000000000E+00 -0.00000000000E+00 -0.45593999997E+02  0.45594000000E+02  0.51100000000E-03 0.  1.
    9900012    2    1    2    0    0  0.59102006666E+00  0.99410874229E+00  0.23543339635E+00  0.90007751808E+02  0.90000013332E+02 0.  0.
         12    1    1    2    0    0 -0.59102006666E+00 -0.99410874229E+00 -0.23543339635E+00  0.11802481920E+01  0.00000000000E+00 0. -1.
         11    1    3    3    0    0 -0.34830290257E+02 -0.31915469245E+01  0.13836502576E+02  0.37613613160E+02  0.51100000000E-03 0. -1.
        -11    1    3    3    0    0 -0.46934850892E+01  0.74060407257E+01  0.23926717239E+01  0.90886258452E+01  0.51100000000E-03 0.  1.
        -12    1    3    3    0    0  0.40114795413E+02 -0.32203850590E+01 -0.15993740904E+02  0.43305512802E+02  0.00000000000E+00 0.  1.
</event>
<event>
 7    1  0.2284751E-015  0.9000775E+02  0.7816164E-02  0.1186339E+00
        -11   -1    0    0    0    0  0.00000000000E+00  0.00000000000E+00  0.45593999997E+02  0.45594000000E+02  0.51100000000E-03 0. -1.
         11   -1    0    0    0    0 -0.00000000000E+00 -0.00000000000E+00 -0.45593999997E+02  0.45594000000E+02  0.51100000000E-03 0.  1.
    9900012    2    1    2    0    0  0.57976241026E+00 -0.12184562812E+00 -0.10207974093E+01  0.90007746569E+02  0.90000008024E+02 0.  0.
         12    1    1    2    0    0 -0.57976241026E+00  0.12184562812E+00  0.10207974093E+01  0.11802534305E+01  0.00000000000E+00 0. -1.
         11    1    3    3    0    0  0.66375078296E+01  0.10732432433E+02 -0.45082908520E+00  0.12627147867E+02  0.51100000000E-03 0. -1.
        -11    1    3    3    0    0  0.25701127309E+02 -0.30391255121E+02  0.30494235804E+01  0.39918358148E+02  0.51100000000E-03 0.  1.
         12    1    3    3    0    0 -0.31758872729E+02  0.19536977059E+02 -0.36193919045E+01  0.37462240555E+02  0.00000000000E+00 0. -1.
</event>
<event>
 7    1  0.2284751E-015  0.9000777E+02  0.7816164E-02  0.1186339E+00
        -11   -1    0    0    0    0  0.00000000000E+00  0.00000000000E+00  0.45593999997E+02  0.45594000000E+02  0.51100000000E-03 0.  1.
         11   -1    0    0    0    0 -0.00000000000E+00 -0.00000000000E+00 -0.45593999997E+02  0.45594000000E+02  0.51100000000E-03 0. -1.
    9900012    2    1    2    0    0  0.33445749864E-01  0.99758722405E-01  0.11755342140E+01  0.90007766502E+02  0.90000028220E+02 0.  0.
         12    1    1    2    0    0 -0.33445749864E-01 -0.99758722405E-01 -0.11755342140E+01  0.11802334977E+01  0.00000000000E+00 0. -1.
         11    1    3    3    0    0 -0.24491327626E+02 -0.70230803336E+00 -0.25518093941E+02  0.35376425541E+02  0.51100000000E-03 0. -1.
        -11    1    3    3    0    0 -0.34172197108E+01 -0.80095014756E+01 -0.61182619197E+01  0.10642491890E+02  0.51100000000E-03 0.  1.
        -12    1    3    3    0    0  0.27941993086E+02  0.88115682314E+01  0.32811890075E+02  0.43988849071E+02  0.00000000000E+00 0.  1.
</event>
<event>
 7    1  0.2284751E-015  0.9000776E+02  0.7816164E-02  0.1186339E+00
        -11   -1    0    0    0    0  0.00000000000E+00  0.00000000000E+00  0.45593999997E+02  0.45594000000E+02  0.51100000000E-03 0.  1.
         11   -1    0    0    0    0 -0.00000000000E+00 -0.00000000000E+00 -0.45593999997E+02  0.45594000000E+02  0.51100000000E-03 0. -1.
    9900012    2    1    2    0    0  0.77475604319E+00  0.22629232877E+00  0.86110423398E+00  0.90007764580E+02  0.90000026273E+02 0.  0.
         12    1    1    2    0    0 -0.77475604319E+00 -0.22629232877E+00 -0.86110423398E+00  0.11802354199E+01  0.00000000000E+00 0. -1.
         11    1    3    3    0    0 -0.32025196083E+02  0.10291627002E+02  0.13548026977E+02  0.36264029089E+02  0.51100000000E-03 0. -1.
        -11    1    3    3    0    0 -0.53096665981E+01 -0.81615386542E+00  0.78217331127E+01  0.94888448013E+01  0.51100000000E-03 0.  1.
        -12    1    3    3    0    0  0.38109618725E+02 -0.92491808076E+01 -0.20508655856E+02  0.44254890690E+02  0.00000000000E+00 0.  1.
</event>
<event>
 7    1  0.2284751E-015  0.9000777E+02  0.7816164E-02  0.1186339E+00
        -11   -1    0    0    0    0  0.00000000000E+00  0.00000000000E+00  0.45593999997E+02  0.45594000000E+02  0.51100000000E-03 0.  1.
         11   -1    0    0    0    0 -0.00000000000E+00 -0.00000000000E+00 -0.45593999997E+02  0.45594000000E+02  0.51100000000E-03 0. -1.
    9900012    2    1    2    0    0  0.35059483116E+00  0.11234541592E+01  0.88778851110E-01  0.90007767960E+02  0.90000029697E+02 0.  0.
         12    1    1    2    0    0 -0.35059483116E+00 -0.11234541592E+01 -0.88778851110E-01  0.11802320398E+01  0.00000000000E+00 0. -1.
         11    1    3    3    0    0 -0.11738419804E+01 -0.39832173354E+02 -0.95447885380E+01  0.40976614399E+02  0.51100000000E-03 0. -1.
        -11    1    3    3    0    0 -0.34010249399E+01  0.29579813859E+01  0.97213889078E+01  0.10715504052E+02  0.51100000000E-03 0.  1.
        -12    1    3    3    0    0  0.49254617514E+01  0.37997646128E+02 -0.87821518615E-01  0.38315649509E+02  0.00000000000E+00 0.  1.
</event>
<event>
 7    1  0.2284751E-015  0.9000773E+02  0.7816164E-02  0.1186339E+00
        -11   -1    0    0    0    0  0.00000000000E+00  0.00000000000E+00  0.45593999997E+02  0.45594000000E+02  0.51100000000E-03 0. -1.
         11   -1    0    0    0    0 -0.00000000000E+00 -0.00000000000E+00 -0.45593999997E+02  0.45594000000E+02  0.51100000000E-03 0.  1.
    9900012    2    1    2    0    0  0.51070278346E+00 -0.92598042612E+00 -0.52419528074E+00  0.90007729787E+02  0.89999991021E+02 0.  0.
         12    1    1    2    0    0 -0.51070278346E+00  0.92598042612E+00  0.52419528074E+00  0.11802702127E+01  0.00000000000E+00 0. -1.
         11    1    3    3    0    0  0.48707854865E+01  0.32389254063E+02  0.80627367079E+01  0.33731232611E+02  0.51100000000E-03 0. -1.
        -11    1    3    3    0    0  0.87188154236E-01  0.11036201584E+02 -0.13455287134E+01  0.11118264026E+02  0.51100000000E-03 0.  1.
        -12    1    3    3    0    0 -0.44472708572E+01 -0.44351436073E+02 -0.72414032752E+01  0.45158233150E+02  0.00000000000E+00 0.  1.
</event>
<event>
 7    1  0.2284751E-015  0.9000774E+02  0.7816164E-02  0.1186339E+00
        -11   -1    0    0    0    0  0.00000000000E+00  0.00000000000E+00  0.45593999997E+02  0.45594000000E+02  0.51100000000E-03 0. -1.
         11   -1    0    0    0    0 -0.00000000000E+00 -0.00000000000E+00 -0.45593999997E+02  0.45594000000E+02  0.51100000000E-03 0.  1.
    9900012    2    1    2    0    0  0.10738094762E+01 -0.48918615392E+00  0.25233561475E-01  0.90007742987E+02  0.90000004394E+02 0.  0.
         12    1    1    2    0    0 -0.10738094762E+01  0.48918615392E+00 -0.25233561475E-01  0.11802570131E+01  0.00000000000E+00 0. -1.
         11    1    3    3    0    0  0.75105455700E+01  0.10743844103E+02  0.37095134803E+02  0.39343201537E+02  0.51100000000E-03 0. -1.
        -11    1    3    3    0    0 -0.25828069163E+00  0.96746701696E+01 -0.28485602965E+01  0.10088619719E+02  0.51100000000E-03 0.  1.
        -12    1    3    3    0    0 -0.61784554022E+01 -0.20907700426E+02 -0.34221340945E+02  0.40575921731E+02  0.00000000000E+00 0.  1.
</event>
<event>
 7    1  0.2284751E-015  0.9000772E+02  0.7816164E-02  0.1186339E+00
        -11   -1    0    0    0    0  0.00000000000E+00  0.00000000000E+00  0.45593999997E+02  0.45594000000E+02  0.51100000000E-03 0. -1.
         11   -1    0    0    0    0 -0.00000000000E+00 -0.00000000000E+00 -0.45593999997E+02  0.45594000000E+02  0.51100000000E-03 0.  1.
    9900012    2    1    2    0    0 -0.24889732733E+00 -0.10272409514E+01  0.52523957662E+00  0.90007724412E+02  0.89999985574E+02 0.  0.
         12    1    1    2    0    0  0.24889732733E+00  0.10272409514E+01 -0.52523957662E+00  0.11802755885E+01  0.00000000000E+00 0. -1.
         11    1    3    3    0    0  0.49073342613E+01 -0.75276206618E+01 -0.69667616993E+01  0.11370258186E+02  0.51100000000E-03 0. -1.
        -11    1    3    3    0    0  0.93291225041E+01  0.14834535333E+02 -0.31594021817E+02  0.36128633798E+02  0.51100000000E-03 0.  1.
         12    1    3    3    0    0 -0.14485354093E+02 -0.83341556226E+01  0.39086023093E+02  0.42508832428E+02  0.00000000000E+00 0. -1.
</event>
<event>
 7    1  0.2284751E-015  0.9000771E+02  0.7816164E-02  0.1186339E+00
        -11   -1    0    0    0    0  0.00000000000E+00  0.00000000000E+00  0.45593999997E+02  0.45594000000E+02  0.51100000000E-03 0.  1.
         11   -1    0    0    0    0 -0.00000000000E+00 -0.00000000000E+00 -0.45593999997E+02  0.45594000000E+02  0.51100000000E-03 0. -1.
    9900012    2    1    2    0    0 -0.41644941783E+00  0.11042862651E+01 -0.14007307779E-01  0.90007714239E+02  0.89999975267E+02 0.  0.
         12    1    1    2    0    0  0.41644941783E+00 -0.11042862651E+01  0.14007307779E-01  0.11802857610E+01  0.00000000000E+00 0. -1.
         11    1    3    3    0    0  0.24170247169E+01 -0.90780960835E+01 -0.18984413491E+01  0.95842535860E+01  0.51100000000E-03 0. -1.
        -11    1    3    3    0    0 -0.26053101228E+02  0.47966124841E+01  0.32304325323E+02  0.41777278630E+02  0.51100000000E-03 0.  1.
         12    1    3    3    0    0  0.23219627093E+02  0.53857698645E+01 -0.30419891282E+02  0.38646182023E+02  0.00000000000E+00 0. -1.
</event>
<event>
 7    1  0.2284751E-015  0.9000769E+02  0.7816164E-02  0.1186339E+00
        -11   -1    0    0    0    0  0.00000000000E+00  0.00000000000E+00  0.45593999997E+02  0.45594000000E+02  0.51100000000E-03 0.  1.
         11   -1    0    0    0    0 -0.00000000000E+00 -0.00000000000E+00 -0.45593999997E+02  0.45594000000E+02  0.51100000000E-03 0. -1.
    9900012    2    1    2    0    0  0.11706791547E+01 -0.12289722647E+00 -0.86819489179E-01  0.90007690280E+02  0.89999950992E+02 0.  0.
         12    1    1    2    0    0 -0.11706791547E+01  0.12289722647E+00  0.86819489179E-01  0.11803097201E+01  0.00000000000E+00 0. -1.
         11    1    3    3    0    0 -0.24717870646E+02 -0.18406967012E+02 -0.19340700239E+02  0.36384780470E+02  0.51100000000E-03 0. -1.
        -11    1    3    3    0    0  0.24989068991E+01 -0.76135537104E+01 -0.64461015572E+01  0.10284112083E+02  0.51100000000E-03 0.  1.
        -12    1    3    3    0    0  0.23389642902E+02  0.25897623496E+02  0.25699982307E+02  0.43338797727E+02  0.00000000000E+00 0.  1.
</event>
<event>
 7    1  0.2284751E-015  0.9000776E+02  0.7816164E-02  0.1186339E+00
        -11   -1    0    0    0    0  0.00000000000E+00  0.00000000000E+00  0.45593999997E+02  0.45594000000E+02  0.51100000000E-03 0.  1.
         11   -1    0    0    0    0 -0.00000000000E+00 -0.00000000000E+00 -0.45593999997E+02  0.45594000000E+02  0.51100000000E-03 0. -1.
    9900012    2    1    2    0    0 -0.26344410133E+00  0.84843990558E+00 -0.77699743437E+00  0.90007755076E+02  0.90000016643E+02 0.  0.
         12    1    1    2    0    0  0.26344410133E+00 -0.84843990558E+00  0.77699743437E+00  0.11802449241E+01  0.00000000000E+00 0. -1.
         11    1    3    3    0    0  0.90410824457E+01  0.40532410948E+01  0.15093164943E+01  0.10022373556E+02  0.51100000000E-03 0. -1.
        -11    1    3    3    0    0 -0.11395814749E+02 -0.32428653858E+02  0.22938704659E+02  0.41323919908E+02  0.51100000000E-03 0.  1.
         12    1    3    3    0    0  0.20912882022E+01  0.29223852669E+02 -0.25225018588E+02  0.38661461611E+02  0.00000000000E+00 0. -1.
</event>
<event>
 7    1  0.2284751E-015  0.9000659E+02  0.7816164E-02  0.1186341E+00
        -11   -1    0    0    0    0  0.00000000000E+00  0.00000000000E+00  0.45593999997E+02  0.45594000000E+02  0.51100000000E-03 0.  1.
         11   -1    0    0    0    0 -0.00000000000E+00 -0.00000000000E+00 -0.45593999997E+02  0.45594000000E+02  0.51100000000E-03 0. -1.
    9900012    2    1    2    0    0 -0.63874695364E+00  0.15925074768E-01  0.99372465763E+00  0.90006585604E+02  0.89998831727E+02 0.  0.
         12    1    1    2    0    0  0.63874695364E+00 -0.15925074768E-01 -0.99372465763E+00  0.11814143955E+01  0.00000000000E+00 0. -1.
         11    1    3    3    0    0 -0.35576427891E+01  0.32162371899E+02 -0.18779746666E+02  0.37413284719E+02  0.51100000000E-03 0. -1.
        -11    1    3    3    0    0 -0.22015671385E+00  0.82173996304E+01  0.40196526442E+01  0.91505045383E+01  0.51100000000E-03 0.  1.
        -12    1    3    3    0    0  0.31390525494E+01 -0.40363846454E+02  0.15753818679E+02  0.43442796347E+02  0.00000000000E+00 0.  1.
</event>
<event>
 7    1  0.2284751E-015  0.9000777E+02  0.7816164E-02  0.1186339E+00
        -11   -1    0    0    0    0  0.00000000000E+00  0.00000000000E+00  0.45593999997E+02  0.45594000000E+02  0.51100000000E-03 0. -1.
         11   -1    0    0    0    0 -0.00000000000E+00 -0.00000000000E+00 -0.45593999997E+02  0.45594000000E+02  0.51100000000E-03 0.  1.
    9900012    2    1    2    0    0  0.10869877025E+01  0.39846525102E+00 -0.22939098803E+00  0.90007772460E+02  0.90000034256E+02 0.  0.
         12    1    1    2    0    0 -0.10869877025E+01 -0.39846525102E+00  0.22939098803E+00  0.11802275404E+01  0.00000000000E+00 0. -1.
         11    1    3    3    0    0 -0.21349475359E+02 -0.89655433653E+01  0.34620294827E+02  0.41650280673E+02  0.51100000000E-03 0. -1.
        -11    1    3    3    0    0 -0.46378309454E+01  0.22342854004E+01 -0.83399267910E+01  0.98008104904E+01  0.51100000000E-03 0.  1.
        -12    1    3    3    0    0  0.27074294007E+02  0.71297232159E+01 -0.26509759024E+02  0.38556681297E+02  0.00000000000E+00 0.  1.
</event>
<event>
 7    1  0.2284751E-015  0.9000777E+02  0.7816164E-02  0.1186339E+00
        -11   -1    0    0    0    0  0.00000000000E+00  0.00000000000E+00  0.45593999997E+02  0.45594000000E+02  0.51100000000E-03 0. -1.
         11   -1    0    0    0    0 -0.00000000000E+00 -0.00000000000E+00 -0.45593999997E+02  0.45594000000E+02  0.51100000000E-03 0.  1.
    9900012    2    1    2    0    0  0.80062312992E+00  0.82672593180E+00  0.26168074714E+00  0.90007766982E+02  0.90000028707E+02 0.  0.
         12    1    1    2    0    0 -0.80062312992E+00 -0.82672593180E+00 -0.26168074714E+00  0.11802330176E+01  0.00000000000E+00 0. -1.
         11    1    3    3    0    0 -0.16661468801E+02 -0.32385345799E+02 -0.32167669913E+01  0.36561766304E+02  0.51100000000E-03 0. -1.
        -11    1    3    3    0    0 -0.84611952950E+01 -0.25949359834E+01 -0.14429529876E+01  0.89670302867E+01  0.51100000000E-03 0.  1.
        -12    1    3    3    0    0  0.25923287226E+02  0.35807007714E+02  0.49214007260E+01  0.44478970392E+02  0.00000000000E+00 0.  1.
</event>
<event>
 7    1  0.2284751E-015  0.9000772E+02  0.7816164E-02  0.1186339E+00
        -11   -1    0    0    0    0  0.00000000000E+00  0.00000000000E+00  0.45593999997E+02  0.45594000000E+02  0.51100000000E-03 0.  1.
         11   -1    0    0    0    0 -0.00000000000E+00 -0.00000000000E+00 -0.45593999997E+02  0.45594000000E+02  0.51100000000E-03 0. -1.
    9900012    2    1    2    0    0  0.32440973551E+00  0.97788395437E+00  0.57581406340E+00  0.90007720143E+02  0.89999981249E+02 0.  0.
         12    1    1    2    0    0 -0.32440973551E+00 -0.97788395437E+00 -0.57581406340E+00  0.11802798568E+01  0.00000000000E+00 0. -1.
         11    1    3    3    0    0  0.14770713633E+01 -0.84741425641E+01 -0.10843306003E+02  0.13840885714E+02  0.51100000000E-03 0. -1.
        -11    1    3    3    0    0  0.26276568534E+02  0.12280431459E+02 -0.19336927211E+02  0.34859486585E+02  0.51100000000E-03 0.  1.
         12    1    3    3    0    0 -0.27429230162E+02 -0.28284049407E+01  0.30756047277E+02  0.41307347844E+02  0.00000000000E+00 0. -1.
</event>
<event>
 7    1  0.2284751E-015  0.9000786E+02  0.7816164E-02  0.1186339E+00
        -11   -1    0    0    0    0  0.00000000000E+00  0.00000000000E+00  0.45593999997E+02  0.45594000000E+02  0.51100000000E-03 0. -1.
         11   -1    0    0    0    0 -0.00000000000E+00 -0.00000000000E+00 -0.45593999997E+02  0.45594000000E+02  0.51100000000E-03 0.  1.
    9900012    2    1    2    0    0  0.21724919622E+00  0.67627536565E+00  0.94243124218E+00  0.90007863470E+02  0.90000126468E+02 0.  0.
         12    1    1    2    0    0 -0.21724919622E+00 -0.67627536565E+00 -0.94243124218E+00  0.11801365301E+01  0.00000000000E+00 0. -1.
         11    1    3    3    0    0 -0.41510445730E+01  0.39675926493E+02  0.44751800981E+01  0.40142714797E+02  0.51100000000E-03 0. -1.
        -11    1    3    3    0    0  0.51340077030E+01  0.16054310508E+01  0.60929701246E+01  0.81277136486E+01  0.51100000000E-03 0.  1.
        -12    1    3    3    0    0 -0.76571393375E+00 -0.40605082178E+02 -0.96257189805E+01  0.41737435024E+02  0.00000000000E+00 0.  1.
</event>
<event>
 7    1  0.2284751E-015  0.9000766E+02  0.7816164E-02  0.1186339E+00
        -11   -1    0    0    0    0  0.00000000000E+00  0.00000000000E+00  0.45593999997E+02  0.45594000000E+02  0.51100000000E-03 0. -1.
         11   -1    0    0    0    0 -0.00000000000E+00 -0.00000000000E+00 -0.45593999997E+02  0.45594000000E+02  0.51100000000E-03 0.  1.
    9900012    2    1    2    0    0  0.73326475381E+00  0.10498982733E+00 -0.91896571076E+00  0.90007661896E+02  0.89999922233E+02 0.  0.
         12    1    1    2    0    0 -0.73326475381E+00 -0.10498982733E+00  0.91896571076E+00  0.11803381043E+01  0.00000000000E+00 0. -1.
         11    1    3    3    0    0  0.27545299107E+02  0.10249017843E+02  0.15636893368E+02  0.33291114492E+02  0.51100000000E-03 0. -1.
        -11    1    3    3    0    0  0.13028488118E+02 -0.54214072430E+01 -0.49047432673E+01  0.14939533658E+02  0.51100000000E-03 0.  1.
         12    1    3    3    0    0 -0.39840522472E+02 -0.47226207729E+01 -0.11651115812E+02  0.41777013745E+02  0.00000000000E+00 0. -1.
</event>
<event>
 7    1  0.2284751E-015  0.9000775E+02  0.7816164E-02  0.1186339E+00
        -11   -1    0    0    0    0  0.00000000000E+00  0.00000000000E+00  0.45593999997E+02  0.45594000000E+02  0.51100000000E-03 0.  1.
         11   -1    0    0    0    0 -0.00000000000E+00 -0.00000000000E+00 -0.45593999997E+02  0.45594000000E+02  0.51100000000E-03 0. -1.
    9900012    2    1    2    0    0 -0.84689170811E+00  0.67977662627E+00  0.46225168923E+00  0.90007746446E+02  0.90000007899E+02 0.  0.
         12    1    1    2    0    0  0.84689170811E+00 -0.67977662627E+00 -0.46225168923E+00  0.11802535537E+01  0.00000000000E+00 0. -1.
         11    1    3    3    0    0 -0.58427845352E+01  0.49927547149E+01  0.60823792664E+01  0.98010748681E+01  0.51100000000E-03 0. -1.
        -11    1    3    3    0    0  0.93213422791E+01  0.27261360924E+02  0.23390680860E+02  0.37110553386E+02  0.51100000000E-03 0.  1.
         12    1    3    3    0    0 -0.43254494520E+01 -0.31574339012E+02 -0.29010808437E+02  0.43096118192E+02  0.00000000000E+00 0. -1.
</event>
<event>
 7    1  0.2284751E-015  0.9000785E+02  0.7816164E-02  0.1186339E+00
        -11   -1    0    0    0    0  0.00000000000E+00  0.00000000000E+00  0.45593999997E+02  0.45594000000E+02  0.51100000000E-03 0.  1.
         11   -1    0    0    0    0 -0.00000000000E+00 -0.00000000000E+00 -0.45593999997E+02  0.45594000000E+02  0.51100000000E-03 0. -1.
    9900012    2    1    2    0    0  0.28039656895E+00  0.59976651024E+00  0.97694195592E+00  0.90007848447E+02  0.90000111246E+02 0.  0.
         12    1    1    2    0    0 -0.28039656895E+00 -0.59976651024E+00 -0.97694195592E+00  0.11801515529E+01  0.00000000000E+00 0. -1.
         11    1    3    3    0    0  0.10997190522E+02 -0.74384822739E+00  0.73245574244E+00  0.11046628501E+02  0.51100000000E-03 0. -1.
        -11    1    3    3    0    0  0.92204810148E+01  0.23819646484E+02  0.28111850536E+02  0.37982482404E+02  0.51100000000E-03 0.  1.
         12    1    3    3    0    0 -0.19937274968E+02 -0.22476031746E+02 -0.27867364323E+02  0.40978737542E+02  0.00000000000E+00 0. -1.
</event>
<event>
 7    1  0.2284751E-015  0.9000777E+02  0.7816164E-02  0.1186339E+00
        -11   -1    0    0    0    0  0.00000000000E+00  0.00000000000E+00  0.45593999997E+02  0.45594000000E+02  0.51100000000E-03 0. -1.
         11   -1    0    0    0    0 -0.00000000000E+00 -0.00000000000E+00 -0.45593999997E+02  0.45594000000E+02  0.51100000000E-03 0.  1.
    9900012    2    1    2    0    0  0.99015334745E+00  0.43758442491E+00  0.47016965840E+00  0.90007769816E+02  0.90000031577E+02 0.  0.
         12    1    1    2    0    0 -0.99015334745E+00 -0.43758442491E+00 -0.47016965840E+00  0.11802301844E+01  0.00000000000E+00 0. -1.
         11    1    3    3    0    0 -0.24784556617E+01 -0.33416860204E+00  0.72701412391E+01  0.76882615082E+01  0.51100000000E-03 0. -1.
        -11    1    3    3    0    0 -0.35298887004E+02  0.14000113913E+02  0.79230906382E+01  0.38791622534E+02  0.51100000000E-03 0.  1.
         12    1    3    3    0    0  0.38767496013E+02 -0.13228360886E+02 -0.14723062219E+02  0.43527885774E+02  0.00000000000E+00 0. -1.
</event>
<event>
 7    1  0.2284751E-015  0.9000781E+02  0.7816164E-02  0.1186339E+00
        -11   -1    0    0    0    0  0.00000000000E+00  0.00000000000E+00  0.45593999997E+02  0.45594000000E+02  0.51100000000E-03 0.  1.
         11   -1    0    0    0    0 -0.00000000000E+00 -0.00000000000E+00 -0.45593999997E+02  0.45594000000E+02  0.51100000000E-03 0. -1.
    9900012    2    1    2    0    0  0.44190142309E-01 -0.11294847457E+00  0.11739457322E+01  0.90007805648E+02  0.90000067882E+02 0.  0.
         12    1    1    2    0    0 -0.44190142309E-01  0.11294847457E+00 -0.11739457322E+01  0.11801943521E+01  0.00000000000E+00 0. -1.
         11    1    3    3    0    0  0.74268090453E+01 -0.51539820953E+01  0.33389892455E+00  0.90461324767E+01  0.51100000000E-03 0. -1.
        -11    1    3    3    0    0  0.13464043485E+02 -0.29230544064E+02  0.18512932977E+02  0.37127265735E+02  0.51100000000E-03 0.  1.
         12    1    3    3    0    0 -0.20846662388E+02  0.34271577685E+02 -0.17672886169E+02  0.43834407436E+02  0.00000000000E+00 0. -1.
</event>
<event>
 7    1  0.2284751E-015  0.9000775E+02  0.7816164E-02  0.1186339E+00
        -11   -1    0    0    0    0  0.00000000000E+00  0.00000000000E+00  0.45593999997E+02  0.45594000000E+02  0.51100000000E-03 0.  1.
         11   -1    0    0    0    0 -0.00000000000E+00 -0.00000000000E+00 -0.45593999997E+02  0.45594000000E+02  0.51100000000E-03 0. -1.
    9900012    2    1    2    0    0 -0.30620233906E+00 -0.42377030251E+00  0.10581335057E+01  0.90007751019E+02  0.90000012532E+02 0.  0.
         12    1    1    2    0    0  0.30620233906E+00  0.42377030251E+00 -0.10581335057E+01  0.11802489812E+01  0.00000000000E+00 0. -1.
         11    1    3    3    0    0 -0.44370686095E+01 -0.76800775221E+01  0.42292265319E+01  0.98263689077E+01  0.51100000000E-03 0. -1.
        -11    1    3    3    0    0  0.58719004439E+01  0.53456474536E+01  0.38054839526E+02  0.38874490004E+02  0.51100000000E-03 0.  1.
         12    1    3    3    0    0 -0.17410341735E+01  0.19106597660E+01 -0.41225932552E+02  0.41306892107E+02  0.00000000000E+00 0. -1.
</event>
<event>
 7    1  0.2284751E-015  0.9000775E+02  0.7816164E-02  0.1186339E+00
        -11   -1    0    0    0    0  0.00000000000E+00  0.00000000000E+00  0.45593999997E+02  0.45594000000E+02  0.51100000000E-03 0.  1.
         11   -1    0    0    0    0 -0.00000000000E+00 -0.00000000000E+00 -0.45593999997E+02  0.45594000000E+02  0.51100000000E-03 0. -1.
    9900012    2    1    2    0    0 -0.32692411426E+00  0.66459599311E+00  0.91892935466E+00  0.90007746481E+02  0.90000007934E+02 0.  0.
         12    1    1    2    0    0  0.32692411426E+00 -0.66459599311E+00 -0.91892935466E+00  0.11802535191E+01  0.00000000000E+00 0. -1.
         11    1    3    3    0    0 -0.30203610052E+02  0.21391660536E+02 -0.32277442538E+00  0.37013043435E+02  0.51100000000E-03 0. -1.
        -11    1    3    3    0    0 -0.70772006002E+00  0.82833275800E+01 -0.59602687922E+01  0.10229329783E+02  0.51100000000E-03 0.  1.
        -12    1    3    3    0    0  0.30584405998E+02 -0.29010392123E+02  0.72019725722E+01  0.42765373263E+02  0.00000000000E+00 0.  1.
</event>
<event>
 7    1  0.2284751E-015  0.9000775E+02  0.7816164E-02  0.1186339E+00
        -11   -1    0    0    0    0  0.00000000000E+00  0.00000000000E+00  0.45593999997E+02  0.45594000000E+02  0.51100000000E-03 0.  1.
         11   -1    0    0    0    0 -0.00000000000E+00 -0.00000000000E+00 -0.45593999997E+02  0.45594000000E+02  0.51100000000E-03 0. -1.
    9900012    2    1    2    0    0  0.76013340029E+00 -0.88832276624E+00  0.16145557036E+00  0.90007750863E+02  0.90000012375E+02 0.  0.
         12    1    1    2    0    0 -0.76013340029E+00  0.88832276624E+00 -0.16145557036E+00  0.11802491366E+01  0.00000000000E+00 0. -1.
         11    1    3    3    0    0  0.11139029122E+02 -0.30149730133E+02  0.18879280299E+02  0.37276150844E+02  0.51100000000E-03 0. -1.
        -11    1    3    3    0    0 -0.73005619333E+01 -0.45388986578E+01  0.62233577763E+01  0.10612727634E+02  0.51100000000E-03 0.  1.
        -12    1    3    3    0    0 -0.30783337884E+01  0.33800306024E+02 -0.24941182505E+02  0.42118872385E+02  0.00000000000E+00 0.  1.
</event>
<event>
 7    1  0.2284751E-015  0.9000773E+02  0.7816164E-02  0.1186339E+00
        -11   -1    0    0    0    0  0.00000000000E+00  0.00000000000E+00  0.45593999997E+02  0.45594000000E+02  0.51100000000E-03 0.  1.
         11   -1    0    0    0    0 -0.00000000000E+00 -0.00000000000E+00 -0.45593999997E+02  0.45594000000E+02  0.51100000000E-03 0. -1.
    9900012    2    1    2    0    0 -0.91207359233E+00 -0.57811167100E+00  0.47639271375E+00  0.90007728269E+02  0.89999989482E+02 0.  0.
         12    1    1    2    0    0  0.91207359233E+00  0.57811167100E+00 -0.47639271375E+00  0.11802717313E+01  0.00000000000E+00 0. -1.
         11    1    3    3    0    0 -0.54059221532E+01 -0.72421524319E+01 -0.21485036997E+01  0.92891783588E+01  0.51100000000E-03 0. -1.
        -11    1    3    3    0    0 -0.15698959510E+02 -0.30506596949E+02  0.13777020176E+02  0.36971828090E+02  0.51100000000E-03 0.  1.
         12    1    3    3    0    0  0.20192808071E+02  0.37170637710E+02 -0.11152123763E+02  0.43746721820E+02  0.00000000000E+00 0. -1.
</event>
<event>
 7    1  0.2284751E-015  0.9000786E+02  0.7816164E-02  0.1186339E+00
        -11   -1    0    0    0    0  0.00000000000E+00  0.00000000000E+00  0.45593999997E+02  0.45594000000E+02  0.51100000000E-03 0. -1.
         11   -1    0    0    0    0 -0.00000000000E+00 -0.00000000000E+00 -0.45593999997E+02  0.45594000000E+02  0.51100000000E-03 0.  1.
    9900012    2    1    2    0    0  0.51040199359E+00 -0.86360580166E+00 -0.62161673104E+00  0.90007859103E+02  0.90000122043E+02 0.  0.
         12    1    1    2    0    0 -0.51040199359E+00  0.86360580166E+00  0.62161673104E+00  0.11801408967E+01  0.00000000000E+00 0. -1.
         11    1    3    3    0    0  0.73845398051E+01 -0.89366218722E+01  0.12282608553E+01  0.11657755513E+02  0.51100000000E-03 0. -1.
        -11    1    3    3    0    0  0.24035761136E+01  0.29209797673E+02 -0.30003729904E+02  0.41942976369E+02  0.51100000000E-03 0.  1.
         12    1    3    3    0    0 -0.92777139250E+01 -0.21136781603E+02  0.28153852318E+02  0.36407127221E+02  0.00000000000E+00 0. -1.
</event>
<event>
 7    1  0.2284751E-015  0.9000773E+02  0.7816164E-02  0.1186339E+00
        -11   -1    0    0    0    0  0.00000000000E+00  0.00000000000E+00  0.45593999997E+02  0.45594000000E+02  0.51100000000E-03 0. -1.
         11   -1    0    0    0    0 -0.00000000000E+00 -0.00000000000E+00 -0.45593999997E+02  0.45594000000E+02  0.51100000000E-03 0.  1.
    9900012    2    1    2    0    0 -0.11072670221E+01 -0.99936093725E-01  0.39623112872E+00  0.90007734526E+02  0.89999995822E+02 0.  0.
         12    1    1    2    0    0  0.11072670221E+01  0.99936093725E-01 -0.39623112872E+00  0.11802654737E+01  0.00000000000E+00 0. -1.
         11    1    3    3    0    0 -0.75403951488E+01  0.11913753204E+02 -0.49051149147E+01  0.14928336377E+02  0.51100000000E-03 0. -1.
        -11    1    3    3    0    0  0.34656652174E+02 -0.58399543647E+01 -0.16558331836E+02  0.38850572201E+02  0.51100000000E-03 0.  1.
         12    1    3    3    0    0 -0.28223524047E+02 -0.61737349325E+01  0.21859677879E+02  0.36228825949E+02  0.00000000000E+00 0. -1.
</event>
<event>
 7    1  0.3135201E-015  0.9000778E+02  0.7816164E-02  0.1186339E+00
        -11   -1    0    0    0    0  0.00000000000E+00  0.00000000000E+00  0.45593999997E+02  0.45594000000E+02  0.51100000000E-03 0. -1.
         11   -1    0    0    0    0 -0.00000000000E+00 -0.00000000000E+00 -0.45593999997E+02  0.45594000000E+02  0.51100000000E-03 0.  1.
    9900012    2    1    2    0    0  0.10523583179E+01  0.50488952892E+00 -0.17478537070E+00  0.90007779092E+02  0.90000040976E+02 0.  0.
         12    1    1    2    0    0 -0.10523583179E+01 -0.50488952892E+00  0.17478537070E+00  0.11802209079E+01  0.00000000000E+00 0. -1.
         11    1    3    3    0    0  0.81200789583E+01 -0.14208631241E+02  0.32051592805E+02  0.35987851917E+02  0.51100000000E-03 0. -1.
        -11    1    3    3    0    0  0.14260828427E+01  0.14387317651E+01  0.93447598617E+01  0.95618093737E+01  0.51100000000E-03 0.  1.
        -12    1    3    3    0    0 -0.84938034830E+01  0.13274789005E+02 -0.41571138037E+02  0.44458117801E+02  0.00000000000E+00 0.  1.
</event>
<event>
 7    1  0.2284751E-015  0.9000771E+02  0.7816164E-02  0.1186339E+00
        -11   -1    0    0    0    0  0.00000000000E+00  0.00000000000E+00  0.45593999997E+02  0.45594000000E+02  0.51100000000E-03 0. -1.
         11   -1    0    0    0    0 -0.00000000000E+00 -0.00000000000E+00 -0.45593999997E+02  0.45594000000E+02  0.51100000000E-03 0.  1.
    9900012    2    1    2    0    0  0.96440193099E+00  0.67897918962E+00  0.44636873865E-01  0.90007713478E+02  0.89999974496E+02 0.  0.
         12    1    1    2    0    0 -0.96440193099E+00 -0.67897918962E+00 -0.44636873865E-01  0.11802865224E+01  0.00000000000E+00 0. -1.
         11    1    3    3    0    0  0.12394382273E+02 -0.21859026344E+01  0.34825891655E+02  0.37030279666E+02  0.51100000000E-03 0. -1.
        -11    1    3    3    0    0 -0.75779032865E+01 -0.19455215612E+01  0.71482242092E+01  0.10597489418E+02  0.51100000000E-03 0.  1.
        -12    1    3    3    0    0 -0.38520770553E+01  0.48104033851E+01 -0.41929478991E+02  0.42379944394E+02  0.00000000000E+00 0.  1.
</event>
<event>
 7    1  0.2284751E-015  0.9000751E+02  0.7816164E-02  0.1186340E+00
        -11   -1    0    0    0    0  0.00000000000E+00  0.00000000000E+00  0.45593999997E+02  0.45594000000E+02  0.51100000000E-03 0. -1.
         11   -1    0    0    0    0 -0.00000000000E+00 -0.00000000000E+00 -0.45593999997E+02  0.45594000000E+02  0.51100000000E-03 0.  1.
    9900012    2    1    2    0    0 -0.82306511746E+00  0.99010707382E-01 -0.84042664616E+00  0.90007510163E+02  0.89999768497E+02 0.  0.
         12    1    1    2    0    0  0.82306511746E+00 -0.99010707382E-01  0.84042664616E+00  0.11804898370E+01  0.00000000000E+00 0. -1.
         11    1    3    3    0    0  0.57291920491E+01 -0.21018651698E+02 -0.14714564231E+02  0.26289270844E+02  0.51100000000E-03 0. -1.
        -11    1    3    3    0    0 -0.11362618129E+02 -0.12274492069E+02 -0.12511973086E+02  0.20888315324E+02  0.51100000000E-03 0.  1.
        -12    1    3    3    0    0  0.48103609627E+01  0.33392154475E+02  0.26386110671E+02  0.42829923995E+02  0.00000000000E+00 0.  1.
</event>
<event>
 7    1  0.2284751E-015  0.9000777E+02  0.7816164E-02  0.1186339E+00
        -11   -1    0    0    0    0  0.00000000000E+00  0.00000000000E+00  0.45593999997E+02  0.45594000000E+02  0.51100000000E-03 0.  1.
         11   -1    0    0    0    0 -0.00000000000E+00 -0.00000000000E+00 -0.45593999997E+02  0.45594000000E+02  0.51100000000E-03 0. -1.
    9900012    2    1    2    0    0  0.93065297173E+00 -0.71153673646E+00 -0.14329654785E+00  0.90007774012E+02  0.90000035829E+02 0.  0.
         12    1    1    2    0    0 -0.93065297173E+00  0.71153673646E+00  0.14329654785E+00  0.11802259876E+01  0.00000000000E+00 0. -1.
         11    1    3    3    0    0 -0.71154816672E+01 -0.30005209920E+02  0.10157939757E+02  0.32467313441E+02  0.51100000000E-03 0. -1.
        -11    1    3    3    0    0  0.74028093925E+01 -0.12541281136E+02 -0.48361302835E+01  0.15345145024E+02  0.51100000000E-03 0.  1.
        -12    1    3    3    0    0  0.64332524639E+00  0.41834954320E+02 -0.54651060212E+01  0.42195315547E+02  0.00000000000E+00 0.  1.
</event>
<event>
 7    1  0.2284751E-015  0.9000778E+02  0.7816164E-02  0.1186339E+00
        -11   -1    0    0    0    0  0.00000000000E+00  0.00000000000E+00  0.45593999997E+02  0.45594000000E+02  0.51100000000E-03 0.  1.
         11   -1    0    0    0    0 -0.00000000000E+00 -0.00000000000E+00 -0.45593999997E+02  0.45594000000E+02  0.51100000000E-03 0. -1.
    9900012    2    1    2    0    0 -0.21588868822E-01  0.11743521898E+01 -0.11556461223E+00  0.90007777850E+02  0.90000039717E+02 0.  0.
         12    1    1    2    0    0  0.21588868822E-01 -0.11743521898E+01  0.11556461223E+00  0.11802221505E+01  0.00000000000E+00 0. -1.
         11    1    3    3    0    0 -0.18630026916E+02 -0.30899104467E+02 -0.12289316032E+02  0.38116398683E+02  0.51100000000E-03 0. -1.
        -11    1    3    3    0    0  0.28126580372E+01 -0.20949610454E+01 -0.83217069139E+01  0.90305433523E+01  0.51100000000E-03 0.  1.
        -12    1    3    3    0    0  0.15795780010E+02  0.34168417702E+02  0.20495458334E+02  0.42860835814E+02  0.00000000000E+00 0.  1.
</event>
<event>
 7    1  0.2284751E-015  0.9000768E+02  0.7816164E-02  0.1186339E+00
        -11   -1    0    0    0    0  0.00000000000E+00  0.00000000000E+00  0.45593999997E+02  0.45594000000E+02  0.51100000000E-03 0. -1.
         11   -1    0    0    0    0 -0.00000000000E+00 -0.00000000000E+00 -0.45593999997E+02  0.45594000000E+02  0.51100000000E-03 0.  1.
    9900012    2    1    2    0    0 -0.22974034145E+00 -0.75840619294E+00 -0.87476028554E+00  0.90007675411E+02  0.89999935927E+02 0.  0.
         12    1    1    2    0    0  0.22974034145E+00  0.75840619294E+00  0.87476028554E+00  0.11803245889E+01  0.00000000000E+00 0. -1.
         11    1    3    3    0    0  0.55429725385E+01  0.33691169398E+01 -0.43276992295E+01  0.77977223854E+01  0.51100000000E-03 0. -1.
        -11    1    3    3    0    0 -0.68624340158E+00 -0.66426033939E+01 -0.38904832144E+02  0.39473802380E+02  0.51100000000E-03 0.  1.
         12    1    3    3    0    0 -0.50864694784E+01  0.25150802612E+01  0.42357771088E+02  0.42736150646E+02  0.00000000000E+00 0. -1.
</event>
<event>
 7    1  0.2284751E-015  0.9000807E+02  0.7816164E-02  0.1186338E+00
        -11   -1    0    0    0    0  0.00000000000E+00  0.00000000000E+00  0.45593999997E+02  0.45594000000E+02  0.51100000000E-03 0.  1.
         11   -1    0    0    0    0 -0.00000000000E+00 -0.00000000000E+00 -0.45593999997E+02  0.45594000000E+02  0.51100000000E-03 0. -1.
    9900012    2    1    2    0    0  0.16014234626E+00 -0.11644955259E+01 -0.10271461136E+00  0.90008065386E+02  0.90000331049E+02 0.  0.
         12    1    1    2    0    0 -0.16014234626E+00  0.11644955259E+01  0.10271461136E+00  0.11799346136E+01  0.00000000000E+00 0. -1.
         11    1    3    3    0    0  0.42710081757E+01  0.62627459337E+01 -0.30711021391E+01  0.81789465139E+01  0.51100000000E-03 0. -1.
        -11    1    3    3    0    0  0.91200836492E+01  0.11687961236E+02  0.37430142228E+02  0.40259159344E+02  0.51100000000E-03 0.  1.
         12    1    3    3    0    0 -0.13230949479E+02 -0.19115202696E+02 -0.34461754700E+02  0.41569959529E+02  0.00000000000E+00 0. -1.
</event>
<event>
 7    1  0.2284751E-015  0.9000777E+02  0.7816164E-02  0.1186339E+00
        -11   -1    0    0    0    0  0.00000000000E+00  0.00000000000E+00  0.45593999997E+02  0.45594000000E+02  0.51100000000E-03 0. -1.
         11   -1    0    0    0    0 -0.00000000000E+00 -0.00000000000E+00 -0.45593999997E+02  0.45594000000E+02  0.51100000000E-03 0.  1.
    9900012    2    1    2    0    0 -0.41267969210E+00 -0.35793160851E+00 -0.10461953073E+01  0.90007769435E+02  0.90000031192E+02 0.  0.
         12    1    1    2    0    0  0.41267969210E+00  0.35793160851E+00  0.10461953073E+01  0.11802305646E+01  0.00000000000E+00 0. -1.
         11    1    3    3    0    0  0.34948820187E+02 -0.20844677086E+02  0.71866516516E+01  0.41322736569E+02  0.51100000000E-03 0. -1.
        -11    1    3    3    0    0  0.39891163372E+01  0.14518992897E+01 -0.11890126052E+01  0.44084931592E+01  0.51100000000E-03 0.  1.
        -12    1    3    3    0    0 -0.39350616217E+02  0.19034846188E+02 -0.70438343537E+01  0.44276539707E+02  0.00000000000E+00 0.  1.
</event>
<event>
 7    1  0.2284751E-015  0.9000808E+02  0.7816164E-02  0.1186338E+00
        -11   -1    0    0    0    0  0.00000000000E+00  0.00000000000E+00  0.45593999997E+02  0.45594000000E+02  0.51100000000E-03 0.  1.
         11   -1    0    0    0    0 -0.00000000000E+00 -0.00000000000E+00 -0.45593999997E+02  0.45594000000E+02  0.51100000000E-03 0. -1.
    9900012    2    1    2    0    0 -0.99423379965E+00  0.24273635808E+00  0.58719605481E+00  0.90008075852E+02  0.90000341653E+02 0.  0.
         12    1    1    2    0    0  0.99423379965E+00 -0.24273635808E+00 -0.58719605481E+00  0.11799241479E+01  0.00000000000E+00 0. -1.
         11    1    3    3    0    0  0.97007345286E+01 -0.57570042144E+01 -0.13095994408E+02  0.17284455957E+02  0.51100000000E-03 0. -1.
        -11    1    3    3    0    0 -0.27973145007E+01  0.10228095120E+02  0.41846918886E+02  0.43169474385E+02  0.51100000000E-03 0.  1.
         12    1    3    3    0    0 -0.78976538275E+01 -0.42283545477E+01 -0.28163728423E+02  0.29554145510E+02  0.00000000000E+00 0. -1.
</event>
<event>
 7    1  0.2284751E-015  0.9000774E+02  0.7816164E-02  0.1186339E+00
        -11   -1    0    0    0    0  0.00000000000E+00  0.00000000000E+00  0.45593999997E+02  0.45594000000E+02  0.51100000000E-03 0. -1.
         11   -1    0    0    0    0 -0.00000000000E+00 -0.00000000000E+00 -0.45593999997E+02  0.45594000000E+02  0.51100000000E-03 0.  1.
    9900012    2    1    2    0    0 -0.20355630466E+00 -0.44841552303E+00 -0.10726104952E+01  0.90007743704E+02  0.90000005121E+02 0.  0.
         12    1    1    2    0    0  0.20355630466E+00  0.44841552303E+00  0.10726104952E+01  0.11802562963E+01  0.00000000000E+00 0. -1.
         11    1    3    3    0    0 -0.28333475046E+02 -0.12385555382E+02  0.85789832401E+01  0.32090290494E+02  0.51100000000E-03 0. -1.
        -11    1    3    3    0    0 -0.54450342669E+01 -0.99559511288E+01  0.82395281688E+01  0.14023522587E+02  0.51100000000E-03 0.  1.
        -12    1    3    3    0    0  0.33574953008E+02  0.21893090988E+02 -0.17891121904E+02  0.43893930622E+02  0.00000000000E+00 0.  1.
</event>
<event>
 7    1  0.2284751E-015  0.9000798E+02  0.7816164E-02  0.1186339E+00
        -11   -1    0    0    0    0  0.00000000000E+00  0.00000000000E+00  0.45593999997E+02  0.45594000000E+02  0.51100000000E-03 0.  1.
         11   -1    0    0    0    0 -0.00000000000E+00 -0.00000000000E+00 -0.45593999997E+02  0.45594000000E+02  0.51100000000E-03 0. -1.
    9900012    2    1    2    0    0  0.96715782881E+00 -0.66582895293E+00  0.11717752026E+00  0.90007977529E+02  0.90000242032E+02 0.  0.
         12    1    1    2    0    0 -0.96715782881E+00  0.66582895293E+00 -0.11717752026E+00  0.11800224708E+01  0.00000000000E+00 0. -1.
         11    1    3    3    0    0  0.19251715823E+02  0.38509554233E+01 -0.32102338638E+02  0.37630022138E+02  0.51100000000E-03 0. -1.
        -11    1    3    3    0    0  0.41664543698E+01 -0.13773466190E+02  0.35798376099E+01  0.14828450711E+02  0.51100000000E-03 0.  1.
        -12    1    3    3    0    0 -0.22451012364E+02  0.92566818141E+01  0.28639678549E+02  0.37549504680E+02  0.00000000000E+00 0.  1.
</event>
<event>
 7    1  0.2284751E-015  0.9000770E+02  0.7816164E-02  0.1186339E+00
        -11   -1    0    0    0    0  0.00000000000E+00  0.00000000000E+00  0.45593999997E+02  0.45594000000E+02  0.51100000000E-03 0.  1.
         11   -1    0    0    0    0 -0.00000000000E+00 -0.00000000000E+00 -0.45593999997E+02  0.45594000000E+02  0.51100000000E-03 0. -1.
    9900012    2    1    2    0    0  0.17513049214E+00  0.97618717839E+00  0.63991644819E+00  0.90007701242E+02  0.89999962099E+02 0.  0.
         12    1    1    2    0    0 -0.17513049214E+00 -0.97618717839E+00 -0.63991644819E+00  0.11802987576E+01  0.00000000000E+00 0. -1.
         11    1    3    3    0    0 -0.43934593603E+01  0.15661707901E+01  0.76272934581E+01  0.89404128457E+01  0.51100000000E-03 0. -1.
        -11    1    3    3    0    0 -0.31948036091E+02 -0.18600379223E+02 -0.14414139388E+02  0.39678943180E+02  0.51100000000E-03 0.  1.
         12    1    3    3    0    0  0.36516625943E+02  0.18010395611E+02  0.74267623780E+01  0.41388345217E+02  0.00000000000E+00 0. -1.
</event>
<event>
 7    1  0.2284751E-015  0.9000767E+02  0.7816164E-02  0.1186339E+00
        -11   -1    0    0    0    0  0.00000000000E+00  0.00000000000E+00  0.45593999997E+02  0.45594000000E+02  0.51100000000E-03 0.  1.
         11   -1    0    0    0    0 -0.00000000000E+00 -0.00000000000E+00 -0.45593999997E+02  0.45594000000E+02  0.51100000000E-03 0. -1.
    9900012    2    1    2    0    0  0.18346112405E+00  0.47138804249E+00  0.10664510097E+01  0.90007668510E+02  0.89999928934E+02 0.  0.
         12    1    1    2    0    0 -0.18346112405E+00 -0.47138804249E+00 -0.10664510097E+01  0.11803314902E+01  0.00000000000E+00 0. -1.
         11    1    3    3    0    0  0.25415927275E+02  0.12561291925E+02 -0.30767917881E+01  0.28517048621E+02  0.51100000000E-03 0. -1.
        -11    1    3    3    0    0 -0.12259644013E+02  0.16322836185E+02 -0.14569397201E+02  0.25079896083E+02  0.51100000000E-03 0.  1.
        -12    1    3    3    0    0 -0.12972822138E+02 -0.28412740068E+02  0.18712639999E+02  0.36410723806E+02  0.00000000000E+00 0.  1.
</event>
<event>
 7    1  0.2284751E-015  0.9000762E+02  0.7816164E-02  0.1186339E+00
        -11   -1    0    0    0    0  0.00000000000E+00  0.00000000000E+00  0.45593999997E+02  0.45594000000E+02  0.51100000000E-03 0.  1.
         11   -1    0    0    0    0 -0.00000000000E+00 -0.00000000000E+00 -0.45593999997E+02  0.45594000000E+02  0.51100000000E-03 0. -1.
    9900012    2    1    2    0    0  0.11950586398E+00  0.17631764568E+00  0.11609991532E+01  0.90007623536E+02  0.89999883366E+02 0.  0.
         12    1    1    2    0    0 -0.11950586398E+00 -0.17631764568E+00 -0.11609991532E+01  0.11803764642E+01  0.00000000000E+00 0. -1.
         11    1    3    3    0    0 -0.33170522134E+02  0.30790234036E+01  0.15632664809E+02  0.36798697437E+02  0.51100000000E-03 0. -1.
        -11    1    3    3    0    0 -0.68902479768E+01 -0.40945855940E+01  0.40142383337E+01  0.89641094387E+01  0.51100000000E-03 0.  1.
        -12    1    3    3    0    0  0.40180275975E+02  0.11918798361E+01 -0.18485903990E+02  0.44244816660E+02  0.00000000000E+00 0.  1.
</event>
<event>
 7    1  0.2868945E-015  0.9000791E+02  0.7816164E-02  0.1186339E+00
        -11   -1    0    0    0    0  0.00000000000E+00  0.00000000000E+00  0.45593999997E+02  0.45594000000E+02  0.51100000000E-03 0.  1.
         11   -1    0    0    0    0 -0.00000000000E+00 -0.00000000000E+00 -0.45593999997E+02  0.45594000000E+02  0.51100000000E-03 0. -1.
    9900012    2    1    2    0    0 -0.67730023324E-01 -0.57135165346E+00  0.10303320407E+01  0.90007909248E+02  0.90000172850E+02 0.  0.
         12    1    1    2    0    0  0.67730023324E-01  0.57135165346E+00 -0.10303320407E+01  0.11800907516E+01  0.00000000000E+00 0. -1.
         11    1    3    3    0    0 -0.14574814474E+02  0.16567423096E+02 -0.28475130015E+02  0.36024127396E+02  0.51100000000E-03 0. -1.
        -11    1    3    3    0    0 -0.20226567776E+01  0.92446317402E+01 -0.20195524783E+01  0.96764119861E+01  0.51100000000E-03 0.  1.
        -12    1    3    3    0    0  0.16529741229E+02 -0.26383406489E+02  0.31525014534E+02  0.44307369866E+02  0.00000000000E+00 0.  1.
</event>
<event>
 7    1  0.2284751E-015  0.9000785E+02  0.7816164E-02  0.1186339E+00
        -11   -1    0    0    0    0  0.00000000000E+00  0.00000000000E+00  0.45593999997E+02  0.45594000000E+02  0.51100000000E-03 0.  1.
         11   -1    0    0    0    0 -0.00000000000E+00 -0.00000000000E+00 -0.45593999997E+02  0.45594000000E+02  0.51100000000E-03 0. -1.
    9900012    2    1    2    0    0  0.60523498033E+00  0.96983799033E+00 -0.29299928313E+00  0.90007854378E+02  0.90000117256E+02 0.  0.
         12    1    1    2    0    0 -0.60523498033E+00 -0.96983799033E+00  0.29299928313E+00  0.11801456219E+01  0.00000000000E+00 0. -1.
         11    1    3    3    0    0  0.24060298887E+01 -0.67437040422E+01  0.74468272799E+01  0.10330622480E+02  0.51100000000E-03 0. -1.
        -11    1    3    3    0    0 -0.32561970934E+02 -0.18432212963E+02  0.40087199601E+01  0.37631081061E+02  0.51100000000E-03 0.  1.
         12    1    3    3    0    0  0.30761176026E+02  0.26145754996E+02 -0.11748546523E+02  0.42046150837E+02  0.00000000000E+00 0. -1.
</event>
<event>
 7    1  0.2284751E-015  0.9000774E+02  0.7816164E-02  0.1186339E+00
        -11   -1    0    0    0    0  0.00000000000E+00  0.00000000000E+00  0.45593999997E+02  0.45594000000E+02  0.51100000000E-03 0.  1.
         11   -1    0    0    0    0 -0.00000000000E+00 -0.00000000000E+00 -0.45593999997E+02  0.45594000000E+02  0.51100000000E-03 0. -1.
    9900012    2    1    2    0    0  0.94930077221E+00 -0.69759934445E+00  0.72087710592E-01  0.90007740097E+02  0.90000001466E+02 0.  0.
         12    1    1    2    0    0 -0.94930077221E+00  0.69759934445E+00 -0.72087710592E-01  0.11802599034E+01  0.00000000000E+00 0. -1.
         11    1    3    3    0    0 -0.46480307301E+00 -0.50634859703E+01 -0.76704182535E+01  0.92027304923E+01  0.51100000000E-03 0. -1.
        -11    1    3    3    0    0 -0.30150277890E+02 -0.23063304598E+02 -0.14572752458E+01  0.37987878689E+02  0.51100000000E-03 0.  1.
         12    1    3    3    0    0  0.31564381735E+02  0.27429191224E+02  0.91997812099E+01  0.42817130916E+02  0.00000000000E+00 0. -1.
</event>
<event>
 7    1  0.2284751E-015  0.9000767E+02  0.7816164E-02  0.1186339E+00
        -11   -1    0    0    0    0  0.00000000000E+00  0.00000000000E+00  0.45593999997E+02  0.45594000000E+02  0.51100000000E-03 0.  1.
         11   -1    0    0    0    0 -0.00000000000E+00 -0.00000000000E+00 -0.45593999997E+02  0.45594000000E+02  0.51100000000E-03 0. -1.
    9900012    2    1    2    0    0 -0.82314494573E-02 -0.33833136195E+00  0.11307748798E+01  0.90007666278E+02  0.89999926672E+02 0.  0.
         12    1    1    2    0    0  0.82314494573E-02  0.33833136195E+00 -0.11307748798E+01  0.11803337223E+01  0.00000000000E+00 0. -1.
         11    1    3    3    0    0  0.98241121860E+01  0.28472449834E+02 -0.16378297058E+02  0.34284722466E+02  0.51100000000E-03 0. -1.
        -11    1    3    3    0    0 -0.54499080408E+01  0.11032411935E+02  0.91085980270E+00  0.12338771276E+02  0.51100000000E-03 0.  1.
        -12    1    3    3    0    0 -0.43824355947E+01 -0.39843193130E+02  0.16598212135E+02  0.43384172536E+02  0.00000000000E+00 0.  1.
</event>
<event>
 7    1  0.2284751E-015  0.9000777E+02  0.7816164E-02  0.1186339E+00
        -11   -1    0    0    0    0  0.00000000000E+00  0.00000000000E+00  0.45593999997E+02  0.45594000000E+02  0.51100000000E-03 0. -1.
         11   -1    0    0    0    0 -0.00000000000E+00 -0.00000000000E+00 -0.45593999997E+02  0.45594000000E+02  0.51100000000E-03 0.  1.
    9900012    2    1    2    0    0 -0.56657717871E+00 -0.51540902109E-01 -0.10340535110E+01  0.90007774247E+02  0.90000036067E+02 0.  0.
         12    1    1    2    0    0  0.56657717871E+00  0.51540902109E-01  0.10340535110E+01  0.11802257528E+01  0.00000000000E+00 0. -1.
         11    1    3    3    0    0 -0.68828826180E+01 -0.80267291201E+01 -0.35733066079E+01  0.11161136765E+02  0.51100000000E-03 0. -1.
        -11    1    3    3    0    0  0.91681360932E+01 -0.26774437422E+02 -0.22305278125E+02  0.36034020746E+02  0.51100000000E-03 0.  1.
         12    1    3    3    0    0 -0.28518306539E+01  0.34749625640E+02  0.24844531221E+02  0.42812616736E+02  0.00000000000E+00 0. -1.
</event>
<event>
 7    1  0.2284751E-015  0.9000776E+02  0.7816164E-02  0.1186339E+00
        -11   -1    0    0    0    0  0.00000000000E+00  0.00000000000E+00  0.45593999997E+02  0.45594000000E+02  0.51100000000E-03 0.  1.
         11   -1    0    0    0    0 -0.00000000000E+00 -0.00000000000E+00 -0.45593999997E+02  0.45594000000E+02  0.51100000000E-03 0. -1.
    9900012    2    1    2    0    0  0.21065555864E+00  0.10514168033E+01  0.49307236139E+00  0.90007757054E+02  0.90000018647E+02 0.  0.
         12    1    1    2    0    0 -0.21065555864E+00 -0.10514168033E+01 -0.49307236139E+00  0.11802429463E+01  0.00000000000E+00 0. -1.
         11    1    3    3    0    0 -0.78026505268E+00 -0.68975699388E+01  0.62518771625E+01  0.93419084201E+01  0.51100000000E-03 0. -1.
        -11    1    3    3    0    0 -0.36852632551E+02  0.17579954255E+02  0.18867839018E+01  0.40874579769E+02  0.51100000000E-03 0.  1.
         12    1    3    3    0    0  0.37843553163E+02 -0.96309675125E+01 -0.76455887029E+01  0.39791268864E+02  0.00000000000E+00 0. -1.
</event>
<event>
 7    1  0.2284751E-015  0.9000799E+02  0.7816164E-02  0.1186339E+00
        -11   -1    0    0    0    0  0.00000000000E+00  0.00000000000E+00  0.45593999997E+02  0.45594000000E+02  0.51100000000E-03 0.  1.
         11   -1    0    0    0    0 -0.00000000000E+00 -0.00000000000E+00 -0.45593999997E+02  0.45594000000E+02  0.51100000000E-03 0. -1.
    9900012    2    1    2    0    0  0.94546109589E+00 -0.68554529889E+00  0.16894680187E+00  0.90007994889E+02  0.90000259621E+02 0.  0.
         12    1    1    2    0    0 -0.94546109589E+00  0.68554529889E+00 -0.16894680187E+00  0.11800051112E+01  0.00000000000E+00 0. -1.
         11    1    3    3    0    0  0.84522166998E+01  0.41014845476E+01 -0.45770498762E+01  0.10450431975E+02  0.51100000000E-03 0. -1.
        -11    1    3    3    0    0  0.13379540629E+02  0.33342955034E+02  0.14310192009E+01  0.35955702942E+02  0.51100000000E-03 0.  1.
         12    1    3    3    0    0 -0.20886296233E+02 -0.38129984880E+02  0.33149774772E+01  0.43601859972E+02  0.00000000000E+00 0. -1.
</event>
<event>
 7    1  0.2284751E-015  0.9000776E+02  0.7816164E-02  0.1186339E+00
        -11   -1    0    0    0    0  0.00000000000E+00  0.00000000000E+00  0.45593999997E+02  0.45594000000E+02  0.51100000000E-03 0. -1.
         11   -1    0    0    0    0 -0.00000000000E+00 -0.00000000000E+00 -0.45593999997E+02  0.45594000000E+02  0.51100000000E-03 0.  1.
    9900012    2    1    2    0    0  0.69074457059E+00  0.94598269182E+00 -0.14476460364E+00  0.90007759302E+02  0.90000020925E+02 0.  0.
         12    1    1    2    0    0 -0.69074457059E+00 -0.94598269182E+00  0.14476460364E+00  0.11802406981E+01  0.00000000000E+00 0. -1.
         11    1    3    3    0    0  0.96100132863E+00  0.90353167273E+01  0.39690471074E+01  0.99153319217E+01  0.51100000000E-03 0. -1.
        -11    1    3    3    0    0 -0.27996369939E+02  0.19441371930E+02 -0.18099421912E+02  0.38592133215E+02  0.51100000000E-03 0.  1.
         12    1    3    3    0    0  0.27726113181E+02 -0.27530705966E+02  0.13985610201E+02  0.41500294165E+02  0.00000000000E+00 0. -1.
</event>
<event>
 7    1  0.2284751E-015  0.9000772E+02  0.7816164E-02  0.1186339E+00
        -11   -1    0    0    0    0  0.00000000000E+00  0.00000000000E+00  0.45593999997E+02  0.45594000000E+02  0.51100000000E-03 0.  1.
         11   -1    0    0    0    0 -0.00000000000E+00 -0.00000000000E+00 -0.45593999997E+02  0.45594000000E+02  0.51100000000E-03 0. -1.
    9900012    2    1    2    0    0  0.49473774446E+00  0.78480225584E+00  0.72963833698E+00  0.90007723711E+02  0.89999984864E+02 0.  0.
         12    1    1    2    0    0 -0.49473774446E+00 -0.78480225584E+00 -0.72963833698E+00  0.11802762894E+01  0.00000000000E+00 0. -1.
         11    1    3    3    0    0 -0.30854295317E+01  0.10239244776E+02 -0.11885486934E+02  0.15988333525E+02  0.51100000000E-03 0.  1.
        -11    1    3    3    0    0  0.24351247131E+02  0.11209483795E+01 -0.21633268772E+02  0.32591994111E+02  0.51100000000E-03 0. -1.
        -12    1    3    3    0    0 -0.20771079855E+02 -0.10575390900E+02  0.34248394043E+02  0.41427396075E+02  0.00000000000E+00 0.  1.
</event>
<event>
 7    1  0.2284751E-015  0.9000779E+02  0.7816164E-02  0.1186339E+00
        -11   -1    0    0    0    0  0.00000000000E+00  0.00000000000E+00  0.45593999997E+02  0.45594000000E+02  0.51100000000E-03 0. -1.
         11   -1    0    0    0    0 -0.00000000000E+00 -0.00000000000E+00 -0.45593999997E+02  0.45594000000E+02  0.51100000000E-03 0.  1.
    9900012    2    1    2    0    0 -0.45261193717E+00  0.91492453241E+00 -0.59242000026E+00  0.90007785646E+02  0.90000047616E+02 0.  0.
         12    1    1    2    0    0  0.45261193717E+00 -0.91492453241E+00  0.59242000026E+00  0.11802143544E+01  0.00000000000E+00 0. -1.
         11    1    3    3    0    0  0.35371884569E+02  0.38833961417E+01  0.60150008199E+01  0.36089211943E+02  0.51100000000E-03 0. -1.
        -11    1    3    3    0    0  0.59122132142E+01 -0.35860308968E+01  0.71712227578E+01  0.99619435245E+01  0.51100000000E-03 0.  1.
        -12    1    3    3    0    0 -0.41736709720E+02  0.61755928756E+00 -0.13778643578E+02  0.43956630178E+02  0.00000000000E+00 0.  1.
</event>
<event>
 7    1  0.2284751E-015  0.9000767E+02  0.7816164E-02  0.1186339E+00
        -11   -1    0    0    0    0  0.00000000000E+00  0.00000000000E+00  0.45593999997E+02  0.45594000000E+02  0.51100000000E-03 0.  1.
         11   -1    0    0    0    0 -0.00000000000E+00 -0.00000000000E+00 -0.45593999997E+02  0.45594000000E+02  0.51100000000E-03 0. -1.
    9900012    2    1    2    0    0  0.19200902149E+00  0.11591558168E+01 -0.11257481311E+00  0.90007668368E+02  0.89999928791E+02 0.  0.
         12    1    1    2    0    0 -0.19200902149E+00 -0.11591558168E+01  0.11257481311E+00  0.11803316316E+01  0.00000000000E+00 0. -1.
         11    1    3    3    0    0 -0.24618887771E+01 -0.74346516073E+01 -0.35129042669E+01  0.85834397256E+01  0.51100000000E-03 0. -1.
        -11    1    3    3    0    0  0.12876947223E+02 -0.96067104117E+01  0.37864018715E+02  0.41131357481E+02  0.51100000000E-03 0.  1.
         12    1    3    3    0    0 -0.10223049425E+02  0.18200517836E+02 -0.34463689261E+02  0.40292871162E+02  0.00000000000E+00 0. -1.
</event>
<event>
 7    1  0.2284751E-015  0.9000774E+02  0.7816164E-02  0.1186339E+00
        -11   -1    0    0    0    0  0.00000000000E+00  0.00000000000E+00  0.45593999997E+02  0.45594000000E+02  0.51100000000E-03 0.  1.
         11   -1    0    0    0    0 -0.00000000000E+00 -0.00000000000E+00 -0.45593999997E+02  0.45594000000E+02  0.51100000000E-03 0. -1.
    9900012    2    1    2    0    0  0.90042057720E+00  0.24577684017E+00  0.72239387118E+00  0.90007738853E+02  0.90000000205E+02 0.  0.
         12    1    1    2    0    0 -0.90042057720E+00 -0.24577684017E+00 -0.72239387118E+00  0.11802611474E+01  0.00000000000E+00 0. -1.
         11    1    3    3    0    0 -0.44212866884E+01  0.12974406779E+02 -0.34446456421E+02  0.37073459071E+02  0.51100000000E-03 0. -1.
        -11    1    3    3    0    0  0.10467557175E+02 -0.20933707741E+01 -0.44694045769E+01  0.11572706337E+02  0.51100000000E-03 0.  1.
        -12    1    3    3    0    0 -0.51458499098E+01 -0.10635259165E+02  0.39638254869E+02  0.41361573445E+02  0.00000000000E+00 0.  1.
</event>
<event>
 7    1  0.2284751E-015  0.9000762E+02  0.7816164E-02  0.1186339E+00
        -11   -1    0    0    0    0  0.00000000000E+00  0.00000000000E+00  0.45593999997E+02  0.45594000000E+02  0.51100000000E-03 0.  1.
         11   -1    0    0    0    0 -0.00000000000E+00 -0.00000000000E+00 -0.45593999997E+02  0.45594000000E+02  0.51100000000E-03 0. -1.
    9900012    2    1    2    0    0 -0.99450471908E+00 -0.60149248200E+00  0.20605896156E+00  0.90007621612E+02  0.89999881418E+02 0.  0.
         12    1    1    2    0    0  0.99450471908E+00  0.60149248200E+00 -0.20605896156E+00  0.11803783876E+01  0.00000000000E+00 0. -1.
         11    1    3    3    0    0 -0.65762976405E+01  0.15581895592E+02  0.34423747765E+01  0.17259580101E+02  0.51100000000E-03 0. -1.
        -11    1    3    3    0    0 -0.32627335026E+02 -0.67347429522E+01 -0.13133778238E+01  0.33341036503E+02  0.51100000000E-03 0.  1.
        -12    1    3    3    0    0  0.38209127948E+02 -0.94486451222E+01 -0.19229379911E+01  0.39407005008E+02  0.00000000000E+00 0.  1.
</event>
<event>
 7    1  0.2284751E-015  0.9000760E+02  0.7816164E-02  0.1186339E+00
        -11   -1    0    0    0    0  0.00000000000E+00  0.00000000000E+00  0.45593999997E+02  0.45594000000E+02  0.51100000000E-03 0. -1.
         11   -1    0    0    0    0 -0.00000000000E+00 -0.00000000000E+00 -0.45593999997E+02  0.45594000000E+02  0.51100000000E-03 0.  1.
    9900012    2    1    2    0    0 -0.10362955413E+01 -0.68213189732E-02 -0.56514320311E+00  0.90007600991E+02  0.89999860524E+02 0.  0.
         12    1    1    2    0    0  0.10362955413E+01  0.68213189732E-02  0.56514320311E+00  0.11803990085E+01  0.00000000000E+00 0. -1.
         11    1    3    3    0    0 -0.43135608473E+01 -0.37100205020E+02 -0.77926627342E+00  0.37358255793E+02  0.51100000000E-03 0. -1.
        -11    1    3    3    0    0  0.57643044346E+01 -0.44909210754E+01  0.73724371023E+01  0.10380193004E+02  0.51100000000E-03 0.  1.
        -12    1    3    3    0    0 -0.24870391285E+01  0.41584304777E+02 -0.71583140320E+01  0.42269152194E+02  0.00000000000E+00 0.  1.
</event>
<event>
 7    1  0.2284751E-015  0.9000774E+02  0.7816164E-02  0.1186339E+00
        -11   -1    0    0    0    0  0.00000000000E+00  0.00000000000E+00  0.45593999997E+02  0.45594000000E+02  0.51100000000E-03 0. -1.
         11   -1    0    0    0    0 -0.00000000000E+00 -0.00000000000E+00 -0.45593999997E+02  0.45594000000E+02  0.51100000000E-03 0.  1.
    9900012    2    1    2    0    0 -0.28451005705E+00  0.11452485544E+01 -0.21648924618E-01  0.90007742020E+02  0.90000003414E+02 0.  0.
         12    1    1    2    0    0  0.28451005705E+00 -0.11452485544E+01  0.21648924618E-01  0.11802579802E+01  0.00000000000E+00 0. -1.
         11    1    3    3    0    0  0.32040326240E+02  0.96138835323E+01  0.12973209757E+02  0.35879150405E+02  0.51100000000E-03 0. -1.
        -11    1    3    3    0    0  0.91055189015E+01 -0.37160248490E+01  0.15640694058E+01  0.99581940386E+01  0.51100000000E-03 0.  1.
        -12    1    3    3    0    0 -0.41430355199E+02 -0.47526101288E+01 -0.14558928087E+02  0.44170397576E+02  0.00000000000E+00 0.  1.
</event>
<event>
 7    1  0.2284751E-015  0.9000841E+02  0.7816164E-02  0.1186338E+00
        -11   -1    0    0    0    0  0.00000000000E+00  0.00000000000E+00  0.45593999997E+02  0.45594000000E+02  0.51100000000E-03 0.  1.
         11   -1    0    0    0    0 -0.00000000000E+00 -0.00000000000E+00 -0.45593999997E+02  0.45594000000E+02  0.51100000000E-03 0. -1.
    9900012    2    1    2    0    0 -0.40905538631E+00 -0.30971972196E+00  0.10621539339E+01  0.90008413804E+02  0.90000684063E+02 0.  0.
         12    1    1    2    0    0  0.40905538631E+00  0.30971972196E+00 -0.10621539339E+01  0.11795861963E+01  0.00000000000E+00 0. -1.
         11    1    3    3    0    0  0.68117729878E+01 -0.11737100456E+01  0.47118371886E+01  0.83653605099E+01  0.51100000000E-03 0. -1.
        -11    1    3    3    0    0 -0.19504594238E+02  0.11934492355E+02  0.33740826867E+02  0.40759105757E+02  0.51100000000E-03 0.  1.
         12    1    3    3    0    0  0.12283765864E+02 -0.11070502031E+02 -0.37390510122E+02  0.40883947537E+02  0.00000000000E+00 0. -1.
</event>
<event>
 7    1  0.2284751E-015  0.9000773E+02  0.7816164E-02  0.1186339E+00
        -11   -1    0    0    0    0  0.00000000000E+00  0.00000000000E+00  0.45593999997E+02  0.45594000000E+02  0.51100000000E-03 0.  1.
         11   -1    0    0    0    0 -0.00000000000E+00 -0.00000000000E+00 -0.45593999997E+02  0.45594000000E+02  0.51100000000E-03 0. -1.
    9900012    2    1    2    0    0 -0.38185978724E+00  0.82936114827E+00  0.74791439236E+00  0.90007731916E+02  0.89999993177E+02 0.  0.
         12    1    1    2    0    0  0.38185978724E+00 -0.82936114827E+00 -0.74791439236E+00  0.11802680838E+01  0.00000000000E+00 0. -1.
         11    1    3    3    0    0 -0.28681632402E+01  0.20666541775E+02  0.37129022315E+01  0.21192403180E+02  0.51100000000E-03 0. -1.
        -11    1    3    3    0    0  0.27726562826E+02 -0.10321713393E+02  0.18018438345E+02  0.34640499046E+02  0.51100000000E-03 0.  1.
         12    1    3    3    0    0 -0.25240259373E+02 -0.95154672337E+01 -0.20983426184E+02  0.34174829690E+02  0.00000000000E+00 0. -1.
</event>
<event>
 7    1  0.2284751E-015  0.9000783E+02  0.7816164E-02  0.1186339E+00
        -11   -1    0    0    0    0  0.00000000000E+00  0.00000000000E+00  0.45593999997E+02  0.45594000000E+02  0.51100000000E-03 0.  1.
         11   -1    0    0    0    0 -0.00000000000E+00 -0.00000000000E+00 -0.45593999997E+02  0.45594000000E+02  0.51100000000E-03 0. -1.
    9900012    2    1    2    0    0  0.60401349743E+00 -0.87346918294E+00  0.51480767917E+00  0.90007827273E+02  0.90000089793E+02 0.  0.
         12    1    1    2    0    0 -0.60401349743E+00  0.87346918294E+00 -0.51480767917E+00  0.11801727268E+01  0.00000000000E+00 0. -1.
         11    1    3    3    0    0 -0.54366500824E+01  0.10747707260E+02  0.21871223314E+02  0.24968395723E+02  0.51100000000E-03 0. -1.
        -11    1    3    3    0    0  0.20877751207E+02  0.17148446611E+02 -0.14889893257E+01  0.27058581007E+02  0.51100000000E-03 0.  1.
         12    1    3    3    0    0 -0.14837087627E+02 -0.28769623053E+02 -0.19867426309E+02  0.37980850544E+02  0.00000000000E+00 0. -1.
</event>
<event>
 7    1  0.2284751E-015  0.9000775E+02  0.7816164E-02  0.1186339E+00
        -11   -1    0    0    0    0  0.00000000000E+00  0.00000000000E+00  0.45593999997E+02  0.45594000000E+02  0.51100000000E-03 0. -1.
         11   -1    0    0    0    0 -0.00000000000E+00 -0.00000000000E+00 -0.45593999997E+02  0.45594000000E+02  0.51100000000E-03 0.  1.
    9900012    2    1    2    0    0  0.52940464417E+00 -0.84534441660E+00 -0.63096831062E+00  0.90007746862E+02  0.90000008321E+02 0.  0.
         12    1    1    2    0    0 -0.52940464417E+00  0.84534441660E+00  0.63096831062E+00  0.11802531377E+01  0.00000000000E+00 0. -1.
         11    1    3    3    0    0  0.10110261021E+02  0.21901482670E+00 -0.11876516095E+01  0.10182134453E+02  0.51100000000E-03 0. -1.
        -11    1    3    3    0    0 -0.93532495031E+01  0.38670801148E+02 -0.31901116791E+01  0.39913543447E+02  0.51100000000E-03 0.  1.
         12    1    3    3    0    0 -0.22760687420E+00 -0.39735160392E+02  0.37467949780E+01  0.39912068962E+02  0.00000000000E+00 0. -1.
</event>
<event>
 7    1  0.2284751E-015  0.9000769E+02  0.7816164E-02  0.1186339E+00
        -11   -1    0    0    0    0  0.00000000000E+00  0.00000000000E+00  0.45593999997E+02  0.45594000000E+02  0.51100000000E-03 0. -1.
         11   -1    0    0    0    0 -0.00000000000E+00 -0.00000000000E+00 -0.45593999997E+02  0.45594000000E+02  0.51100000000E-03 0.  1.
    9900012    2    1    2    0    0  0.32391308351E+00 -0.11022449112E+01 -0.27069285403E+00  0.90007687266E+02  0.89999947937E+02 0.  0.
         12    1    1    2    0    0 -0.32391308351E+00  0.11022449112E+01  0.27069285403E+00  0.11803127344E+01  0.00000000000E+00 0. -1.
         11    1    3    3    0    0 -0.38402023657E+02  0.12554770487E+02 -0.51803039101E+01  0.40732950198E+02  0.51100000000E-03 0. -1.
        -11    1    3    3    0    0  0.15419566368E+01 -0.78560068286E+01 -0.60984311356E+01  0.10064061612E+02  0.51100000000E-03 0.  1.
        -12    1    3    3    0    0  0.37183980104E+02 -0.58010085700E+01  0.11008042192E+02  0.39210675455E+02  0.00000000000E+00 0.  1.
</event>
<event>
 7    1  0.2284751E-015  0.9000701E+02  0.7816164E-02  0.1186341E+00
        -11   -1    0    0    0    0  0.00000000000E+00  0.00000000000E+00  0.45593999997E+02  0.45594000000E+02  0.51100000000E-03 0. -1.
         11   -1    0    0    0    0 -0.00000000000E+00 -0.00000000000E+00 -0.45593999997E+02  0.45594000000E+02  0.51100000000E-03 0.  1.
    9900012    2    1    2    0    0  0.42678178523E+00 -0.88966615808E+00 -0.64891779674E+00  0.90007007675E+02  0.89999259373E+02 0.  0.
         12    1    1    2    0    0 -0.42678178523E+00  0.88966615808E+00  0.64891779674E+00  0.11809923251E+01  0.00000000000E+00 0. -1.
         11    1    3    3    0    0 -0.33271579291E+00 -0.47240428816E+01  0.84598766294E+01  0.96951943659E+01  0.51100000000E-03 0. -1.
        -11    1    3    3    0    0  0.78038141624E+01 -0.37248274767E+02 -0.58286849949E+01  0.38500741001E+02  0.51100000000E-03 0.  1.
         12    1    3    3    0    0 -0.70443165843E+01  0.41082651491E+02 -0.32801094312E+01  0.41811072308E+02  0.00000000000E+00 0. -1.
</event>
<event>
 7    1  0.2284751E-015  0.9000771E+02  0.7816164E-02  0.1186339E+00
        -11   -1    0    0    0    0  0.00000000000E+00  0.00000000000E+00  0.45593999997E+02  0.45594000000E+02  0.51100000000E-03 0. -1.
         11   -1    0    0    0    0 -0.00000000000E+00 -0.00000000000E+00 -0.45593999997E+02  0.45594000000E+02  0.51100000000E-03 0.  1.
    9900012    2    1    2    0    0  0.58199320460E+00  0.83559695450E+00 -0.59677488155E+00  0.90007712484E+02  0.89999973489E+02 0.  0.
         12    1    1    2    0    0 -0.58199320460E+00 -0.83559695450E+00  0.59677488155E+00  0.11802875157E+01  0.00000000000E+00 0. -1.
         11    1    3    3    0    0  0.19483139309E+02 -0.16000463734E+02  0.33273471012E+02  0.41746034908E+02  0.51100000000E-03 0. -1.
        -11    1    3    3    0    0  0.15374625564E+01  0.95222986442E+01 -0.22456345926E+01  0.99035770086E+01  0.51100000000E-03 0.  1.
        -12    1    3    3    0    0 -0.20438608661E+02  0.73137620448E+01 -0.31624611301E+02  0.38358100568E+02  0.00000000000E+00 0.  1.
</event>
<event>
 7    1  0.2284751E-015  0.9000774E+02  0.7816164E-02  0.1186339E+00
        -11   -1    0    0    0    0  0.00000000000E+00  0.00000000000E+00  0.45593999997E+02  0.45594000000E+02  0.51100000000E-03 0.  1.
         11   -1    0    0    0    0 -0.00000000000E+00 -0.00000000000E+00 -0.45593999997E+02  0.45594000000E+02  0.51100000000E-03 0. -1.
    9900012    2    1    2    0    0 -0.50740469387E-01 -0.77114671011E+00  0.89205730069E+00  0.90007742371E+02  0.90000003770E+02 0.  0.
         12    1    1    2    0    0  0.50740469387E-01  0.77114671011E+00 -0.89205730069E+00  0.11802576293E+01  0.00000000000E+00 0. -1.
         11    1    3    3    0    0 -0.21287748601E+01 -0.50082612846E+01  0.80897318209E+01  0.97497756228E+01  0.51100000000E-03 0. -1.
        -11    1    3    3    0    0  0.19888640997E+02  0.28431399809E+02  0.19729000353E+02  0.39914107669E+02  0.51100000000E-03 0.  1.
         12    1    3    3    0    0 -0.17810606607E+02 -0.24194285234E+02 -0.26926674873E+02  0.40343859079E+02  0.00000000000E+00 0. -1.
</event>
<event>
 7    1  0.2284751E-015  0.9000772E+02  0.7816164E-02  0.1186339E+00
        -11   -1    0    0    0    0  0.00000000000E+00  0.00000000000E+00  0.45593999997E+02  0.45594000000E+02  0.51100000000E-03 0.  1.
         11   -1    0    0    0    0 -0.00000000000E+00 -0.00000000000E+00 -0.45593999997E+02  0.45594000000E+02  0.51100000000E-03 0. -1.
    9900012    2    1    2    0    0  0.10467452146E+01 -0.48564079175E+00  0.24805501150E+00  0.90007722994E+02  0.89999984137E+02 0.  0.
         12    1    1    2    0    0 -0.10467452146E+01  0.48564079175E+00 -0.24805501150E+00  0.11802770063E+01  0.00000000000E+00 0. -1.
         11    1    3    3    0    0 -0.76171873863E+01  0.21567065570E+01 -0.92638588664E+01  0.12185729695E+02  0.51100000000E-03 0. -1.
        -11    1    3    3    0    0  0.26769989985E+01  0.15787835020E+02  0.39213997232E+02  0.42357521616E+02  0.51100000000E-03 0.  1.
         12    1    3    3    0    0  0.59869336024E+01 -0.18430182369E+02 -0.29702083354E+02  0.35464471682E+02  0.00000000000E+00 0. -1.
</event>
<event>
 7    1  0.2284751E-015  0.9000774E+02  0.7816164E-02  0.1186339E+00
        -11   -1    0    0    0    0  0.00000000000E+00  0.00000000000E+00  0.45593999997E+02  0.45594000000E+02  0.51100000000E-03 0.  1.
         11   -1    0    0    0    0 -0.00000000000E+00 -0.00000000000E+00 -0.45593999997E+02  0.45594000000E+02  0.51100000000E-03 0. -1.
    9900012    2    1    2    0    0  0.13755526883E+00  0.10274590598E+01  0.56427850666E+00  0.90007744178E+02  0.90000005601E+02 0.  0.
         12    1    1    2    0    0 -0.13755526883E+00 -0.10274590598E+01 -0.56427850666E+00  0.11802558217E+01  0.00000000000E+00 0. -1.
         11    1    3    3    0    0 -0.87080021483E+01  0.51470641193E+01  0.77777667227E+00  0.10145270192E+02  0.51100000000E-03 0. -1.
        -11    1    3    3    0    0 -0.16456554269E+01 -0.10561481281E+02  0.38125395244E+02  0.39595439528E+02  0.51100000000E-03 0.  1.
         12    1    3    3    0    0  0.10491212844E+02  0.64418762214E+01 -0.38338893409E+02  0.40267034458E+02  0.00000000000E+00 0. -1.
</event>
<event>
 7    1  0.2284751E-015  0.9000788E+02  0.7816164E-02  0.1186339E+00
        -11   -1    0    0    0    0  0.00000000000E+00  0.00000000000E+00  0.45593999997E+02  0.45594000000E+02  0.51100000000E-03 0. -1.
         11   -1    0    0    0    0 -0.00000000000E+00 -0.00000000000E+00 -0.45593999997E+02  0.45594000000E+02  0.51100000000E-03 0.  1.
    9900012    2    1    2    0    0 -0.10200378979E+01 -0.59324320600E+00 -0.16358281310E-01  0.90007880342E+02  0.90000143562E+02 0.  0.
         12    1    1    2    0    0  0.10200378979E+01  0.59324320600E+00  0.16358281310E-01  0.11801196583E+01  0.00000000000E+00 0. -1.
         11    1    3    3    0    0 -0.65078250149E+01  0.30138874631E+01  0.83612522568E+01  0.11015708948E+02  0.51100000000E-03 0. -1.
        -11    1    3    3    0    0 -0.14053695785E+02 -0.80251797710E+01 -0.39098620445E+02  0.42315623552E+02  0.51100000000E-03 0.  1.
         12    1    3    3    0    0  0.19541482902E+02  0.44180491018E+01  0.30721009907E+02  0.36676547842E+02  0.00000000000E+00 0. -1.
</event>
<event>
 7    1  0.2284751E-015  0.9000773E+02  0.7816164E-02  0.1186339E+00
        -11   -1    0    0    0    0  0.00000000000E+00  0.00000000000E+00  0.45593999997E+02  0.45594000000E+02  0.51100000000E-03 0.  1.
         11   -1    0    0    0    0 -0.00000000000E+00 -0.00000000000E+00 -0.45593999997E+02  0.45594000000E+02  0.51100000000E-03 0. -1.
    9900012    2    1    2    0    0  0.86437575699E+00  0.77046197730E+00  0.22866761716E+00  0.90007726308E+02  0.89999987496E+02 0.  0.
         12    1    1    2    0    0 -0.86437575699E+00 -0.77046197730E+00 -0.22866761716E+00  0.11802736915E+01  0.00000000000E+00 0. -1.
         11    1    3    3    0    0 -0.12836663089E+02 -0.24359213807E+02 -0.23098115685E+02  0.35939868740E+02  0.51100000000E-03 0. -1.
        -11    1    3    3    0    0 -0.72999557659E+01 -0.71781152110E+01  0.45668246633E+01  0.11210289021E+02  0.51100000000E-03 0.  1.
        -12    1    3    3    0    0  0.21000994612E+02  0.32307790996E+02  0.18759958639E+02  0.42857568548E+02  0.00000000000E+00 0.  1.
</event>
<event>
 7    1  0.2284751E-015  0.9000774E+02  0.7816164E-02  0.1186339E+00
        -11   -1    0    0    0    0  0.00000000000E+00  0.00000000000E+00  0.45593999997E+02  0.45594000000E+02  0.51100000000E-03 0.  1.
         11   -1    0    0    0    0 -0.00000000000E+00 -0.00000000000E+00 -0.45593999997E+02  0.45594000000E+02  0.51100000000E-03 0. -1.
    9900012    2    1    2    0    0  0.11272922389E+00 -0.52457038542E+00  0.10512482053E+01  0.90007743775E+02  0.90000005193E+02 0.  0.
         12    1    1    2    0    0 -0.11272922389E+00  0.52457038542E+00 -0.10512482053E+01  0.11802562249E+01  0.00000000000E+00 0. -1.
         11    1    3    3    0    0  0.61154101182E+01  0.91344561539E+01 -0.19409166770E+02  0.22305880057E+02  0.51100000000E-03 0. -1.
        -11    1    3    3    0    0  0.19550504480E+02 -0.25820605835E+02  0.23830040816E+01  0.32474676593E+02  0.51100000000E-03 0.  1.
         12    1    3    3    0    0 -0.25553185375E+02  0.16161579296E+02  0.18077410894E+02  0.35227187125E+02  0.00000000000E+00 0. -1.
</event>
<event>
 7    1  0.2284751E-015  0.9000768E+02  0.7816164E-02  0.1186339E+00
        -11   -1    0    0    0    0  0.00000000000E+00  0.00000000000E+00  0.45593999997E+02  0.45594000000E+02  0.51100000000E-03 0.  1.
         11   -1    0    0    0    0 -0.00000000000E+00 -0.00000000000E+00 -0.45593999997E+02  0.45594000000E+02  0.51100000000E-03 0. -1.
    9900012    2    1    2    0    0  0.57725750251E+00 -0.62121122534E+00  0.82099627152E+00  0.90007676109E+02  0.89999936633E+02 0.  0.
         12    1    1    2    0    0 -0.57725750251E+00  0.62121122534E+00 -0.82099627152E+00  0.11803238914E+01  0.00000000000E+00 0. -1.
         11    1    3    3    0    0 -0.14158826726E+02  0.12661262373E+02 -0.16551078414E+02  0.25193613001E+02  0.51100000000E-03 0. -1.
        -11    1    3    3    0    0  0.63468260940E+01  0.79102623713E+01 -0.19203974899E+02  0.21717437797E+02  0.51100000000E-03 0.  1.
        -12    1    3    3    0    0  0.83892581346E+01 -0.21192735970E+02  0.36576049585E+02  0.43096625311E+02  0.00000000000E+00 0.  1.
</event>
<event>
 7    1  0.2284751E-015  0.9000771E+02  0.7816164E-02  0.1186339E+00
        -11   -1    0    0    0    0  0.00000000000E+00  0.00000000000E+00  0.45593999997E+02  0.45594000000E+02  0.51100000000E-03 0. -1.
         11   -1    0    0    0    0 -0.00000000000E+00 -0.00000000000E+00 -0.45593999997E+02  0.45594000000E+02  0.51100000000E-03 0.  1.
    9900012    2    1    2    0    0  0.89993540100E+00 -0.76199086603E+00 -0.50810308672E-01  0.90007705336E+02  0.89999966247E+02 0.  0.
         12    1    1    2    0    0 -0.89993540100E+00  0.76199086603E+00  0.50810308672E-01  0.11802946638E+01  0.00000000000E+00 0. -1.
         11    1    3    3    0    0  0.34880612926E+01 -0.86391292215E+01  0.35211861191E+01  0.99599135153E+01  0.51100000000E-03 0. -1.
        -11    1    3    3    0    0  0.33795442018E+02 -0.15016070176E+02 -0.16704968105E+01  0.37018979248E+02  0.51100000000E-03 0.  1.
         12    1    3    3    0    0 -0.36383567909E+02  0.22893208531E+02 -0.19014996172E+01  0.43028812573E+02  0.00000000000E+00 0. -1.
</event>
<event>
 7    1  0.2284751E-015  0.9000760E+02  0.7816164E-02  0.1186339E+00
        -11   -1    0    0    0    0  0.00000000000E+00  0.00000000000E+00  0.45593999997E+02  0.45594000000E+02  0.51100000000E-03 0.  1.
         11   -1    0    0    0    0 -0.00000000000E+00 -0.00000000000E+00 -0.45593999997E+02  0.45594000000E+02  0.51100000000E-03 0. -1.
    9900012    2    1    2    0    0 -0.21631187452E+00  0.99263738669E+00  0.60102210188E+00  0.90007598638E+02  0.89999858140E+02 0.  0.
         12    1    1    2    0    0  0.21631187452E+00 -0.99263738669E+00 -0.60102210188E+00  0.11804013620E+01  0.00000000000E+00 0. -1.
         11    1    3    3    0    0  0.57205080996E+01 -0.65903597743E+01  0.42427642907E+01  0.97035098784E+01  0.51100000000E-03 0. -1.
        -11    1    3    3    0    0  0.19959703939E+02 -0.77609414947E+01  0.28903601734E+02  0.35972770086E+02  0.51100000000E-03 0.  1.
         12    1    3    3    0    0 -0.25896523913E+02  0.15343938656E+02 -0.32545343923E+02  0.44331318673E+02  0.00000000000E+00 0. -1.
</event>
<event>
 7    1  0.2284751E-015  0.9000775E+02  0.7816164E-02  0.1186339E+00
        -11   -1    0    0    0    0  0.00000000000E+00  0.00000000000E+00  0.45593999997E+02  0.45594000000E+02  0.51100000000E-03 0.  1.
         11   -1    0    0    0    0 -0.00000000000E+00 -0.00000000000E+00 -0.45593999997E+02  0.45594000000E+02  0.51100000000E-03 0. -1.
    9900012    2    1    2    0    0 -0.96883890546E+00  0.35127519843E+00  0.57526985799E+00  0.90007754899E+02  0.90000016463E+02 0.  0.
         12    1    1    2    0    0  0.96883890546E+00 -0.35127519843E+00 -0.57526985799E+00  0.11802451014E+01  0.00000000000E+00 0. -1.
         11    1    3    3    0    0  0.24972749847E+02 -0.48862540309E+01 -0.25848720706E+02  0.36272166681E+02  0.51100000000E-03 0. -1.
        -11    1    3    3    0    0  0.85036124298E+01  0.15210686535E+01 -0.20642417171E+01  0.88817885773E+01  0.51100000000E-03 0.  1.
        -12    1    3    3    0    0 -0.34445201182E+02  0.37164605759E+01  0.28488232281E+02  0.44853799640E+02  0.00000000000E+00 0.  1.
</event>
<event>
 7    1  0.2284751E-015  0.9000777E+02  0.7816164E-02  0.1186339E+00
        -11   -1    0    0    0    0  0.00000000000E+00  0.00000000000E+00  0.45593999997E+02  0.45594000000E+02  0.51100000000E-03 0.  1.
         11   -1    0    0    0    0 -0.00000000000E+00 -0.00000000000E+00 -0.45593999997E+02  0.45594000000E+02  0.51100000000E-03 0. -1.
    9900012    2    1    2    0    0  0.48466584732E+00 -0.45596356173E-01  0.10751554416E+01  0.90007771533E+02  0.90000033317E+02 0.  0.
         12    1    1    2    0    0 -0.48466584732E+00  0.45596356173E-01 -0.10751554416E+01  0.11802284672E+01  0.00000000000E+00 0. -1.
         11    1    3    3    0    0 -0.12822909499E+01 -0.11989389775E+02 -0.36789752106E+02  0.38715314768E+02  0.51100000000E-03 0. -1.
        -11    1    3    3    0    0 -0.69409970399E+01 -0.51199604993E+01 -0.25574598573E+00  0.86288377950E+01  0.51100000000E-03 0.  1.
        -12    1    3    3    0    0  0.87079538371E+01  0.17063753918E+02  0.38120653534E+02  0.42663618970E+02  0.00000000000E+00 0.  1.
</event>
<event>
 7    1  0.3092969E-015  0.9000773E+02  0.7816164E-02  0.1186339E+00
        -11   -1    0    0    0    0  0.00000000000E+00  0.00000000000E+00  0.45593999997E+02  0.45594000000E+02  0.51100000000E-03 0. -1.
         11   -1    0    0    0    0 -0.00000000000E+00 -0.00000000000E+00 -0.45593999997E+02  0.45594000000E+02  0.51100000000E-03 0.  1.
    9900012    2    1    2    0    0  0.11387950322E+01  0.99921583160E-01 -0.29359340136E+00  0.90007730737E+02  0.89999991983E+02 0.  0.
         12    1    1    2    0    0 -0.11387950322E+01 -0.99921583160E-01  0.29359340136E+00  0.11802692631E+01  0.00000000000E+00 0. -1.
         11    1    3    3    0    0 -0.28346760162E+02 -0.22656417231E+02 -0.15371784570E+02  0.39409945630E+02  0.51100000000E-03 0. -1.
        -11    1    3    3    0    0  0.73247725675E+01 -0.55380491240E+01 -0.38746768444E+01  0.99667147132E+01  0.51100000000E-03 0.  1.
        -12    1    3    3    0    0  0.22160782627E+02  0.28294387938E+02  0.18952868013E+02  0.40631070394E+02  0.00000000000E+00 0.  1.
</event>
<event>
 7    1  0.2284751E-015  0.9000773E+02  0.7816164E-02  0.1186339E+00
        -11   -1    0    0    0    0  0.00000000000E+00  0.00000000000E+00  0.45593999997E+02  0.45594000000E+02  0.51100000000E-03 0. -1.
         11   -1    0    0    0    0 -0.00000000000E+00 -0.00000000000E+00 -0.45593999997E+02  0.45594000000E+02  0.51100000000E-03 0.  1.
    9900012    2    1    2    0    0  0.11553058295E+01 -0.50731214282E-01  0.23609963749E+00  0.90007725348E+02  0.89999986522E+02 0.  0.
         12    1    1    2    0    0 -0.11553058295E+01  0.50731214282E-01 -0.23609963749E+00  0.11802746522E+01  0.00000000000E+00 0. -1.
         11    1    3    3    0    0  0.10965181915E+02 -0.19504880863E+02 -0.74101327731E+00  0.22388047991E+02  0.51100000000E-03 0. -1.
        -11    1    3    3    0    0 -0.99182534663E+01 -0.56280328217E+01 -0.27440635076E+02  0.29715904141E+02  0.51100000000E-03 0.  1.
        -12    1    3    3    0    0  0.10837738062E+00  0.25082182470E+02  0.28417747991E+02  0.37903773216E+02  0.00000000000E+00 0.  1.
</event>
<event>
 7    1  0.2320357E-015  0.9000769E+02  0.7816164E-02  0.1186339E+00
        -11   -1    0    0    0    0  0.00000000000E+00  0.00000000000E+00  0.45593999997E+02  0.45594000000E+02  0.51100000000E-03 0.  1.
         11   -1    0    0    0    0 -0.00000000000E+00 -0.00000000000E+00 -0.45593999997E+02  0.45594000000E+02  0.51100000000E-03 0. -1.
    9900012    2    1    2    0    0  0.68239141208E+00 -0.39845859284E+00  0.87675506316E+00  0.90007692104E+02  0.89999952839E+02 0.  0.
         12    1    1    2    0    0 -0.68239141208E+00  0.39845859284E+00 -0.87675506316E+00  0.11803078964E+01  0.00000000000E+00 0. -1.
         11    1    3    3    0    0  0.64018879790E+01 -0.32837963864E+02 -0.21103376076E+02  0.39555891122E+02  0.51100000000E-03 0. -1.
        -11    1    3    3    0    0  0.38132984609E+01 -0.44103441934E+01  0.80077417520E+01  0.99053677005E+01  0.51100000000E-03 0.  1.
        -12    1    3    3    0    0 -0.95327950278E+01  0.36849849464E+02  0.13972389387E+02  0.40546433281E+02  0.00000000000E+00 0.  1.
</event>
<event>
 7    1  0.2284751E-015  0.9000771E+02  0.7816164E-02  0.1186339E+00
        -11   -1    0    0    0    0  0.00000000000E+00  0.00000000000E+00  0.45593999997E+02  0.45594000000E+02  0.51100000000E-03 0. -1.
         11   -1    0    0    0    0 -0.00000000000E+00 -0.00000000000E+00 -0.45593999997E+02  0.45594000000E+02  0.51100000000E-03 0.  1.
    9900012    2    1    2    0    0  0.10106563034E+01  0.33613721681E+00 -0.50859356826E+00  0.90007711133E+02  0.89999972120E+02 0.  0.
         12    1    1    2    0    0 -0.10106563034E+01 -0.33613721681E+00  0.50859356826E+00  0.11802888671E+01  0.00000000000E+00 0. -1.
         11    1    3    3    0    0 -0.88663401185E+01  0.33928373091E+02  0.19503215976E+01  0.35121933920E+02  0.51100000000E-03 0. -1.
        -11    1    3    3    0    0  0.23605740217E+01  0.89012309277E+01  0.58913779487E+01  0.10932179844E+02  0.51100000000E-03 0.  1.
        -12    1    3    3    0    0  0.75164224002E+01 -0.42493466802E+02 -0.83502931146E+01  0.43953597369E+02  0.00000000000E+00 0.  1.
</event>
<event>
 7    1  0.2284751E-015  0.9000782E+02  0.7816164E-02  0.1186339E+00
        -11   -1    0    0    0    0  0.00000000000E+00  0.00000000000E+00  0.45593999997E+02  0.45594000000E+02  0.51100000000E-03 0.  1.
         11   -1    0    0    0    0 -0.00000000000E+00 -0.00000000000E+00 -0.45593999997E+02  0.45594000000E+02  0.51100000000E-03 0. -1.
    9900012    2    1    2    0    0  0.39333770650E+00  0.94048268923E+00  0.59464139575E+00  0.90007821781E+02  0.90000084228E+02 0.  0.
         12    1    1    2    0    0 -0.39333770650E+00 -0.94048268923E+00 -0.59464139575E+00  0.11801782194E+01  0.00000000000E+00 0. -1.
         11    1    3    3    0    0  0.26275122797E+02  0.24162084682E+02  0.15152564957E+02  0.38778713738E+02  0.51100000000E-03 0. -1.
        -11    1    3    3    0    0  0.82979929286E+01 -0.53968545592E+01  0.33385209800E+00  0.99042507673E+01  0.51100000000E-03 0.  1.
        -12    1    3    3    0    0 -0.34179778019E+02 -0.17824747433E+02 -0.14891775659E+02  0.41324857275E+02  0.00000000000E+00 0.  1.
</event>
<event>
 7    1  0.2284751E-015  0.9000779E+02  0.7816164E-02  0.1186339E+00
        -11   -1    0    0    0    0  0.00000000000E+00  0.00000000000E+00  0.45593999997E+02  0.45594000000E+02  0.51100000000E-03 0.  1.
         11   -1    0    0    0    0 -0.00000000000E+00 -0.00000000000E+00 -0.45593999997E+02  0.45594000000E+02  0.51100000000E-03 0. -1.
    9900012    2    1    2    0    0 -0.83819623935E+00  0.41867365031E+00 -0.71765832672E+00  0.90007790682E+02  0.90000052719E+02 0.  0.
         12    1    1    2    0    0  0.83819623935E+00 -0.41867365031E+00  0.71765832672E+00  0.11802093183E+01  0.00000000000E+00 0. -1.
         11    1    3    3    0    0  0.18070650153E+02  0.26540419425E+02 -0.23698199401E+02  0.39906727695E+02  0.51100000000E-03 0. -1.
        -11    1    3    3    0    0 -0.10043949121E+02  0.18241583180E+01 -0.32997415384E+01  0.10728315898E+02  0.51100000000E-03 0.  1.
        -12    1    3    3    0    0 -0.88648972707E+01 -0.27945904093E+02  0.26280282612E+02  0.39372747089E+02  0.00000000000E+00 0.  1.
</event>
<event>
 7    1  0.2284751E-015  0.9000775E+02  0.7816164E-02  0.1186339E+00
        -11   -1    0    0    0    0  0.00000000000E+00  0.00000000000E+00  0.45593999997E+02  0.45594000000E+02  0.51100000000E-03 0.  1.
         11   -1    0    0    0    0 -0.00000000000E+00 -0.00000000000E+00 -0.45593999997E+02  0.45594000000E+02  0.51100000000E-03 0. -1.
    9900012    2    1    2    0    0  0.20816661929E+00 -0.11091030334E+01  0.34575266045E+00  0.90007750966E+02  0.90000012479E+02 0.  0.
         12    1    1    2    0    0 -0.20816661929E+00  0.11091030334E+01 -0.34575266045E+00  0.11802490340E+01  0.00000000000E+00 0. -1.
         11    1    3    3    0    0 -0.46208576418E+01  0.34615202599E+02  0.82704685423E+01  0.35888232424E+02  0.51100000000E-03 0. -1.
        -11    1    3    3    0    0  0.64322179579E+01  0.67191703593E+01  0.38143891410E+01  0.10053369731E+02  0.51100000000E-03 0.  1.
        -12    1    3    3    0    0 -0.16031936968E+01 -0.42443475992E+02 -0.11739105023E+02  0.44066148811E+02  0.00000000000E+00 0.  1.
</event>
<event>
 7    1  0.2284751E-015  0.9000786E+02  0.7816164E-02  0.1186339E+00
        -11   -1    0    0    0    0  0.00000000000E+00  0.00000000000E+00  0.45593999997E+02  0.45594000000E+02  0.51100000000E-03 0. -1.
         11   -1    0    0    0    0 -0.00000000000E+00 -0.00000000000E+00 -0.45593999997E+02  0.45594000000E+02  0.51100000000E-03 0.  1.
    9900012    2    1    2    0    0  0.10291707356E+01  0.77911336797E-01  0.57223862359E+00  0.90007864575E+02  0.90000127587E+02 0.  0.
         12    1    1    2    0    0 -0.10291707356E+01 -0.77911336797E-01 -0.57223862359E+00  0.11801354252E+01  0.00000000000E+00 0. -1.
         11    1    3    3    0    0 -0.41198723065E+00  0.81405607361E+01  0.70460255908E+00  0.81813768770E+01  0.51100000000E-03 0. -1.
        -11    1    3    3    0    0 -0.10373091549E+02  0.71684612559E+01 -0.37618102358E+02  0.39675048713E+02  0.51100000000E-03 0.  1.
         12    1    3    3    0    0  0.11814249515E+02 -0.15231110655E+02  0.37485738423E+02  0.42151438985E+02  0.00000000000E+00 0. -1.
</event>
<event>
 7    1  0.2284751E-015  0.9000761E+02  0.7816164E-02  0.1186339E+00
        -11   -1    0    0    0    0  0.00000000000E+00  0.00000000000E+00  0.45593999997E+02  0.45594000000E+02  0.51100000000E-03 0.  1.
         11   -1    0    0    0    0 -0.00000000000E+00 -0.00000000000E+00 -0.45593999997E+02  0.45594000000E+02  0.51100000000E-03 0. -1.
    9900012    2    1    2    0    0  0.27084031290E+00 -0.62407064212E+00  0.96462315016E+00  0.90007611732E+02  0.89999871407E+02 0.  0.
         12    1    1    2    0    0 -0.27084031290E+00  0.62407064212E+00 -0.96462315016E+00  0.11803882680E+01  0.00000000000E+00 0. -1.
         11    1    3    3    0    0  0.29847459176E+02  0.26707029200E+02 -0.12022349449E+02  0.41817139004E+02  0.51100000000E-03 0. -1.
        -11    1    3    3    0    0 -0.38425068028E+01  0.48806361129E+00  0.93490636403E+01  0.10119686548E+02  0.51100000000E-03 0.  1.
        -12    1    3    3    0    0 -0.25734112060E+02 -0.27819163453E+02  0.36379089590E+01  0.38070786180E+02  0.00000000000E+00 0.  1.
</event>
<event>
 7    1  0.2284751E-015  0.9000761E+02  0.7816164E-02  0.1186339E+00
        -11   -1    0    0    0    0  0.00000000000E+00  0.00000000000E+00  0.45593999997E+02  0.45594000000E+02  0.51100000000E-03 0. -1.
         11   -1    0    0    0    0 -0.00000000000E+00 -0.00000000000E+00 -0.45593999997E+02  0.45594000000E+02  0.51100000000E-03 0.  1.
    9900012    2    1    2    0    0  0.63898595755E+00 -0.95607675512E+00 -0.26632863073E+00  0.90007611608E+02  0.89999871281E+02 0.  0.
         12    1    1    2    0    0 -0.63898595755E+00  0.95607675512E+00  0.26632863073E+00  0.11803883917E+01  0.00000000000E+00 0. -1.
         11    1    3    3    0    0 -0.70963167785E+01 -0.39612227794E+01  0.43535261033E+01  0.92196630915E+01  0.51100000000E-03 0. -1.
        -11    1    3    3    0    0  0.51501595401E+01  0.41589684046E+02 -0.63525084628E+00  0.41912164180E+02  0.51100000000E-03 0.  1.
         12    1    3    3    0    0  0.25851431959E+01 -0.38584538022E+02 -0.39846038877E+01  0.38875784337E+02  0.00000000000E+00 0. -1.
</event>
<event>
 7    1  0.2284751E-015  0.9000771E+02  0.7816164E-02  0.1186339E+00
        -11   -1    0    0    0    0  0.00000000000E+00  0.00000000000E+00  0.45593999997E+02  0.45594000000E+02  0.51100000000E-03 0.  1.
         11   -1    0    0    0    0 -0.00000000000E+00 -0.00000000000E+00 -0.45593999997E+02  0.45594000000E+02  0.51100000000E-03 0. -1.
    9900012    2    1    2    0    0 -0.97518095763E+00 -0.53926528320E+00 -0.38898522122E+00  0.90007705779E+02  0.89999966695E+02 0.  0.
         12    1    1    2    0    0  0.97518095763E+00  0.53926528320E+00  0.38898522122E+00  0.11802942210E+01  0.00000000000E+00 0. -1.
         11    1    3    3    0    0 -0.98588331483E+01  0.30979327397E+02 -0.18552804702E+02  0.37431562612E+02  0.51100000000E-03 0. -1.
        -11    1    3    3    0    0  0.10665030367E+02  0.56066990429E+01  0.28800574242E+01  0.12388409015E+02  0.51100000000E-03 0.  1.
        -12    1    3    3    0    0 -0.17813781762E+01 -0.37125291723E+02  0.15283762057E+02  0.40187734152E+02  0.00000000000E+00 0.  1.
</event>
<event>
 7    1  0.2284751E-015  0.9000777E+02  0.7816164E-02  0.1186339E+00
        -11   -1    0    0    0    0  0.00000000000E+00  0.00000000000E+00  0.45593999997E+02  0.45594000000E+02  0.51100000000E-03 0.  1.
         11   -1    0    0    0    0 -0.00000000000E+00 -0.00000000000E+00 -0.45593999997E+02  0.45594000000E+02  0.51100000000E-03 0. -1.
    9900012    2    1    2    0    0 -0.14528645433E+00 -0.10621972438E+01  0.49354094937E+00  0.90007765359E+02  0.90000027062E+02 0.  0.
         12    1    1    2    0    0  0.14528645433E+00  0.10621972438E+01 -0.49354094937E+00  0.11802346407E+01  0.00000000000E+00 0. -1.
         11    1    3    3    0    0  0.19760650474E+02 -0.26698581684E+02 -0.10479806708E+02  0.34829928510E+02  0.51100000000E-03 0. -1.
        -11    1    3    3    0    0  0.65497701195E+00 -0.11262102681E+02  0.56077224405E+01  0.12598035677E+02  0.51100000000E-03 0.  1.
        -12    1    3    3    0    0 -0.20560913940E+02  0.36898487121E+02  0.53656252173E+01  0.42579801172E+02  0.00000000000E+00 0.  1.
</event>
<event>
 7    1  0.2284751E-015  0.9000767E+02  0.7816164E-02  0.1186339E+00
        -11   -1    0    0    0    0  0.00000000000E+00  0.00000000000E+00  0.45593999997E+02  0.45594000000E+02  0.51100000000E-03 0. -1.
         11   -1    0    0    0    0 -0.00000000000E+00 -0.00000000000E+00 -0.45593999997E+02  0.45594000000E+02  0.51100000000E-03 0.  1.
    9900012    2    1    2    0    0 -0.90074338549E+00  0.76152831926E+00 -0.43660102806E-01  0.90007673676E+02  0.89999934168E+02 0.  0.
         12    1    1    2    0    0  0.90074338549E+00 -0.76152831926E+00  0.43660102806E-01  0.11803263244E+01  0.00000000000E+00 0. -1.
         11    1    3    3    0    0  0.11657940862E+02 -0.35361970341E+02  0.77795393490E+01  0.38038109368E+02  0.51100000000E-03 0. -1.
        -11    1    3    3    0    0  0.85873927720E+01 -0.98943816155E+00 -0.79424111198E+00  0.86806175876E+01  0.51100000000E-03 0.  1.
        -12    1    3    3    0    0 -0.21146077019E+02  0.37112936822E+02 -0.70289583398E+01  0.43288946720E+02  0.00000000000E+00 0.  1.
</event>
<event>
 7    1  0.2284751E-015  0.9000771E+02  0.7816164E-02  0.1186339E+00
        -11   -1    0    0    0    0  0.00000000000E+00  0.00000000000E+00  0.45593999997E+02  0.45594000000E+02  0.51100000000E-03 0. -1.
         11   -1    0    0    0    0 -0.00000000000E+00 -0.00000000000E+00 -0.45593999997E+02  0.45594000000E+02  0.51100000000E-03 0.  1.
    9900012    2    1    2    0    0  0.44826141373E-01 -0.10016795174E+01 -0.62267033279E+00  0.90007707840E+02  0.89999968784E+02 0.  0.
         12    1    1    2    0    0 -0.44826141373E-01  0.10016795174E+01  0.62267033279E+00  0.11802921595E+01  0.00000000000E+00 0. -1.
         11    1    3    3    0    0 -0.54403813592E+01 -0.43516194862E+01 -0.28843982730E+01  0.75401654587E+01  0.51100000000E-03 0. -1.
        -11    1    3    3    0    0 -0.34472004048E+02  0.13026756181E+01 -0.16544075514E+02  0.38258625978E+02  0.51100000000E-03 0.  1.
         12    1    3    3    0    0  0.39957211548E+02  0.20472643507E+01  0.18805803454E+02  0.44208916404E+02  0.00000000000E+00 0. -1.
</event>
<event>
 7    1  0.2284751E-015  0.9000769E+02  0.7816164E-02  0.1186339E+00
        -11   -1    0    0    0    0  0.00000000000E+00  0.00000000000E+00  0.45593999997E+02  0.45594000000E+02  0.51100000000E-03 0.  1.
         11   -1    0    0    0    0 -0.00000000000E+00 -0.00000000000E+00 -0.45593999997E+02  0.45594000000E+02  0.51100000000E-03 0. -1.
    9900012    2    1    2    0    0 -0.26067666834E+00 -0.71606855325E+00  0.90134201142E+00  0.90007693294E+02  0.89999954046E+02 0.  0.
         12    1    1    2    0    0  0.26067666834E+00  0.71606855325E+00 -0.90134201142E+00  0.11803067059E+01  0.00000000000E+00 0. -1.
         11    1    3    3    0    0 -0.12772315816E+02  0.16934596466E+02  0.82860363525E+01  0.22772154212E+02  0.51100000000E-03 0. -1.
        -11    1    3    3    0    0 -0.24032411710E+02 -0.18414724502E+02 -0.32367154425E+01  0.30448895189E+02  0.51100000000E-03 0.  1.
         12    1    3    3    0    0  0.36544050858E+02  0.76405948292E+00 -0.41479788985E+01  0.36786643893E+02  0.00000000000E+00 0. -1.
</event>
<event>
 7    1  0.2284751E-015  0.9000780E+02  0.7816164E-02  0.1186339E+00
        -11   -1    0    0    0    0  0.00000000000E+00  0.00000000000E+00  0.45593999997E+02  0.45594000000E+02  0.51100000000E-03 0.  1.
         11   -1    0    0    0    0 -0.00000000000E+00 -0.00000000000E+00 -0.45593999997E+02  0.45594000000E+02  0.51100000000E-03 0. -1.
    9900012    2    1    2    0    0  0.71318293861E+00 -0.65463444304E+00 -0.67505157797E+00  0.90007800529E+02  0.90000062696E+02 0.  0.
         12    1    1    2    0    0 -0.71318293861E+00  0.65463444304E+00  0.67505157797E+00  0.11801994708E+01  0.00000000000E+00 0. -1.
         11    1    3    3    0    0 -0.66168400609E+01 -0.41808589784E+02 -0.38001228288E+01  0.42499196297E+02  0.51100000000E-03 0. -1.
        -11    1    3    3    0    0  0.75006752001E+01  0.18710185587E+01  0.28059484055E+01  0.82240005849E+01  0.51100000000E-03 0.  1.
        -12    1    3    3    0    0 -0.17065220056E+00  0.39282936782E+02  0.31912284532E+00  0.39284603648E+02  0.00000000000E+00 0.  1.
</event>
<event>
 7    1  0.2284751E-015  0.9000771E+02  0.7816164E-02  0.1186339E+00
        -11   -1    0    0    0    0  0.00000000000E+00  0.00000000000E+00  0.45593999997E+02  0.45594000000E+02  0.51100000000E-03 0.  1.
         11   -1    0    0    0    0 -0.00000000000E+00 -0.00000000000E+00 -0.45593999997E+02  0.45594000000E+02  0.51100000000E-03 0. -1.
    9900012    2    1    2    0    0 -0.96029515465E+00  0.10890955179E-02  0.68623474037E+00  0.90007709320E+02  0.89999970283E+02 0.  0.
         12    1    1    2    0    0  0.96029515465E+00 -0.10890955179E-02 -0.68623474037E+00  0.11802906799E+01  0.00000000000E+00 0. -1.
         11    1    3    3    0    0 -0.19922602632E+02  0.18160884745E+02 -0.15494783864E+02  0.31093667484E+02  0.51100000000E-03 0. -1.
        -11    1    3    3    0    0 -0.11097078598E+02 -0.12530189357E+02 -0.92643290353E+01  0.19130566941E+02  0.51100000000E-03 0.  1.
        -12    1    3    3    0    0  0.30059386076E+02 -0.56296062925E+01  0.25445347639E+02  0.39783474895E+02  0.00000000000E+00 0.  1.
</event>
<event>
 7    1  0.2284751E-015  0.9000776E+02  0.7816164E-02  0.1186339E+00
        -11   -1    0    0    0    0  0.00000000000E+00  0.00000000000E+00  0.45593999997E+02  0.45594000000E+02  0.51100000000E-03 0.  1.
         11   -1    0    0    0    0 -0.00000000000E+00 -0.00000000000E+00 -0.45593999997E+02  0.45594000000E+02  0.51100000000E-03 0. -1.
    9900012    2    1    2    0    0 -0.75077776607E+00  0.45191784227E+00  0.79062074050E+00  0.90007755049E+02  0.90000016615E+02 0.  0.
         12    1    1    2    0    0  0.75077776607E+00 -0.45191784227E+00 -0.79062074050E+00  0.11802449515E+01  0.00000000000E+00 0. -1.
         11    1    3    3    0    0 -0.26832697364E+02  0.19284200125E+02 -0.11144122261E+02  0.34872130470E+02  0.51100000000E-03 0. -1.
        -11    1    3    3    0    0  0.13340968029E+02  0.11675651383E+02 -0.43890521350E+01  0.18263790463E+02  0.51100000000E-03 0.  1.
        -12    1    3    3    0    0  0.12740951568E+02 -0.30507933665E+02  0.16323795137E+02  0.36871834116E+02  0.00000000000E+00 0.  1.
</event>
<event>
 7    1  0.2284751E-015  0.9000780E+02  0.7816164E-02  0.1186339E+00
        -11   -1    0    0    0    0  0.00000000000E+00  0.00000000000E+00  0.45593999997E+02  0.45594000000E+02  0.51100000000E-03 0.  1.
         11   -1    0    0    0    0 -0.00000000000E+00 -0.00000000000E+00 -0.45593999997E+02  0.45594000000E+02  0.51100000000E-03 0. -1.
    9900012    2    1    2    0    0 -0.43379950181E+00 -0.44104851562E+00  0.10050733620E+01  0.90007797363E+02  0.90000059488E+02 0.  0.
         12    1    1    2    0    0  0.43379950181E+00  0.44104851562E+00 -0.10050733620E+01  0.11802026368E+01  0.00000000000E+00 0. -1.
         11    1    3    3    0    0  0.85245991085E+01  0.13418221365E+01 -0.37364923252E+02  0.38348491059E+02  0.51100000000E-03 0. -1.
        -11    1    3    3    0    0 -0.50231977399E+01 -0.94960356276E+01 -0.15115254039E+01  0.10848590576E+02  0.51100000000E-03 0.  1.
        -12    1    3    3    0    0 -0.39352008704E+01  0.77131649755E+01  0.39881522018E+02  0.40810715729E+02  0.00000000000E+00 0.  1.
</event>
<event>
 7    1  0.2284751E-015  0.9000775E+02  0.7816164E-02  0.1186339E+00
        -11   -1    0    0    0    0  0.00000000000E+00  0.00000000000E+00  0.45593999997E+02  0.45594000000E+02  0.51100000000E-03 0.  1.
         11   -1    0    0    0    0 -0.00000000000E+00 -0.00000000000E+00 -0.45593999997E+02  0.45594000000E+02  0.51100000000E-03 0. -1.
    9900012    2    1    2    0    0  0.62429421689E+00 -0.37836803854E+00  0.92740184432E+00  0.90007754338E+02  0.90000015895E+02 0.  0.
         12    1    1    2    0    0 -0.62429421689E+00  0.37836803854E+00 -0.92740184432E+00  0.11802456620E+01  0.00000000000E+00 0. -1.
         11    1    3    3    0    0 -0.16029346638E+02  0.31558585589E+02  0.93522531793E+01  0.36610775979E+02  0.51100000000E-03 0. -1.
        -11    1    3    3    0    0 -0.12542191917E+01  0.68148503579E+01 -0.81619493613E+01  0.10706664692E+02  0.51100000000E-03 0.  1.
        -12    1    3    3    0    0  0.17907860046E+02 -0.38751803985E+02 -0.26290197360E+00  0.42690313667E+02  0.00000000000E+00 0.  1.
</event>
<event>
 7    1  0.2284751E-015  0.9000778E+02  0.7816164E-02  0.1186339E+00
        -11   -1    0    0    0    0  0.00000000000E+00  0.00000000000E+00  0.45593999997E+02  0.45594000000E+02  0.51100000000E-03 0.  1.
         11   -1    0    0    0    0 -0.00000000000E+00 -0.00000000000E+00 -0.45593999997E+02  0.45594000000E+02  0.51100000000E-03 0. -1.
    9900012    2    1    2    0    0  0.68416584513E+00  0.93318031531E+00  0.23241603914E+00  0.90007777301E+02  0.90000039161E+02 0.  0.
         12    1    1    2    0    0 -0.68416584513E+00 -0.93318031531E+00 -0.23241603914E+00  0.11802226992E+01  0.00000000000E+00 0. -1.
         11    1    3    3    0    0 -0.33604151736E+01  0.10515252578E+02  0.16702663318E+02  0.20021036164E+02  0.51100000000E-03 0. -1.
        -11    1    3    3    0    0 -0.18461621486E+02 -0.29758418932E+02  0.10770211180E+01  0.35036480131E+02  0.51100000000E-03 0.  1.
         12    1    3    3    0    0  0.22506202505E+02  0.20176346670E+02 -0.17547268397E+02  0.34950261005E+02  0.00000000000E+00 0. -1.
</event>
<event>
 7    1  0.2706395E-015  0.9000771E+02  0.7816164E-02  0.1186339E+00
        -11   -1    0    0    0    0  0.00000000000E+00  0.00000000000E+00  0.45593999997E+02  0.45594000000E+02  0.51100000000E-03 0. -1.
         11   -1    0    0    0    0 -0.00000000000E+00 -0.00000000000E+00 -0.45593999997E+02  0.45594000000E+02  0.51100000000E-03 0.  1.
    9900012    2    1    2    0    0 -0.27332496209E+00 -0.10620307332E+01  0.43642762143E+00  0.90007709832E+02  0.89999970801E+02 0.  0.
         12    1    1    2    0    0  0.27332496209E+00  0.10620307332E+01 -0.43642762143E+00  0.11802901685E+01  0.00000000000E+00 0. -1.
         11    1    3    3    0    0  0.59882586927E+00 -0.30208595804E+02 -0.22275877652E+02  0.37538414702E+02  0.51100000000E-03 0. -1.
        -11    1    3    3    0    0 -0.44158446953E+01 -0.80674041392E+00 -0.81570086278E+01  0.93106017251E+01  0.51100000000E-03 0.  1.
        -12    1    3    3    0    0  0.35436938640E+01  0.29953305485E+02  0.30869313902E+02  0.43158693405E+02  0.00000000000E+00 0.  1.
</event>
<event>
 7    1  0.2284751E-015  0.9000781E+02  0.7816164E-02  0.1186339E+00
        -11   -1    0    0    0    0  0.00000000000E+00  0.00000000000E+00  0.45593999997E+02  0.45594000000E+02  0.51100000000E-03 0. -1.
         11   -1    0    0    0    0 -0.00000000000E+00 -0.00000000000E+00 -0.45593999997E+02  0.45594000000E+02  0.51100000000E-03 0.  1.
    9900012    2    1    2    0    0 -0.92525152797E+00  0.69991819721E+00 -0.21652424111E+00  0.90007805686E+02  0.90000067921E+02 0.  0.
         12    1    1    2    0    0  0.92525152797E+00 -0.69991819721E+00  0.21652424111E+00  0.11801943144E+01  0.00000000000E+00 0. -1.
         11    1    3    3    0    0  0.10025619934E+02 -0.54598989210E+01 -0.51272289926E+01  0.12514472769E+02  0.51100000000E-03 0. -1.
        -11    1    3    3    0    0 -0.47726299004E+01 -0.34342429662E+01 -0.35253017250E+02  0.35739995053E+02  0.51100000000E-03 0.  1.
         12    1    3    3    0    0 -0.61782415619E+01  0.95940600844E+01  0.40163722001E+02  0.41753337863E+02  0.00000000000E+00 0. -1.
</event>
<event>
 7    1  0.2284751E-015  0.9000727E+02  0.7816164E-02  0.1186340E+00
        -11   -1    0    0    0    0  0.00000000000E+00  0.00000000000E+00  0.45593999997E+02  0.45594000000E+02  0.51100000000E-03 0. -1.
         11   -1    0    0    0    0 -0.00000000000E+00 -0.00000000000E+00 -0.45593999997E+02  0.45594000000E+02  0.51100000000E-03 0.  1.
    9900012    2    1    2    0    0  0.54349502766E+00  0.84154285001E+00 -0.62493973742E+00  0.90007266800E+02  0.89999521921E+02 0.  0.
         12    1    1    2    0    0 -0.54349502766E+00 -0.84154285001E+00  0.62493973742E+00  0.11807331997E+01  0.00000000000E+00 0. -1.
         11    1    3    3    0    0  0.14552158871E+02  0.70082112105E+01  0.23960512264E+00  0.16153568121E+02  0.51100000000E-03 0. -1.
        -11    1    3    3    0    0  0.40225605608E+01  0.24039478700E+02 -0.21983175947E+02  0.32822820638E+02  0.51100000000E-03 0.  1.
         12    1    3    3    0    0 -0.18031224404E+02 -0.30206147061E+02  0.21118631087E+02  0.41030878041E+02  0.00000000000E+00 0. -1.
</event>
<event>
 7    1  0.2284751E-015  0.9000761E+02  0.7816164E-02  0.1186339E+00
        -11   -1    0    0    0    0  0.00000000000E+00  0.00000000000E+00  0.45593999997E+02  0.45594000000E+02  0.51100000000E-03 0. -1.
         11   -1    0    0    0    0 -0.00000000000E+00 -0.00000000000E+00 -0.45593999997E+02  0.45594000000E+02  0.51100000000E-03 0.  1.
    9900012    2    1    2    0    0  0.32067284923E+00  0.11307437858E+01  0.10909902149E+00  0.90007612275E+02  0.89999871957E+02 0.  0.
         12    1    1    2    0    0 -0.32067284923E+00 -0.11307437858E+01 -0.10909902149E+00  0.11803877252E+01  0.00000000000E+00 0. -1.
         11    1    3    3    0    0  0.10062821402E+02  0.24906458682E+01  0.81328302768E+01  0.13175986490E+02  0.51100000000E-03 0. -1.
        -11    1    3    3    0    0  0.83386923268E+01 -0.36104985179E+02 -0.12089442101E+01  0.37075130356E+02  0.51100000000E-03 0.  1.
         12    1    3    3    0    0 -0.18080840880E+02  0.34745083097E+02 -0.68147870452E+01  0.39756495429E+02  0.00000000000E+00 0. -1.
</event>
<event>
 7    1  0.2284751E-015  0.9000770E+02  0.7816164E-02  0.1186339E+00
        -11   -1    0    0    0    0  0.00000000000E+00  0.00000000000E+00  0.45593999997E+02  0.45594000000E+02  0.51100000000E-03 0.  1.
         11   -1    0    0    0    0 -0.00000000000E+00 -0.00000000000E+00 -0.45593999997E+02  0.45594000000E+02  0.51100000000E-03 0. -1.
    9900012    2    1    2    0    0  0.91453775085E+00  0.49317665715E+00  0.55991846423E+00  0.90007698683E+02  0.89999959505E+02 0.  0.
         12    1    1    2    0    0 -0.91453775085E+00 -0.49317665715E+00 -0.55991846423E+00  0.11803013172E+01  0.00000000000E+00 0. -1.
         11    1    3    3    0    0 -0.94154840407E+01  0.78066759513E+00  0.30874870955E+01  0.99394848177E+01  0.51100000000E-03 0. -1.
        -11    1    3    3    0    0  0.20361536818E+01  0.30759316665E+02  0.23461161718E+02  0.38738967371E+02  0.51100000000E-03 0.  1.
         12    1    3    3    0    0  0.82938681098E+01 -0.31046807603E+02 -0.25988730350E+02  0.41329246494E+02  0.00000000000E+00 0. -1.
</event>
<event>
 7    1  0.2284751E-015  0.9000822E+02  0.7816164E-02  0.1186338E+00
        -11   -1    0    0    0    0  0.00000000000E+00  0.00000000000E+00  0.45593999997E+02  0.45594000000E+02  0.51100000000E-03 0.  1.
         11   -1    0    0    0    0 -0.00000000000E+00 -0.00000000000E+00 -0.45593999997E+02  0.45594000000E+02  0.51100000000E-03 0. -1.
    9900012    2    1    2    0    0  0.31671708290E+00 -0.57827631385E+00  0.97834523054E+00  0.90008223497E+02  0.90000491246E+02 0.  0.
         12    1    1    2    0    0 -0.31671708290E+00  0.57827631385E+00 -0.97834523054E+00  0.11797765025E+01  0.00000000000E+00 0. -1.
         11    1    3    3    0    0  0.17377864562E+02 -0.18263472531E+02 -0.20079783930E+02  0.32229525726E+02  0.51100000000E-03 0. -1.
        -11    1    3    3    0    0  0.64094258671E+01  0.68238557770E+00 -0.12118387068E+02  0.13725949709E+02  0.51100000000E-03 0.  1.
        -12    1    3    3    0    0 -0.23470573347E+02  0.17002810639E+02  0.33176516228E+02  0.44052748062E+02  0.00000000000E+00 0.  1.
</event>
<event>
 7    1  0.2284751E-015  0.9000782E+02  0.7816164E-02  0.1186339E+00
        -11   -1    0    0    0    0  0.00000000000E+00  0.00000000000E+00  0.45593999997E+02  0.45594000000E+02  0.51100000000E-03 0. -1.
         11   -1    0    0    0    0 -0.00000000000E+00 -0.00000000000E+00 -0.45593999997E+02  0.45594000000E+02  0.51100000000E-03 0.  1.
    9900012    2    1    2    0    0 -0.15674712916E-02 -0.11802293747E+00 -0.11742590822E+01  0.90007823631E+02  0.90000086102E+02 0.  0.
         12    1    1    2    0    0  0.15674712916E-02  0.11802293747E+00  0.11742590822E+01  0.11801763694E+01  0.00000000000E+00 0. -1.
         11    1    3    3    0    0  0.59317589483E+01  0.16383618479E+02 -0.34667573212E+02  0.38800120507E+02  0.51100000000E-03 0. -1.
        -11    1    3    3    0    0 -0.77048875328E+01  0.65283023454E+01 -0.49819470826E+00  0.10110995086E+02  0.51100000000E-03 0.  1.
        -12    1    3    3    0    0  0.17715611132E+01 -0.23029943762E+02  0.33991508838E+02  0.41096708038E+02  0.00000000000E+00 0.  1.
</event>
<event>
 7    1  0.2284751E-015  0.9000768E+02  0.7816164E-02  0.1186339E+00
        -11   -1    0    0    0    0  0.00000000000E+00  0.00000000000E+00  0.45593999997E+02  0.45594000000E+02  0.51100000000E-03 0.  1.
         11   -1    0    0    0    0 -0.00000000000E+00 -0.00000000000E+00 -0.45593999997E+02  0.45594000000E+02  0.51100000000E-03 0. -1.
    9900012    2    1    2    0    0  0.57788544685E+00  0.93923198540E+00  0.42076806083E+00  0.90007680521E+02  0.89999941104E+02 0.  0.
         12    1    1    2    0    0 -0.57788544685E+00 -0.93923198540E+00 -0.42076806083E+00  0.11803194792E+01  0.00000000000E+00 0. -1.
         11    1    3    3    0    0  0.31643546782E+02  0.32116538335E+02  0.22025216319E+01  0.45140194831E+02  0.51100000000E-03 0. -1.
        -11    1    3    3    0    0 -0.91276969561E+01 -0.88499098021E+01 -0.44076908707E+01  0.13455983587E+02  0.51100000000E-03 0.  1.
        -12    1    3    3    0    0 -0.21937964379E+02 -0.22327396547E+02  0.26259372997E+01  0.31411502103E+02  0.00000000000E+00 0.  1.
</event>
