<event>
 7    1  0.5487071E-013  0.5052886E+02  0.7816164E-02  0.1300439E+00
        -11   -1    0    0    0    0  0.00000000000E+00  0.00000000000E+00  0.45593999997E+02  0.45594000000E+02  0.51100000000E-03 0. -1.
         11   -1    0    0    0    0 -0.00000000000E+00 -0.00000000000E+00 -0.45593999997E+02  0.45594000000E+02  0.51100000000E-03 0.  1.
    9900012    2    1    2    0    0  0.36128340470E+02 -0.18360168092E+02 -0.32882884937E+01  0.50528860822E+02  0.30000002955E+02 0.  0.
        -12    1    1    2    0    0 -0.36128340470E+02  0.18360168092E+02  0.32882884937E+01  0.40659139178E+02  0.00000000000E+00 0.  1.
         11    1    3    3    0    0  0.17886144098E+02 -0.15219069669E+02 -0.22301235720E+01  0.23590415081E+02  0.51100000000E-03 0. -1.
        -11    1    3    3    0    0  0.99413675451E+01 -0.11247550753E+02  0.14065839857E+01  0.15077024420E+02  0.51100000000E-03 0.  1.
        -12    1    3    3    0    0  0.83008288262E+01  0.81064523292E+01 -0.24647489074E+01  0.11861421321E+02  0.00000000000E+00 0.  1.
</event>
<event>
 7    1  0.5487071E-013  0.5052891E+02  0.7816164E-02  0.1300439E+00
        -11   -1    0    0    0    0  0.00000000000E+00  0.00000000000E+00  0.45593999997E+02  0.45594000000E+02  0.51100000000E-03 0. -1.
         11   -1    0    0    0    0 -0.00000000000E+00 -0.00000000000E+00 -0.45593999997E+02  0.45594000000E+02  0.51100000000E-03 0.  1.
    9900012    2    1    2    0    0 -0.28110146333E+02 -0.35320811198E+01  0.29163427551E+02  0.50528912080E+02  0.30000158759E+02 0.  0.
        -12    1    1    2    0    0  0.28110146333E+02  0.35320811198E+01 -0.29163427551E+02  0.40659087920E+02  0.00000000000E+00 0.  1.
         11    1    3    3    0    0 -0.19315257128E+00  0.84582882645E+00 -0.79489244832E+00  0.11766854231E+01  0.51100000000E-03 0. -1.
        -11    1    3    3    0    0 -0.13000399609E+02 -0.13675142740E+02  0.63273294772E+01  0.19901131061E+02  0.51100000000E-03 0.  1.
         12    1    3    3    0    0 -0.14916594154E+02  0.92972327936E+01  0.23630990522E+02  0.29451095596E+02  0.00000000000E+00 0. -1.
</event>
<event>
 7    1  0.5487071E-013  0.5052886E+02  0.7816164E-02  0.1300439E+00
        -11   -1    0    0    0    0  0.00000000000E+00  0.00000000000E+00  0.45593999997E+02  0.45594000000E+02  0.51100000000E-03 0.  1.
         11   -1    0    0    0    0 -0.00000000000E+00 -0.00000000000E+00 -0.45593999997E+02  0.45594000000E+02  0.51100000000E-03 0. -1.
    9900012    2    1    2    0    0 -0.37003396030E+02 -0.16848580575E+02  0.19985250525E+00  0.50528856795E+02  0.29999990715E+02 0.  0.
        -12    1    1    2    0    0  0.37003396030E+02  0.16848580575E+02 -0.19985250525E+00  0.40659143205E+02  0.00000000000E+00 0.  1.
         11    1    3    3    0    0 -0.46885858405E+01  0.57559300599E+00 -0.25885119266E+01  0.53865145268E+01  0.51100000000E-03 0. -1.
        -11    1    3    3    0    0 -0.35379944061E+02 -0.12062158657E+02 -0.18391215091E+01  0.37424837760E+02  0.51100000000E-03 0.  1.
        -12    1    3    3    0    0  0.30651338717E+01 -0.53620149246E+01  0.46274859409E+01  0.77175045083E+01  0.00000000000E+00 0.  1.
</event>
<event>
 7    1  0.5487071E-013  0.5052886E+02  0.7816164E-02  0.1300439E+00
        -11   -1    0    0    0    0  0.00000000000E+00  0.00000000000E+00  0.45593999997E+02  0.45594000000E+02  0.51100000000E-03 0. -1.
         11   -1    0    0    0    0 -0.00000000000E+00 -0.00000000000E+00 -0.45593999997E+02  0.45594000000E+02  0.51100000000E-03 0.  1.
    9900012    2    1    2    0    0  0.14351802186E+02  0.21984239333E+02  0.31046491502E+02  0.50528860319E+02  0.30000001426E+02 0.  0.
        -12    1    1    2    0    0 -0.14351802186E+02 -0.21984239333E+02 -0.31046491502E+02  0.40659139681E+02  0.00000000000E+00 0.  1.
         11    1    3    3    0    0  0.17968105472E+02  0.12870950044E+02  0.22466270927E+02  0.31515829339E+02  0.51100000000E-03 0. -1.
        -11    1    3    3    0    0  0.49322733759E+01  0.18960559309E+01  0.70395080907E+00  0.53308438122E+01  0.51100000000E-03 0.  1.
        -12    1    3    3    0    0 -0.85485766616E+01  0.72172333577E+01  0.78762697654E+01  0.13682187168E+02  0.00000000000E+00 0.  1.
</event>
<event>
 7    1  0.5487071E-013  0.5052890E+02  0.7816164E-02  0.1300439E+00
        -11   -1    0    0    0    0  0.00000000000E+00  0.00000000000E+00  0.45593999997E+02  0.45594000000E+02  0.51100000000E-03 0.  1.
         11   -1    0    0    0    0 -0.00000000000E+00 -0.00000000000E+00 -0.45593999997E+02  0.45594000000E+02  0.51100000000E-03 0. -1.
    9900012    2    1    2    0    0  0.12568845302E+02  0.12615036309E+02 -0.36551984049E+02  0.50528898298E+02  0.30000116867E+02 0.  0.
        -12    1    1    2    0    0 -0.12568845302E+02 -0.12615036309E+02  0.36551984049E+02  0.40659101702E+02  0.00000000000E+00 0.  1.
         11    1    3    3    0    0  0.19427265028E+02  0.23036537440E+01 -0.19033319750E+02  0.27294554548E+02  0.51100000000E-03 0.  1.
        -11    1    3    3    0    0 -0.53870838975E+01  0.18786523549E+01 -0.11284300656E+02  0.12644581810E+02  0.51100000000E-03 0. -1.
        -12    1    3    3    0    0 -0.14713358288E+01  0.84327302096E+01 -0.62343636435E+01  0.10589761940E+02  0.00000000000E+00 0.  1.
</event>
<event>
 7    1  0.5487071E-013  0.5052887E+02  0.7816164E-02  0.1300439E+00
        -11   -1    0    0    0    0  0.00000000000E+00  0.00000000000E+00  0.45593999997E+02  0.45594000000E+02  0.51100000000E-03 0.  1.
         11   -1    0    0    0    0 -0.00000000000E+00 -0.00000000000E+00 -0.45593999997E+02  0.45594000000E+02  0.51100000000E-03 0. -1.
    9900012    2    1    2    0    0 -0.66233825663E+01 -0.25988403158E+02 -0.30559758215E+02  0.50528866739E+02  0.30000020941E+02 0.  0.
        -12    1    1    2    0    0  0.66233825663E+01  0.25988403158E+02  0.30559758215E+02  0.40659133261E+02  0.00000000000E+00 0.  1.
         11    1    3    3    0    0  0.10724880789E+02 -0.75904397344E+01 -0.10650557921E+02  0.16913669844E+02  0.51100000000E-03 0. -1.
        -11    1    3    3    0    0 -0.11311537837E+01  0.24668457209E+00 -0.41465776135E+01  0.43051676305E+01  0.51100000000E-03 0.  1.
         12    1    3    3    0    0 -0.16217109572E+02 -0.18644647996E+02 -0.15762622681E+02  0.29310029265E+02  0.00000000000E+00 0. -1.
</event>
<event>
 7    1  0.5487071E-013  0.5052886E+02  0.7816164E-02  0.1300439E+00
        -11   -1    0    0    0    0  0.00000000000E+00  0.00000000000E+00  0.45593999997E+02  0.45594000000E+02  0.51100000000E-03 0.  1.
         11   -1    0    0    0    0 -0.00000000000E+00 -0.00000000000E+00 -0.45593999997E+02  0.45594000000E+02  0.51100000000E-03 0. -1.
    9900012    2    1    2    0    0  0.93270123746E+01 -0.31486142620E+02 -0.23974889040E+02  0.50528860297E+02  0.30000001358E+02 0.  0.
        -12    1    1    2    0    0 -0.93270123746E+01  0.31486142620E+02  0.23974889040E+02  0.40659139703E+02  0.00000000000E+00 0.  1.
         11    1    3    3    0    0  0.69862281289E+01 -0.25350118477E+01 -0.13316824121E+02  0.15250294210E+02  0.51100000000E-03 0. -1.
        -11    1    3    3    0    0  0.18065913274E+01  0.15746481338E+01  0.10016459063E+01  0.25974186709E+01  0.51100000000E-03 0.  1.
        -12    1    3    3    0    0  0.53419291833E+00 -0.30525778907E+02 -0.11659710825E+02  0.32681147416E+02  0.00000000000E+00 0.  1.
</event>
<event>
 7    1  0.5487071E-013  0.5052887E+02  0.7816164E-02  0.1300439E+00
        -11   -1    0    0    0    0  0.00000000000E+00  0.00000000000E+00  0.45593999997E+02  0.45594000000E+02  0.51100000000E-03 0. -1.
         11   -1    0    0    0    0 -0.00000000000E+00 -0.00000000000E+00 -0.45593999997E+02  0.45594000000E+02  0.51100000000E-03 0.  1.
    9900012    2    1    2    0    0  0.40552313526E+02 -0.13034386492E+01 -0.26412205313E+01  0.50528866580E+02  0.30000020456E+02 0.  0.
        -12    1    1    2    0    0 -0.40552313526E+02  0.13034386492E+01  0.26412205313E+01  0.40659133420E+02  0.00000000000E+00 0.  1.
         11    1    3    3    0    0  0.95665207105E+01  0.37353772332E+01  0.10094771234E+02  0.14400547493E+02  0.51100000000E-03 0. -1.
        -11    1    3    3    0    0  0.87999978872E+01  0.42143673584E+01 -0.32111955828E+01  0.10271934208E+02  0.51100000000E-03 0.  1.
         12    1    3    3    0    0  0.22185794928E+02 -0.92531832407E+01 -0.95247961824E+01  0.25856384878E+02  0.00000000000E+00 0. -1.
</event>
<event>
 7    1  0.5487071E-013  0.5052888E+02  0.7816164E-02  0.1300439E+00
        -11   -1    0    0    0    0  0.00000000000E+00  0.00000000000E+00  0.45593999997E+02  0.45594000000E+02  0.51100000000E-03 0.  1.
         11   -1    0    0    0    0 -0.00000000000E+00 -0.00000000000E+00 -0.45593999997E+02  0.45594000000E+02  0.51100000000E-03 0. -1.
    9900012    2    1    2    0    0  0.10600645099E+00 -0.38408269370E+02 -0.13340087195E+02  0.50528876550E+02  0.30000050761E+02 0.  0.
        -12    1    1    2    0    0 -0.10600645099E+00  0.38408269370E+02  0.13340087195E+02  0.40659123450E+02  0.00000000000E+00 0.  1.
         11    1    3    3    0    0 -0.36423201804E+01 -0.17544673182E+02 -0.35041053287E+01  0.18258170986E+02  0.51100000000E-03 0. -1.
        -11    1    3    3    0    0 -0.43876877769E+01 -0.11331696661E+02  0.47442516063E+01  0.13044810340E+02  0.51100000000E-03 0.  1.
         12    1    3    3    0    0  0.81360144082E+01 -0.95318995274E+01 -0.14580233472E+02  0.19225895224E+02  0.00000000000E+00 0. -1.
</event>
<event>
 7    1  0.5487071E-013  0.5052887E+02  0.7816164E-02  0.1300439E+00
        -11   -1    0    0    0    0  0.00000000000E+00  0.00000000000E+00  0.45593999997E+02  0.45594000000E+02  0.51100000000E-03 0. -1.
         11   -1    0    0    0    0 -0.00000000000E+00 -0.00000000000E+00 -0.45593999997E+02  0.45594000000E+02  0.51100000000E-03 0.  1.
    9900012    2    1    2    0    0  0.36853398601E+02 -0.76266487341E+01  0.15389157773E+02  0.50528868967E+02  0.30000027713E+02 0.  0.
        -12    1    1    2    0    0 -0.36853398601E+02  0.76266487341E+01 -0.15389157773E+02  0.40659131033E+02  0.00000000000E+00 0.  1.
         11    1    3    3    0    0  0.15829669638E+01 -0.32293096257E+01 -0.27800374903E+01  0.45456389843E+01  0.51100000000E-03 0. -1.
        -11    1    3    3    0    0  0.13523341259E+02 -0.13023657914E+02  0.67677136869E+01  0.19957413988E+02  0.51100000000E-03 0.  1.
         12    1    3    3    0    0  0.21747090379E+02  0.86263188060E+01  0.11401481576E+02  0.26025815995E+02  0.00000000000E+00 0. -1.
</event>
<event>
 7    1  0.5487071E-013  0.5052886E+02  0.7816164E-02  0.1300439E+00
        -11   -1    0    0    0    0  0.00000000000E+00  0.00000000000E+00  0.45593999997E+02  0.45594000000E+02  0.51100000000E-03 0. -1.
         11   -1    0    0    0    0 -0.00000000000E+00 -0.00000000000E+00 -0.45593999997E+02  0.45594000000E+02  0.51100000000E-03 0.  1.
    9900012    2    1    2    0    0  0.40691324627E+01  0.18960205377E+02  0.35736797173E+02  0.50528857128E+02  0.29999991726E+02 0.  0.
        -12    1    1    2    0    0 -0.40691324627E+01 -0.18960205377E+02 -0.35736797173E+02  0.40659142872E+02  0.00000000000E+00 0.  1.
         11    1    3    3    0    0  0.11944308464E+02  0.97001281824E+01  0.24166490192E+02  0.28649227562E+02  0.51100000000E-03 0. -1.
        -11    1    3    3    0    0  0.15375272977E+01  0.41736665476E+01 -0.17628743634E+01  0.47844758254E+01  0.51100000000E-03 0.  1.
         12    1    3    3    0    0 -0.94127032989E+01  0.50864106465E+01  0.13333181344E+02  0.17095153740E+02  0.00000000000E+00 0. -1.
</event>
<event>
 7    1  0.5487071E-013  0.5052886E+02  0.7816164E-02  0.1300439E+00
        -11   -1    0    0    0    0  0.00000000000E+00  0.00000000000E+00  0.45593999997E+02  0.45594000000E+02  0.51100000000E-03 0. -1.
         11   -1    0    0    0    0 -0.00000000000E+00 -0.00000000000E+00 -0.45593999997E+02  0.45594000000E+02  0.51100000000E-03 0.  1.
    9900012    2    1    2    0    0  0.27820817293E+01  0.14567452568E+02  0.37857822654E+02  0.50528863399E+02  0.30000010787E+02 0.  0.
        -12    1    1    2    0    0 -0.27820817293E+01 -0.14567452568E+02 -0.37857822654E+02  0.40659136601E+02  0.00000000000E+00 0.  1.
         11    1    3    3    0    0 -0.37269622332E+00  0.17962407664E+01  0.50500921627E+01  0.53729707313E+01  0.51100000000E-03 0. -1.
        -11    1    3    3    0    0  0.15306519162E+02  0.47441322631E+01  0.13384900348E+02  0.20879460658E+02  0.51100000000E-03 0.  1.
        -12    1    3    3    0    0 -0.12151741209E+02  0.80270795385E+01  0.19422830143E+02  0.24276432010E+02  0.00000000000E+00 0.  1.
</event>
<event>
 7    1  0.5487071E-013  0.5052888E+02  0.7816164E-02  0.1300439E+00
        -11   -1    0    0    0    0  0.00000000000E+00  0.00000000000E+00  0.45593999997E+02  0.45594000000E+02  0.51100000000E-03 0.  1.
         11   -1    0    0    0    0 -0.00000000000E+00 -0.00000000000E+00 -0.45593999997E+02  0.45594000000E+02  0.51100000000E-03 0. -1.
    9900012    2    1    2    0    0 -0.20763992824E+02 -0.14367479377E+02 -0.31868423295E+02  0.50528877223E+02  0.30000052808E+02 0.  0.
        -12    1    1    2    0    0  0.20763992824E+02  0.14367479377E+02  0.31868423295E+02  0.40659122777E+02  0.00000000000E+00 0.  1.
         11    1    3    3    0    0 -0.17358507064E+01 -0.26188374359E+01 -0.60095869225E+01  0.67813437039E+01  0.51100000000E-03 0. -1.
        -11    1    3    3    0    0 -0.15906677167E+02 -0.15297145952E+02 -0.30150188981E+02  0.37363872238E+02  0.51100000000E-03 0.  1.
        -12    1    3    3    0    0 -0.31214649504E+01  0.35485040112E+01  0.42913526078E+01  0.63836612816E+01  0.00000000000E+00 0.  1.
</event>
<event>
 7    1  0.5487071E-013  0.5052881E+02  0.7816164E-02  0.1300439E+00
        -11   -1    0    0    0    0  0.00000000000E+00  0.00000000000E+00  0.45593999997E+02  0.45594000000E+02  0.51100000000E-03 0. -1.
         11   -1    0    0    0    0 -0.00000000000E+00 -0.00000000000E+00 -0.45593999997E+02  0.45594000000E+02  0.51100000000E-03 0.  1.
    9900012    2    1    2    0    0 -0.29771290530E+02  0.26750592580E+02  0.71586332104E+01  0.50528807034E+02  0.29999839460E+02 0.  0.
        -12    1    1    2    0    0  0.29771290530E+02 -0.26750592580E+02 -0.71586332104E+01  0.40659192966E+02  0.00000000000E+00 0.  1.
         11    1    3    3    0    0 -0.48443943576E+01 -0.30951263235E+01 -0.14363728572E+01  0.59254646144E+01  0.51100000000E-03 0. -1.
        -11    1    3    3    0    0 -0.11007413513E+02  0.68482471393E+01 -0.56946349292E+01  0.14159467094E+02  0.51100000000E-03 0.  1.
         12    1    3    3    0    0 -0.13919482660E+02  0.22997471764E+02  0.14289640997E+02  0.30443875326E+02  0.00000000000E+00 0. -1.
</event>
<event>
 7    1  0.5487071E-013  0.5052887E+02  0.7816164E-02  0.1300439E+00
        -11   -1    0    0    0    0  0.00000000000E+00  0.00000000000E+00  0.45593999997E+02  0.45594000000E+02  0.51100000000E-03 0.  1.
         11   -1    0    0    0    0 -0.00000000000E+00 -0.00000000000E+00 -0.45593999997E+02  0.45594000000E+02  0.51100000000E-03 0. -1.
    9900012    2    1    2    0    0 -0.28943718612E+02  0.15795139296E+01 -0.28511950170E+02  0.50528868014E+02  0.30000024815E+02 0.  0.
        -12    1    1    2    0    0  0.28943718612E+02 -0.15795139296E+01  0.28511950170E+02  0.40659131986E+02  0.00000000000E+00 0.  1.
         11    1    3    3    0    0 -0.52402778525E+01  0.10873459767E+01 -0.15796080390E+02  0.16678099088E+02  0.51100000000E-03 0. -1.
        -11    1    3    3    0    0 -0.55637556025E+01  0.27797560504E+01 -0.14204950599E+02  0.15506870796E+02  0.51100000000E-03 0.  1.
        -12    1    3    3    0    0 -0.18139685157E+02 -0.22875880976E+01  0.14890808190E+01  0.18343898130E+02  0.00000000000E+00 0.  1.
</event>
<event>
 7    1  0.5487071E-013  0.5052886E+02  0.7816164E-02  0.1300439E+00
        -11   -1    0    0    0    0  0.00000000000E+00  0.00000000000E+00  0.45593999997E+02  0.45594000000E+02  0.51100000000E-03 0.  1.
         11   -1    0    0    0    0 -0.00000000000E+00 -0.00000000000E+00 -0.45593999997E+02  0.45594000000E+02  0.51100000000E-03 0. -1.
    9900012    2    1    2    0    0 -0.36994314340E+02  0.16674171242E+02  0.25610050445E+01  0.50528855556E+02  0.29999986947E+02 0.  0.
        -12    1    1    2    0    0  0.36994314340E+02 -0.16674171242E+02 -0.25610050445E+01  0.40659144444E+02  0.00000000000E+00 0.  1.
         11    1    3    3    0    0 -0.62018943481E+01  0.41778480977E+01 -0.65073453192E+01  0.99127923209E+01  0.51100000000E-03 0. -1.
        -11    1    3    3    0    0 -0.16783434895E+02 -0.25801446102E+00  0.13044310049E+02  0.21258040437E+02  0.51100000000E-03 0.  1.
         12    1    3    3    0    0 -0.14008985097E+02  0.12754337605E+02 -0.39759596849E+01  0.19358022797E+02  0.00000000000E+00 0. -1.
</event>
<event>
 7    1  0.5487071E-013  0.5052887E+02  0.7816164E-02  0.1300439E+00
        -11   -1    0    0    0    0  0.00000000000E+00  0.00000000000E+00  0.45593999997E+02  0.45594000000E+02  0.51100000000E-03 0. -1.
         11   -1    0    0    0    0 -0.00000000000E+00 -0.00000000000E+00 -0.45593999997E+02  0.45594000000E+02  0.51100000000E-03 0.  1.
    9900012    2    1    2    0    0 -0.30469794525E+02 -0.16558277751E+02  0.21226859793E+02  0.50528874122E+02  0.30000043383E+02 0.  0.
        -12    1    1    2    0    0  0.30469794525E+02  0.16558277751E+02 -0.21226859793E+02  0.40659125878E+02  0.00000000000E+00 0.  1.
         11    1    3    3    0    0 -0.99010805250E+01 -0.14911421987E+02  0.72226389787E+01  0.19301513291E+02  0.51100000000E-03 0. -1.
        -11    1    3    3    0    0  0.25068136076E+01 -0.10853413242E+01  0.63439820013E+01  0.69071114185E+01  0.51100000000E-03 0.  1.
        -12    1    3    3    0    0 -0.23075527608E+02 -0.56151443926E+00  0.76602388127E+01  0.24320249413E+02  0.00000000000E+00 0.  1.
</event>
<event>
 7    1  0.5487071E-013  0.5052886E+02  0.7816164E-02  0.1300439E+00
        -11   -1    0    0    0    0  0.00000000000E+00  0.00000000000E+00  0.45593999997E+02  0.45594000000E+02  0.51100000000E-03 0.  1.
         11   -1    0    0    0    0 -0.00000000000E+00 -0.00000000000E+00 -0.45593999997E+02  0.45594000000E+02  0.51100000000E-03 0. -1.
    9900012    2    1    2    0    0  0.29313556767E+02  0.21478229450E+02  0.18236411168E+02  0.50528860278E+02  0.30000001302E+02 0.  0.
        -12    1    1    2    0    0 -0.29313556767E+02 -0.21478229450E+02 -0.18236411168E+02  0.40659139722E+02  0.00000000000E+00 0.  1.
         11    1    3    3    0    0  0.15286730549E+02  0.72147539922E+01  0.17537219702E+02  0.24357563121E+02  0.51100000000E-03 0. -1.
        -11    1    3    3    0    0  0.51729069096E+01 -0.29155255621E+01  0.30963998404E+01  0.66967863510E+01  0.51100000000E-03 0.  1.
         12    1    3    3    0    0  0.88539193079E+01  0.17179001020E+02 -0.23972083750E+01  0.19474510806E+02  0.00000000000E+00 0. -1.
</event>
<event>
 7    1  0.5487071E-013  0.5052890E+02  0.7816164E-02  0.1300439E+00
        -11   -1    0    0    0    0  0.00000000000E+00  0.00000000000E+00  0.45593999997E+02  0.45594000000E+02  0.51100000000E-03 0.  1.
         11   -1    0    0    0    0 -0.00000000000E+00 -0.00000000000E+00 -0.45593999997E+02  0.45594000000E+02  0.51100000000E-03 0. -1.
    9900012    2    1    2    0    0  0.23228674556E+02 -0.31648015351E+02 -0.10582747334E+02  0.50528895996E+02  0.30000109870E+02 0.  0.
        -12    1    1    2    0    0 -0.23228674556E+02  0.31648015351E+02  0.10582747334E+02  0.40659104004E+02  0.00000000000E+00 0.  1.
         11    1    3    3    0    0  0.14766953589E+01 -0.34584395533E+01  0.29310351681E+01  0.47678507469E+01  0.51100000000E-03 0.  1.
        -11    1    3    3    0    0  0.21354362453E+02 -0.10311448151E+02 -0.63229230340E+00  0.23722026738E+02  0.51100000000E-03 0. -1.
         12    1    3    3    0    0  0.39761674440E+00 -0.17878127646E+02 -0.12881490199E+02  0.22039018512E+02  0.00000000000E+00 0. -1.
</event>
<event>
 7    1  0.5487071E-013  0.5052885E+02  0.7816164E-02  0.1300439E+00
        -11   -1    0    0    0    0  0.00000000000E+00  0.00000000000E+00  0.45593999997E+02  0.45594000000E+02  0.51100000000E-03 0.  1.
         11   -1    0    0    0    0 -0.00000000000E+00 -0.00000000000E+00 -0.45593999997E+02  0.45594000000E+02  0.51100000000E-03 0. -1.
    9900012    2    1    2    0    0  0.37399679580E+02 -0.87425107448E+01 -0.13341612744E+02  0.50528853951E+02  0.29999982069E+02 0.  0.
        -12    1    1    2    0    0 -0.37399679580E+02  0.87425107448E+01  0.13341612744E+02  0.40659146049E+02  0.00000000000E+00 0.  1.
         11    1    3    3    0    0  0.15137562366E+02 -0.38283697865E+01 -0.10871485512E+02  0.19026071773E+02  0.51100000000E-03 0. -1.
        -11    1    3    3    0    0  0.20398694737E+02 -0.17001826178E+01 -0.10241882819E+02  0.22888720625E+02  0.51100000000E-03 0.  1.
        -12    1    3    3    0    0  0.18634224780E+01 -0.32139583405E+01  0.77717555867E+01  0.86140615533E+01  0.00000000000E+00 0.  1.
</event>
<event>
 7    1  0.5487071E-013  0.5052886E+02  0.7816164E-02  0.1300439E+00
        -11   -1    0    0    0    0  0.00000000000E+00  0.00000000000E+00  0.45593999997E+02  0.45594000000E+02  0.51100000000E-03 0.  1.
         11   -1    0    0    0    0 -0.00000000000E+00 -0.00000000000E+00 -0.45593999997E+02  0.45594000000E+02  0.51100000000E-03 0. -1.
    9900012    2    1    2    0    0  0.39427902388E+02  0.23083750658E+01 -0.96580262429E+01  0.50528861383E+02  0.30000004659E+02 0.  0.
        -12    1    1    2    0    0 -0.39427902388E+02 -0.23083750658E+01  0.96580262429E+01  0.40659138617E+02  0.00000000000E+00 0.  1.
         11    1    3    3    0    0  0.68505085241E+01 -0.86687594909E+01 -0.37473365455E+01  0.11667021454E+02  0.51100000000E-03 0. -1.
        -11    1    3    3    0    0  0.80370018095E+01 -0.33577231649E+01  0.27787868288E+01  0.91427216648E+01  0.51100000000E-03 0.  1.
         12    1    3    3    0    0  0.24540392055E+02  0.14334857722E+02 -0.86894765262E+01  0.29719118264E+02  0.00000000000E+00 0. -1.
</event>
<event>
 7    1  0.5487071E-013  0.5052881E+02  0.7816164E-02  0.1300439E+00
        -11   -1    0    0    0    0  0.00000000000E+00  0.00000000000E+00  0.45593999997E+02  0.45594000000E+02  0.51100000000E-03 0. -1.
         11   -1    0    0    0    0 -0.00000000000E+00 -0.00000000000E+00 -0.45593999997E+02  0.45594000000E+02  0.51100000000E-03 0.  1.
    9900012    2    1    2    0    0  0.36377296268E+02  0.29442031403E+01  0.17921874600E+02  0.50528811554E+02  0.29999853200E+02 0.  0.
        -12    1    1    2    0    0 -0.36377296268E+02 -0.29442031403E+01 -0.17921874600E+02  0.40659188446E+02  0.00000000000E+00 0.  1.
         11    1    3    3    0    0  0.26122833198E+02 -0.87455764280E+00  0.45787557984E+01  0.26535490767E+02  0.51100000000E-03 0. -1.
        -11    1    3    3    0    0  0.59585905197E+01 -0.15585879843E+01 -0.25560355939E+01  0.66683817905E+01  0.51100000000E-03 0.  1.
        -12    1    3    3    0    0  0.42958725507E+01  0.53773487674E+01  0.15899154395E+02  0.17324938996E+02  0.00000000000E+00 0.  1.
</event>
<event>
 7    1  0.5487071E-013  0.5052886E+02  0.7816164E-02  0.1300439E+00
        -11   -1    0    0    0    0  0.00000000000E+00  0.00000000000E+00  0.45593999997E+02  0.45594000000E+02  0.51100000000E-03 0.  1.
         11   -1    0    0    0    0 -0.00000000000E+00 -0.00000000000E+00 -0.45593999997E+02  0.45594000000E+02  0.51100000000E-03 0. -1.
    9900012    2    1    2    0    0  0.29194787548E+02 -0.56562330101E+01 -0.27727909030E+02  0.50528861654E+02  0.30000005484E+02 0.  0.
        -12    1    1    2    0    0 -0.29194787548E+02  0.56562330101E+01  0.27727909030E+02  0.40659138346E+02  0.00000000000E+00 0.  1.
         11    1    3    3    0    0 -0.75979698022E+00  0.18477757744E+01 -0.17158016936E+02  0.17273943158E+02  0.51100000000E-03 0. -1.
        -11    1    3    3    0    0  0.66533606913E+00 -0.14039369306E+01 -0.95320798632E-01  0.15565337471E+01  0.51100000000E-03 0.  1.
         12    1    3    3    0    0  0.29289248459E+02 -0.61000718539E+01 -0.10474571295E+02  0.31698384750E+02  0.00000000000E+00 0. -1.
</event>
<event>
 7    1  0.5487071E-013  0.5052887E+02  0.7816164E-02  0.1300439E+00
        -11   -1    0    0    0    0  0.00000000000E+00  0.00000000000E+00  0.45593999997E+02  0.45594000000E+02  0.51100000000E-03 0.  1.
         11   -1    0    0    0    0 -0.00000000000E+00 -0.00000000000E+00 -0.45593999997E+02  0.45594000000E+02  0.51100000000E-03 0. -1.
    9900012    2    1    2    0    0 -0.30373077315E+02  0.21437534767E+02 -0.16464310264E+02  0.50528865295E+02  0.30000016550E+02 0.  0.
        -12    1    1    2    0    0  0.30373077315E+02 -0.21437534767E+02  0.16464310264E+02  0.40659134705E+02  0.00000000000E+00 0.  1.
         11    1    3    3    0    0 -0.14581722372E+00 -0.14598453076E+01 -0.44693290684E+00  0.15336754120E+01  0.51100000000E-03 0. -1.
        -11    1    3    3    0    0  0.49104284233E+01  0.42751026997E+01 -0.16998484345E+01  0.67289148720E+01  0.51100000000E-03 0.  1.
         12    1    3    3    0    0 -0.35137688515E+02  0.18622277375E+02 -0.14317528923E+02  0.42266275011E+02  0.00000000000E+00 0. -1.
</event>
<event>
 7    1  0.5487071E-013  0.5052886E+02  0.7816164E-02  0.1300439E+00
        -11   -1    0    0    0    0  0.00000000000E+00  0.00000000000E+00  0.45593999997E+02  0.45594000000E+02  0.51100000000E-03 0.  1.
         11   -1    0    0    0    0 -0.00000000000E+00 -0.00000000000E+00 -0.45593999997E+02  0.45594000000E+02  0.51100000000E-03 0. -1.
    9900012    2    1    2    0    0  0.39519634386E+02 -0.34919263043E+01 -0.88977848682E+01  0.50528860475E+02  0.30000001900E+02 0.  0.
        -12    1    1    2    0    0 -0.39519634386E+02  0.34919263043E+01  0.88977848682E+01  0.40659139525E+02  0.00000000000E+00 0.  1.
         11    1    3    3    0    0  0.14244600271E+02 -0.10620279921E+02 -0.31257012014E+01  0.18040759151E+02  0.51100000000E-03 0.  1.
        -11    1    3    3    0    0  0.15972787662E+02 -0.48188260491E+01 -0.45724883310E+01  0.17299094773E+02  0.51100000000E-03 0. -1.
        -12    1    3    3    0    0  0.93022464534E+01  0.11947179665E+02 -0.11995953358E+01  0.15189006551E+02  0.00000000000E+00 0.  1.
</event>
<event>
 7    1  0.5487071E-013  0.5052885E+02  0.7816164E-02  0.1300439E+00
        -11   -1    0    0    0    0  0.00000000000E+00  0.00000000000E+00  0.45593999997E+02  0.45594000000E+02  0.51100000000E-03 0.  1.
         11   -1    0    0    0    0 -0.00000000000E+00 -0.00000000000E+00 -0.45593999997E+02  0.45594000000E+02  0.51100000000E-03 0. -1.
    9900012    2    1    2    0    0  0.25413220786E+02 -0.24077048101E+02 -0.20679226894E+02  0.50528850219E+02  0.29999970725E+02 0.  0.
        -12    1    1    2    0    0 -0.25413220786E+02  0.24077048101E+02  0.20679226894E+02  0.40659149781E+02  0.00000000000E+00 0.  1.
         11    1    3    3    0    0 -0.19468988116E+01 -0.63585889740E+01 -0.10979851764E+02  0.12836635609E+02  0.51100000000E-03 0. -1.
        -11    1    3    3    0    0 -0.12091246560E+01 -0.27121062287E+01  0.17547153793E+01  0.34491345223E+01  0.51100000000E-03 0.  1.
        -12    1    3    3    0    0  0.28569244253E+02 -0.15006352899E+02 -0.11454090510E+02  0.34243080088E+02  0.00000000000E+00 0.  1.
</event>
<event>
 7    1  0.5487071E-013  0.5052886E+02  0.7816164E-02  0.1300439E+00
        -11   -1    0    0    0    0  0.00000000000E+00  0.00000000000E+00  0.45593999997E+02  0.45594000000E+02  0.51100000000E-03 0. -1.
         11   -1    0    0    0    0 -0.00000000000E+00 -0.00000000000E+00 -0.45593999997E+02  0.45594000000E+02  0.51100000000E-03 0.  1.
    9900012    2    1    2    0    0 -0.40503168552E+02 -0.34970103119E+01  0.65581345737E+00  0.50528857914E+02  0.29999994115E+02 0.  0.
        -12    1    1    2    0    0  0.40503168552E+02  0.34970103119E+01 -0.65581345737E+00  0.40659142086E+02  0.00000000000E+00 0.  1.
         11    1    3    3    0    0 -0.17883751344E+01 -0.39772648633E+01 -0.15955036653E+01  0.46435496790E+01  0.51100000000E-03 0. -1.
        -11    1    3    3    0    0 -0.24641523581E+02 -0.10918426642E+02  0.54418504328E+01  0.27496008094E+02  0.51100000000E-03 0.  1.
        -12    1    3    3    0    0 -0.14073269837E+02  0.11398681194E+02 -0.31905333102E+01  0.18389300140E+02  0.00000000000E+00 0.  1.
</event>
<event>
 7    1  0.5487071E-013  0.5052886E+02  0.7816164E-02  0.1300439E+00
        -11   -1    0    0    0    0  0.00000000000E+00  0.00000000000E+00  0.45593999997E+02  0.45594000000E+02  0.51100000000E-03 0.  1.
         11   -1    0    0    0    0 -0.00000000000E+00 -0.00000000000E+00 -0.45593999997E+02  0.45594000000E+02  0.51100000000E-03 0. -1.
    9900012    2    1    2    0    0  0.35032753733E+02  0.19843536329E+02 -0.56662002418E+01  0.50528860888E+02  0.30000003154E+02 0.  0.
        -12    1    1    2    0    0 -0.35032753733E+02 -0.19843536329E+02  0.56662002418E+01  0.40659139112E+02  0.00000000000E+00 0.  1.
         11    1    3    3    0    0  0.16730388618E+02  0.21102535888E+01 -0.75642911626E+01  0.18481817405E+02  0.51100000000E-03 0. -1.
        -11    1    3    3    0    0 -0.14405597792E+01 -0.26773358595E+01 -0.16000500512E+01  0.34356222449E+01  0.51100000000E-03 0.  1.
        -12    1    3    3    0    0  0.19742924894E+02  0.20410618600E+02  0.34981409720E+01  0.28611421238E+02  0.00000000000E+00 0.  1.
</event>
<event>
 7    1  0.5487071E-013  0.5052887E+02  0.7816164E-02  0.1300439E+00
        -11   -1    0    0    0    0  0.00000000000E+00  0.00000000000E+00  0.45593999997E+02  0.45594000000E+02  0.51100000000E-03 0.  1.
         11   -1    0    0    0    0 -0.00000000000E+00 -0.00000000000E+00 -0.45593999997E+02  0.45594000000E+02  0.51100000000E-03 0. -1.
    9900012    2    1    2    0    0  0.27950115465E+02 -0.19596255336E+02 -0.22089431364E+02  0.50528866270E+02  0.30000019514E+02 0.  0.
        -12    1    1    2    0    0 -0.27950115465E+02  0.19596255336E+02  0.22089431364E+02  0.40659133730E+02  0.00000000000E+00 0.  1.
         11    1    3    3    0    0 -0.47189238285E+00 -0.12860247621E+00  0.66635498165E+00  0.82658952363E+00  0.51100000000E-03 0. -1.
        -11    1    3    3    0    0  0.10618350620E+02  0.45465975704E+01  0.89275632130E+00  0.11585246370E+02  0.51100000000E-03 0.  1.
         12    1    3    3    0    0  0.17803657228E+02 -0.24014250430E+02 -0.23648542667E+02  0.38117030376E+02  0.00000000000E+00 0. -1.
</event>
<event>
 7    1  0.5487071E-013  0.5052886E+02  0.7816164E-02  0.1300439E+00
        -11   -1    0    0    0    0  0.00000000000E+00  0.00000000000E+00  0.45593999997E+02  0.45594000000E+02  0.51100000000E-03 0. -1.
         11   -1    0    0    0    0 -0.00000000000E+00 -0.00000000000E+00 -0.45593999997E+02  0.45594000000E+02  0.51100000000E-03 0.  1.
    9900012    2    1    2    0    0 -0.22161170439E+02 -0.13990053947E+02  0.31085791024E+02  0.50528862179E+02  0.30000007081E+02 0.  0.
        -12    1    1    2    0    0  0.22161170439E+02  0.13990053947E+02 -0.31085791024E+02  0.40659137821E+02  0.00000000000E+00 0.  1.
         11    1    3    3    0    0 -0.14203472707E+02 -0.71637697023E+01  0.15731245786E+02  0.22372535116E+02  0.51100000000E-03 0. -1.
        -11    1    3    3    0    0 -0.82149745189E+01  0.20495685921E+01 -0.19662284873E+01  0.86920994291E+01  0.51100000000E-03 0.  1.
         12    1    3    3    0    0  0.25727678659E+00 -0.88758528373E+01  0.17320773726E+02  0.19464227634E+02  0.00000000000E+00 0. -1.
</event>
<event>
 7    1  0.5487071E-013  0.5052886E+02  0.7816164E-02  0.1300439E+00
        -11   -1    0    0    0    0  0.00000000000E+00  0.00000000000E+00  0.45593999997E+02  0.45594000000E+02  0.51100000000E-03 0.  1.
         11   -1    0    0    0    0 -0.00000000000E+00 -0.00000000000E+00 -0.45593999997E+02  0.45594000000E+02  0.51100000000E-03 0. -1.
    9900012    2    1    2    0    0  0.54939654799E+01  0.20010104038E+02 -0.34965379479E+02  0.50528859792E+02  0.29999999825E+02 0.  0.
        -12    1    1    2    0    0 -0.54939654799E+01 -0.20010104038E+02  0.34965379479E+02  0.40659140208E+02  0.00000000000E+00 0.  1.
         11    1    3    3    0    0  0.57488562743E+00 -0.54009819455E+01 -0.15711213844E+02  0.16623577839E+02  0.51100000000E-03 0.  1.
        -11    1    3    3    0    0  0.38132645237E+01  0.63032083254E+01 -0.96092225329E+00  0.74293198450E+01  0.51100000000E-03 0. -1.
        -12    1    3    3    0    0  0.11058153288E+01  0.19107877658E+02 -0.18293243382E+02  0.26475962108E+02  0.00000000000E+00 0.  1.
</event>
<event>
 7    1  0.5487071E-013  0.5052886E+02  0.7816164E-02  0.1300439E+00
        -11   -1    0    0    0    0  0.00000000000E+00  0.00000000000E+00  0.45593999997E+02  0.45594000000E+02  0.51100000000E-03 0.  1.
         11   -1    0    0    0    0 -0.00000000000E+00 -0.00000000000E+00 -0.45593999997E+02  0.45594000000E+02  0.51100000000E-03 0. -1.
    9900012    2    1    2    0    0 -0.21571592937E+01 -0.20668838926E+01 -0.40549236769E+02  0.50528856529E+02  0.29999989906E+02 0.  0.
        -12    1    1    2    0    0  0.21571592937E+01  0.20668838926E+01  0.40549236769E+02  0.40659143471E+02  0.00000000000E+00 0.  1.
         11    1    3    3    0    0  0.32190553960E+01 -0.67719427814E+01 -0.10072148291E+02  0.12556659513E+02  0.51100000000E-03 0. -1.
        -11    1    3    3    0    0 -0.33823257871E+01 -0.46733733819E+01  0.25959795357E+00  0.57747673421E+01  0.51100000000E-03 0.  1.
         12    1    3    3    0    0 -0.19938889025E+01  0.93784322707E+01 -0.30736686431E+02  0.32197429674E+02  0.00000000000E+00 0. -1.
</event>
<event>
 7    1  0.5487071E-013  0.5052886E+02  0.7816164E-02  0.1300439E+00
        -11   -1    0    0    0    0  0.00000000000E+00  0.00000000000E+00  0.45593999997E+02  0.45594000000E+02  0.51100000000E-03 0. -1.
         11   -1    0    0    0    0 -0.00000000000E+00 -0.00000000000E+00 -0.45593999997E+02  0.45594000000E+02  0.51100000000E-03 0.  1.
    9900012    2    1    2    0    0 -0.20172743269E+02 -0.10844503887E+02  0.33594979976E+02  0.50528861850E+02  0.30000006078E+02 0.  0.
        -12    1    1    2    0    0  0.20172743269E+02  0.10844503887E+02 -0.33594979976E+02  0.40659138150E+02  0.00000000000E+00 0.  1.
         11    1    3    3    0    0 -0.26775062421E+01 -0.18927522357E+01  0.24453382178E+02  0.24672240492E+02  0.51100000000E-03 0. -1.
        -11    1    3    3    0    0 -0.15853964863E+02 -0.76931834940E+01  0.12713315548E+02  0.21729281318E+02  0.51100000000E-03 0.  1.
        -12    1    3    3    0    0 -0.16412721642E+01 -0.12585681571E+01 -0.35717177490E+01  0.41273400395E+01  0.00000000000E+00 0.  1.
</event>
<event>
 7    1  0.5487071E-013  0.5052887E+02  0.7816164E-02  0.1300439E+00
        -11   -1    0    0    0    0  0.00000000000E+00  0.00000000000E+00  0.45593999997E+02  0.45594000000E+02  0.51100000000E-03 0.  1.
         11   -1    0    0    0    0 -0.00000000000E+00 -0.00000000000E+00 -0.45593999997E+02  0.45594000000E+02  0.51100000000E-03 0. -1.
    9900012    2    1    2    0    0  0.23841143919E+02 -0.31962181242E+02 -0.79488051446E+01  0.50528872164E+02  0.30000037430E+02 0.  0.
        -12    1    1    2    0    0 -0.23841143919E+02  0.31962181242E+02  0.79488051446E+01  0.40659127836E+02  0.00000000000E+00 0.  1.
         11    1    3    3    0    0 -0.63367981046E+00 -0.76075144672E+01 -0.74359715906E+00  0.76699910995E+01  0.51100000000E-03 0.  1.
        -11    1    3    3    0    0  0.24048323643E+01 -0.18962301152E+02 -0.62853099036E+01  0.20121063703E+02  0.51100000000E-03 0. -1.
        -12    1    3    3    0    0  0.22069991366E+02 -0.53923656229E+01 -0.91989808201E+00  0.22737817362E+02  0.00000000000E+00 0.  1.
</event>
<event>
 7    1  0.5487071E-013  0.5052887E+02  0.7816164E-02  0.1300439E+00
        -11   -1    0    0    0    0  0.00000000000E+00  0.00000000000E+00  0.45593999997E+02  0.45594000000E+02  0.51100000000E-03 0.  1.
         11   -1    0    0    0    0 -0.00000000000E+00 -0.00000000000E+00 -0.45593999997E+02  0.45594000000E+02  0.51100000000E-03 0. -1.
    9900012    2    1    2    0    0  0.89923074332E+01 -0.24511403187E+02 -0.31168810998E+02  0.50528865009E+02  0.30000015682E+02 0.  0.
        -12    1    1    2    0    0 -0.89923074332E+01  0.24511403187E+02  0.31168810998E+02  0.40659134991E+02  0.00000000000E+00 0.  1.
         11    1    3    3    0    0 -0.74110760568E+00 -0.76678837246E+01 -0.15276827630E+02  0.17109270703E+02  0.51100000000E-03 0. -1.
        -11    1    3    3    0    0  0.33220935332E+01  0.35420163312E+00  0.47440179641E+01  0.58023677017E+01  0.51100000000E-03 0.  1.
         12    1    3    3    0    0  0.64113215057E+01 -0.17197721096E+02 -0.20636001332E+02  0.27617226605E+02  0.00000000000E+00 0. -1.
</event>
<event>
 7    1  0.5487071E-013  0.5052885E+02  0.7816164E-02  0.1300439E+00
        -11   -1    0    0    0    0  0.00000000000E+00  0.00000000000E+00  0.45593999997E+02  0.45594000000E+02  0.51100000000E-03 0.  1.
         11   -1    0    0    0    0 -0.00000000000E+00 -0.00000000000E+00 -0.45593999997E+02  0.45594000000E+02  0.51100000000E-03 0. -1.
    9900012    2    1    2    0    0  0.29982564144E+01  0.37052812005E+02  0.16470149957E+02  0.50528852707E+02  0.29999978287E+02 0.  0.
        -12    1    1    2    0    0 -0.29982564144E+01 -0.37052812005E+02 -0.16470149957E+02  0.40659147293E+02  0.00000000000E+00 0.  1.
         11    1    3    3    0    0 -0.40410758091E+01  0.15347747667E+01  0.17385113461E+01  0.46592112252E+01  0.51100000000E-03 0. -1.
        -11    1    3    3    0    0 -0.41389401205E+01  0.12456711485E+02 -0.44482270008E+01  0.13859553025E+02  0.51100000000E-03 0.  1.
        -12    1    3    3    0    0  0.11178272344E+02  0.23061325753E+02  0.19179865612E+02  0.32010088456E+02  0.00000000000E+00 0.  1.
</event>
<event>
 7    1  0.5487071E-013  0.5052885E+02  0.7816164E-02  0.1300439E+00
        -11   -1    0    0    0    0  0.00000000000E+00  0.00000000000E+00  0.45593999997E+02  0.45594000000E+02  0.51100000000E-03 0.  1.
         11   -1    0    0    0    0 -0.00000000000E+00 -0.00000000000E+00 -0.45593999997E+02  0.45594000000E+02  0.51100000000E-03 0. -1.
    9900012    2    1    2    0    0  0.21981968242E+02  0.15677826914E+01 -0.34168722533E+02  0.50528850108E+02  0.29999970390E+02 0.  0.
        -12    1    1    2    0    0 -0.21981968242E+02 -0.15677826914E+01  0.34168722533E+02  0.40659149892E+02  0.00000000000E+00 0.  1.
         11    1    3    3    0    0  0.92929628633E+01  0.12809558714E+02 -0.18179031171E+02  0.24102305446E+02  0.51100000000E-03 0. -1.
        -11    1    3    3    0    0  0.88603556631E+01 -0.77412301080E+01 -0.17441988178E+02  0.21039379695E+02  0.51100000000E-03 0.  1.
        -12    1    3    3    0    0  0.38286497159E+01 -0.35005459143E+01  0.14522968169E+01  0.53871649678E+01  0.00000000000E+00 0.  1.
</event>
<event>
 7    1  0.5487071E-013  0.5052886E+02  0.7816164E-02  0.1300439E+00
        -11   -1    0    0    0    0  0.00000000000E+00  0.00000000000E+00  0.45593999997E+02  0.45594000000E+02  0.51100000000E-03 0.  1.
         11   -1    0    0    0    0 -0.00000000000E+00 -0.00000000000E+00 -0.45593999997E+02  0.45594000000E+02  0.51100000000E-03 0. -1.
    9900012    2    1    2    0    0  0.10475040063E+02 -0.36904521181E+02 -0.13472023702E+02  0.50528861168E+02  0.30000004006E+02 0.  0.
        -12    1    1    2    0    0 -0.10475040063E+02  0.36904521181E+02  0.13472023702E+02  0.40659138832E+02  0.00000000000E+00 0.  1.
         11    1    3    3    0    0  0.18565791980E+01 -0.60022503012E+00 -0.16610837251E+01  0.25624901577E+01  0.51100000000E-03 0. -1.
        -11    1    3    3    0    0  0.14616285963E+02 -0.11457326134E+02 -0.12516961013E+02  0.22395991846E+02  0.51100000000E-03 0.  1.
        -12    1    3    3    0    0 -0.59978250978E+01 -0.24846970017E+02  0.70602103635E+00  0.25570379164E+02  0.00000000000E+00 0.  1.
</event>
<event>
 7    1  0.5487071E-013  0.5052884E+02  0.7816164E-02  0.1300439E+00
        -11   -1    0    0    0    0  0.00000000000E+00  0.00000000000E+00  0.45593999997E+02  0.45594000000E+02  0.51100000000E-03 0.  1.
         11   -1    0    0    0    0 -0.00000000000E+00 -0.00000000000E+00 -0.45593999997E+02  0.45594000000E+02  0.51100000000E-03 0. -1.
    9900012    2    1    2    0    0  0.13926801935E+02  0.17424415816E+01 -0.38159861619E+02  0.50528844160E+02  0.29999952310E+02 0.  0.
        -12    1    1    2    0    0 -0.13926801935E+02 -0.17424415816E+01  0.38159861619E+02  0.40659155840E+02  0.00000000000E+00 0.  1.
         11    1    3    3    0    0  0.17727572148E+02  0.44001646651E+01 -0.15974037265E+02  0.24265162891E+02  0.51100000000E-03 0. -1.
        -11    1    3    3    0    0  0.16728585777E+01 -0.11428566965E+01  0.10930409635E+01  0.23020243393E+01  0.51100000000E-03 0.  1.
        -12    1    3    3    0    0 -0.54736287912E+01 -0.15148663870E+01 -0.23278865318E+02  0.23961656930E+02  0.00000000000E+00 0.  1.
</event>
<event>
 7    1  0.5487071E-013  0.5052886E+02  0.7816164E-02  0.1300439E+00
        -11   -1    0    0    0    0  0.00000000000E+00  0.00000000000E+00  0.45593999997E+02  0.45594000000E+02  0.51100000000E-03 0.  1.
         11   -1    0    0    0    0 -0.00000000000E+00 -0.00000000000E+00 -0.45593999997E+02  0.45594000000E+02  0.51100000000E-03 0. -1.
    9900012    2    1    2    0    0 -0.19397900809E+02  0.95230611107E+01 -0.34441234348E+02  0.50528857460E+02  0.29999992736E+02 0.  0.
        -12    1    1    2    0    0  0.19397900809E+02 -0.95230611107E+01  0.34441234348E+02  0.40659142540E+02  0.00000000000E+00 0.  1.
         11    1    3    3    0    0 -0.11968401694E+02 -0.26240668072E+01 -0.12754343493E+02  0.17686199250E+02  0.51100000000E-03 0. -1.
        -11    1    3    3    0    0 -0.12698812399E+02  0.34784233697E+01 -0.67755271114E+01  0.14807668060E+02  0.51100000000E-03 0.  1.
        -12    1    3    3    0    0  0.52693132842E+01  0.86687045482E+01 -0.14911363743E+02  0.18034990150E+02  0.00000000000E+00 0.  1.
</event>
<event>
 7    1  0.5487071E-013  0.5052884E+02  0.7816164E-02  0.1300439E+00
        -11   -1    0    0    0    0  0.00000000000E+00  0.00000000000E+00  0.45593999997E+02  0.45594000000E+02  0.51100000000E-03 0. -1.
         11   -1    0    0    0    0 -0.00000000000E+00 -0.00000000000E+00 -0.45593999997E+02  0.45594000000E+02  0.51100000000E-03 0.  1.
    9900012    2    1    2    0    0 -0.76161360213E+01  0.34880607811E+02  0.19455205053E+02  0.50528839497E+02  0.29999938135E+02 0.  0.
        -12    1    1    2    0    0  0.76161360213E+01 -0.34880607811E+02 -0.19455205053E+02  0.40659160503E+02  0.00000000000E+00 0.  1.
         11    1    3    3    0    0  0.95384543090E+01  0.15218120161E+02  0.64863557263E+01  0.19095709013E+02  0.51100000000E-03 0. -1.
        -11    1    3    3    0    0 -0.15186757608E+01  0.89904712393E+01  0.13395897453E+01  0.92157175585E+01  0.51100000000E-03 0.  1.
         12    1    3    3    0    0 -0.15635914569E+02  0.10672016410E+02  0.11629259582E+02  0.22217412926E+02  0.00000000000E+00 0. -1.
</event>
<event>
 7    1  0.5487071E-013  0.5052886E+02  0.7816164E-02  0.1300439E+00
        -11   -1    0    0    0    0  0.00000000000E+00  0.00000000000E+00  0.45593999997E+02  0.45594000000E+02  0.51100000000E-03 0.  1.
         11   -1    0    0    0    0 -0.00000000000E+00 -0.00000000000E+00 -0.45593999997E+02  0.45594000000E+02  0.51100000000E-03 0. -1.
    9900012    2    1    2    0    0 -0.18519171196E+02 -0.35201987104E+02  0.84276930412E+01  0.50528860710E+02  0.30000002613E+02 0.  0.
        -12    1    1    2    0    0  0.18519171196E+02  0.35201987104E+02 -0.84276930412E+01  0.40659139290E+02  0.00000000000E+00 0.  1.
         11    1    3    3    0    0  0.24368367830E+01 -0.55362040977E+01  0.15413927325E+01  0.62420846786E+01  0.51100000000E-03 0. -1.
        -11    1    3    3    0    0  0.14980902609E+01 -0.18520375365E+02  0.14598138967E+01  0.18638123161E+02  0.51100000000E-03 0.  1.
         12    1    3    3    0    0 -0.22454098240E+02 -0.11145407641E+02  0.54264864120E+01  0.25648652870E+02  0.00000000000E+00 0. -1.
</event>
<event>
 7    1  0.5487071E-013  0.5052888E+02  0.7816164E-02  0.1300439E+00
        -11   -1    0    0    0    0  0.00000000000E+00  0.00000000000E+00  0.45593999997E+02  0.45594000000E+02  0.51100000000E-03 0. -1.
         11   -1    0    0    0    0 -0.00000000000E+00 -0.00000000000E+00 -0.45593999997E+02  0.45594000000E+02  0.51100000000E-03 0.  1.
    9900012    2    1    2    0    0  0.10379403587E+02 -0.37045102305E+02 -0.13156472447E+02  0.50528875675E+02  0.30000048102E+02 0.  0.
        -12    1    1    2    0    0 -0.10379403587E+02  0.37045102305E+02  0.13156472447E+02  0.40659124325E+02  0.00000000000E+00 0.  1.
         11    1    3    3    0    0  0.89959153751E+01 -0.28154759671E+02 -0.18050022014E+01  0.29612075556E+02  0.51100000000E-03 0. -1.
        -11    1    3    3    0    0 -0.31274917783E+01 -0.27571275222E+01  0.26775438526E+01  0.49550174915E+01  0.51100000000E-03 0.  1.
        -12    1    3    3    0    0  0.45109799898E+01 -0.61332151127E+01 -0.14029014098E+02  0.15961782627E+02  0.00000000000E+00 0.  1.
</event>
<event>
 7    1  0.5487071E-013  0.5052886E+02  0.7816164E-02  0.1300439E+00
        -11   -1    0    0    0    0  0.00000000000E+00  0.00000000000E+00  0.45593999997E+02  0.45594000000E+02  0.51100000000E-03 0.  1.
         11   -1    0    0    0    0 -0.00000000000E+00 -0.00000000000E+00 -0.45593999997E+02  0.45594000000E+02  0.51100000000E-03 0. -1.
    9900012    2    1    2    0    0 -0.39486818368E+02  0.90806785243E+01 -0.33909364142E+01  0.50528855924E+02  0.29999988066E+02 0.  0.
        -12    1    1    2    0    0  0.39486818368E+02 -0.90806785243E+01  0.33909364142E+01  0.40659144076E+02  0.00000000000E+00 0.  1.
         11    1    3    3    0    0 -0.13183620891E+02 -0.15922467321E+01 -0.56670465733E+00  0.13291510971E+02  0.51100000000E-03 0. -1.
        -11    1    3    3    0    0 -0.24968456261E+02  0.33817318156E+00 -0.71200820631E+01  0.25966011207E+02  0.51100000000E-03 0.  1.
        -12    1    3    3    0    0 -0.13347412155E+01  0.10334752075E+02  0.42958503062E+01  0.11271333746E+02  0.00000000000E+00 0.  1.
</event>
<event>
 7    1  0.5487071E-013  0.5052890E+02  0.7816164E-02  0.1300439E+00
        -11   -1    0    0    0    0  0.00000000000E+00  0.00000000000E+00  0.45593999997E+02  0.45594000000E+02  0.51100000000E-03 0.  1.
         11   -1    0    0    0    0 -0.00000000000E+00 -0.00000000000E+00 -0.45593999997E+02  0.45594000000E+02  0.51100000000E-03 0. -1.
    9900012    2    1    2    0    0 -0.21227431251E+02  0.20457537735E+02 -0.28000849328E+02  0.50528901993E+02  0.30000128097E+02 0.  0.
        -12    1    1    2    0    0  0.21227431251E+02 -0.20457537735E+02  0.28000849328E+02  0.40659098007E+02  0.00000000000E+00 0.  1.
         11    1    3    3    0    0 -0.82642179247E+01  0.47199980215E+01  0.41270735246E+01  0.10373447612E+02  0.51100000000E-03 0. -1.
        -11    1    3    3    0    0 -0.59038879416E+01 -0.46478707682E+00 -0.48601548465E+01  0.76611373338E+01  0.51100000000E-03 0.  1.
         12    1    3    3    0    0 -0.70593253849E+01  0.16202326790E+02 -0.27267768006E+02  0.32494317046E+02  0.00000000000E+00 0. -1.
</event>
<event>
 7    1  0.5487071E-013  0.5052886E+02  0.7816164E-02  0.1300439E+00
        -11   -1    0    0    0    0  0.00000000000E+00  0.00000000000E+00  0.45593999997E+02  0.45594000000E+02  0.51100000000E-03 0. -1.
         11   -1    0    0    0    0 -0.00000000000E+00 -0.00000000000E+00 -0.45593999997E+02  0.45594000000E+02  0.51100000000E-03 0.  1.
    9900012    2    1    2    0    0 -0.45871473253E+01 -0.31209938068E+02  0.25652747794E+02  0.50528860509E+02  0.30000002003E+02 0.  0.
        -12    1    1    2    0    0  0.45871473253E+01  0.31209938068E+02 -0.25652747794E+02  0.40659139491E+02  0.00000000000E+00 0.  1.
         11    1    3    3    0    0 -0.12280730321E+02 -0.60997490007E+01  0.16265368499E+02  0.21274056683E+02  0.51100000000E-03 0. -1.
        -11    1    3    3    0    0 -0.87758936367E+00 -0.55870671640E+00 -0.81384846536E+00  0.13208580059E+01  0.51100000000E-03 0.  1.
        -12    1    3    3    0    0  0.85711723597E+01 -0.24551482351E+02  0.10201227760E+02  0.27933945820E+02  0.00000000000E+00 0.  1.
</event>
<event>
 7    1  0.5487071E-013  0.5052887E+02  0.7816164E-02  0.1300439E+00
        -11   -1    0    0    0    0  0.00000000000E+00  0.00000000000E+00  0.45593999997E+02  0.45594000000E+02  0.51100000000E-03 0. -1.
         11   -1    0    0    0    0 -0.00000000000E+00 -0.00000000000E+00 -0.45593999997E+02  0.45594000000E+02  0.51100000000E-03 0.  1.
    9900012    2    1    2    0    0  0.19492250306E+02 -0.12811741997E+02  0.33302801027E+02  0.50528866816E+02  0.30000021175E+02 0.  0.
        -12    1    1    2    0    0 -0.19492250306E+02  0.12811741997E+02 -0.33302801027E+02  0.40659133184E+02  0.00000000000E+00 0.  1.
         11    1    3    3    0    0  0.13076045172E+02 -0.10859943276E+02  0.64722313133E+01  0.18188213318E+02  0.51100000000E-03 0. -1.
        -11    1    3    3    0    0 -0.57011960507E+01 -0.16499551574E+01  0.88951778824E+01  0.10693464277E+02  0.51100000000E-03 0.  1.
         12    1    3    3    0    0  0.12117401185E+02 -0.30184356438E+00  0.17935391831E+02  0.21647189221E+02  0.00000000000E+00 0. -1.
</event>
<event>
 7    1  0.5487071E-013  0.5052886E+02  0.7816164E-02  0.1300439E+00
        -11   -1    0    0    0    0  0.00000000000E+00  0.00000000000E+00  0.45593999997E+02  0.45594000000E+02  0.51100000000E-03 0.  1.
         11   -1    0    0    0    0 -0.00000000000E+00 -0.00000000000E+00 -0.45593999997E+02  0.45594000000E+02  0.51100000000E-03 0. -1.
    9900012    2    1    2    0    0  0.29533596286E+02 -0.94306168548E+01 -0.26305815849E+02  0.50528858453E+02  0.29999995754E+02 0.  0.
        -12    1    1    2    0    0 -0.29533596286E+02  0.94306168548E+01  0.26305815849E+02  0.40659141547E+02  0.00000000000E+00 0.  1.
         11    1    3    3    0    0 -0.12909391176E+01 -0.11071292124E+01  0.76971328679E-02  0.17006817472E+01  0.51100000000E-03 0. -1.
        -11    1    3    3    0    0  0.12334127457E+02 -0.63816015145E+00  0.35699573680E+01  0.12856225899E+02  0.51100000000E-03 0.  1.
        -12    1    3    3    0    0  0.18490407946E+02 -0.76853274909E+01 -0.29883470350E+02  0.35971950807E+02  0.00000000000E+00 0.  1.
</event>
<event>
 7    1  0.5487071E-013  0.5052880E+02  0.7816164E-02  0.1300439E+00
        -11   -1    0    0    0    0  0.00000000000E+00  0.00000000000E+00  0.45593999997E+02  0.45594000000E+02  0.51100000000E-03 0. -1.
         11   -1    0    0    0    0 -0.00000000000E+00 -0.00000000000E+00 -0.45593999997E+02  0.45594000000E+02  0.51100000000E-03 0.  1.
    9900012    2    1    2    0    0  0.34329642524E+02 -0.18908590699E+02  0.10821799469E+02  0.50528800526E+02  0.29999819679E+02 0.  0.
        -12    1    1    2    0    0 -0.34329642524E+02  0.18908590699E+02 -0.10821799469E+02  0.40659199474E+02  0.00000000000E+00 0.  1.
         11    1    3    3    0    0  0.14396858483E+02 -0.15374577730E+02 -0.45025360387E+00  0.21067745563E+02  0.51100000000E-03 0. -1.
        -11    1    3    3    0    0  0.18976866441E+01 -0.75297478833E+01  0.71034050696E+01  0.10524100039E+02  0.51100000000E-03 0.  1.
         12    1    3    3    0    0  0.18035097397E+02  0.39957349135E+01  0.41686480035E+01  0.18936954924E+02  0.00000000000E+00 0. -1.
</event>
<event>
 7    1  0.5487071E-013  0.5052886E+02  0.7816164E-02  0.1300439E+00
        -11   -1    0    0    0    0  0.00000000000E+00  0.00000000000E+00  0.45593999997E+02  0.45594000000E+02  0.51100000000E-03 0. -1.
         11   -1    0    0    0    0 -0.00000000000E+00 -0.00000000000E+00 -0.45593999997E+02  0.45594000000E+02  0.51100000000E-03 0.  1.
    9900012    2    1    2    0    0 -0.26097457245E+02 -0.57007124697E+01  0.30652740839E+02  0.50528856892E+02  0.29999991009E+02 0.  0.
        -12    1    1    2    0    0  0.26097457245E+02  0.57007124697E+01 -0.30652740839E+02  0.40659143108E+02  0.00000000000E+00 0.  1.
         11    1    3    3    0    0 -0.14101329460E+01 -0.18996416677E+01 -0.17483298273E+01  0.29417292257E+01  0.51100000000E-03 0. -1.
        -11    1    3    3    0    0  0.20514011867E+01  0.36863570732E+00 -0.26076923989E+01  0.33382928305E+01  0.51100000000E-03 0.  1.
         12    1    3    3    0    0 -0.26738725485E+02 -0.41697065094E+01  0.35008763066E+02  0.44248834836E+02  0.00000000000E+00 0. -1.
</event>
<event>
 7    1  0.5487071E-013  0.5052886E+02  0.7816164E-02  0.1300439E+00
        -11   -1    0    0    0    0  0.00000000000E+00  0.00000000000E+00  0.45593999997E+02  0.45594000000E+02  0.51100000000E-03 0.  1.
         11   -1    0    0    0    0 -0.00000000000E+00 -0.00000000000E+00 -0.45593999997E+02  0.45594000000E+02  0.51100000000E-03 0. -1.
    9900012    2    1    2    0    0  0.35095788149E+02  0.51534251809E+01 -0.19871927561E+02  0.50528860291E+02  0.30000001341E+02 0.  0.
        -12    1    1    2    0    0 -0.35095788149E+02 -0.51534251809E+01  0.19871927561E+02  0.40659139709E+02  0.00000000000E+00 0.  1.
         11    1    3    3    0    0  0.67818993090E+01 -0.11440318862E+01 -0.19604169827E+02  0.20775621340E+02  0.51100000000E-03 0. -1.
        -11    1    3    3    0    0  0.18273306394E+00  0.78532258844E+00 -0.72378510303E+00  0.10835073037E+01  0.51100000000E-03 0.  1.
        -12    1    3    3    0    0  0.28131155776E+02  0.55121344787E+01  0.45602736871E+00  0.28669731648E+02  0.00000000000E+00 0.  1.
</event>
<event>
 7    1  0.5487071E-013  0.5052886E+02  0.7816164E-02  0.1300439E+00
        -11   -1    0    0    0    0  0.00000000000E+00  0.00000000000E+00  0.45593999997E+02  0.45594000000E+02  0.51100000000E-03 0. -1.
         11   -1    0    0    0    0 -0.00000000000E+00 -0.00000000000E+00 -0.45593999997E+02  0.45594000000E+02  0.51100000000E-03 0.  1.
    9900012    2    1    2    0    0  0.25936178250E+02 -0.76084481899E+01  0.30374200250E+02  0.50528857524E+02  0.29999992930E+02 0.  0.
        -12    1    1    2    0    0 -0.25936178250E+02  0.76084481899E+01 -0.30374200250E+02  0.40659142476E+02  0.00000000000E+00 0.  1.
         11    1    3    3    0    0  0.12413470951E+02  0.21013795959E+01  0.88644961226E+01  0.15397705966E+02  0.51100000000E-03 0. -1.
        -11    1    3    3    0    0 -0.28297401807E+01  0.44133965851E+01  0.82655523679E+01  0.97879954595E+01  0.51100000000E-03 0.  1.
        -12    1    3    3    0    0  0.16352447480E+02 -0.14123224371E+02  0.13244151759E+02  0.25343156098E+02  0.00000000000E+00 0.  1.
</event>
<event>
 7    1  0.5487071E-013  0.5052887E+02  0.7816164E-02  0.1300439E+00
        -11   -1    0    0    0    0  0.00000000000E+00  0.00000000000E+00  0.45593999997E+02  0.45594000000E+02  0.51100000000E-03 0. -1.
         11   -1    0    0    0    0 -0.00000000000E+00 -0.00000000000E+00 -0.45593999997E+02  0.45594000000E+02  0.51100000000E-03 0.  1.
    9900012    2    1    2    0    0  0.37501928533E+02 -0.13323011474E+02 -0.83227062971E+01  0.50528871645E+02  0.30000035854E+02 0.  0.
        -12    1    1    2    0    0 -0.37501928533E+02  0.13323011474E+02  0.83227062971E+01  0.40659128355E+02  0.00000000000E+00 0.  1.
         11    1    3    3    0    0  0.85270148688E+01 -0.14099760329E+02  0.25023557521E+01  0.16666583588E+02  0.51100000000E-03 0. -1.
        -11    1    3    3    0    0  0.49526187231E+01 -0.51071476638E+01 -0.73927151327E+00  0.71524759424E+01  0.51100000000E-03 0.  1.
        -12    1    3    3    0    0  0.24022294941E+02  0.58838965191E+01 -0.10085790536E+02  0.26709812115E+02  0.00000000000E+00 0.  1.
</event>
<event>
 7    1  0.5487071E-013  0.5052885E+02  0.7816164E-02  0.1300439E+00
        -11   -1    0    0    0    0  0.00000000000E+00  0.00000000000E+00  0.45593999997E+02  0.45594000000E+02  0.51100000000E-03 0. -1.
         11   -1    0    0    0    0 -0.00000000000E+00 -0.00000000000E+00 -0.45593999997E+02  0.45594000000E+02  0.51100000000E-03 0.  1.
    9900012    2    1    2    0    0 -0.38269548651E+02  0.16482903319E+01 -0.13634203803E+02  0.50528846931E+02  0.29999960731E+02 0.  0.
        -12    1    1    2    0    0  0.38269548651E+02 -0.16482903319E+01  0.13634203803E+02  0.40659153069E+02  0.00000000000E+00 0.  1.
         11    1    3    3    0    0 -0.21465838248E+02  0.11562927953E+02 -0.39468103970E+01  0.24699409449E+02  0.51100000000E-03 0. -1.
        -11    1    3    3    0    0 -0.41538927541E+01  0.35520268351E+01 -0.20615000027E+01  0.58413613287E+01  0.51100000000E-03 0.  1.
         12    1    3    3    0    0 -0.12649817649E+02 -0.13466664456E+02 -0.76258934037E+01  0.19988076154E+02  0.00000000000E+00 0. -1.
</event>
<event>
 7    1  0.5487071E-013  0.5052886E+02  0.7816164E-02  0.1300439E+00
        -11   -1    0    0    0    0  0.00000000000E+00  0.00000000000E+00  0.45593999997E+02  0.45594000000E+02  0.51100000000E-03 0. -1.
         11   -1    0    0    0    0 -0.00000000000E+00 -0.00000000000E+00 -0.45593999997E+02  0.45594000000E+02  0.51100000000E-03 0.  1.
    9900012    2    1    2    0    0 -0.40528985562E+02  0.30570946091E+01 -0.11049925176E+01  0.50528861955E+02  0.30000006398E+02 0.  0.
        -12    1    1    2    0    0  0.40528985562E+02 -0.30570946091E+01  0.11049925176E+01  0.40659138045E+02  0.00000000000E+00 0.  1.
         11    1    3    3    0    0 -0.31089670945E+02 -0.55901377361E+01 -0.51289502652E+01  0.32001928231E+02  0.51100000000E-03 0. -1.
        -11    1    3    3    0    0 -0.75725394991E+01 -0.13142036545E+01  0.18071293296E+00  0.76878568624E+01  0.51100000000E-03 0.  1.
        -12    1    3    3    0    0 -0.18667751173E+01  0.99614359998E+01  0.38432448146E+01  0.10839076862E+02  0.00000000000E+00 0.  1.
</event>
<event>
 7    1  0.5487071E-013  0.5052891E+02  0.7816164E-02  0.1300439E+00
        -11   -1    0    0    0    0  0.00000000000E+00  0.00000000000E+00  0.45593999997E+02  0.45594000000E+02  0.51100000000E-03 0.  1.
         11   -1    0    0    0    0 -0.00000000000E+00 -0.00000000000E+00 -0.45593999997E+02  0.45594000000E+02  0.51100000000E-03 0. -1.
    9900012    2    1    2    0    0  0.16877769497E+02 -0.21225246469E+02 -0.30295071308E+02  0.50528910778E+02  0.30000154800E+02 0.  0.
        -12    1    1    2    0    0 -0.16877769497E+02  0.21225246469E+02  0.30295071308E+02  0.40659089222E+02  0.00000000000E+00 0.  1.
         11    1    3    3    0    0  0.11849293811E+02 -0.19996433243E+02 -0.11752359588E+02  0.26045749412E+02  0.51100000000E-03 0. -1.
        -11    1    3    3    0    0  0.49889556994E+01 -0.41951627191E+01 -0.88522256402E+00  0.65781979644E+01  0.51100000000E-03 0.  1.
        -12    1    3    3    0    0  0.39519986675E-01  0.29663494936E+01 -0.17657489155E+02  0.17904963402E+02  0.00000000000E+00 0.  1.
</event>
<event>
 7    1  0.5487071E-013  0.5052886E+02  0.7816164E-02  0.1300439E+00
        -11   -1    0    0    0    0  0.00000000000E+00  0.00000000000E+00  0.45593999997E+02  0.45594000000E+02  0.51100000000E-03 0. -1.
         11   -1    0    0    0    0 -0.00000000000E+00 -0.00000000000E+00 -0.45593999997E+02  0.45594000000E+02  0.51100000000E-03 0.  1.
    9900012    2    1    2    0    0  0.13948065905E+02  0.33054482370E+02  0.19131596489E+02  0.50528864108E+02  0.30000012944E+02 0.  0.
        -12    1    1    2    0    0 -0.13948065905E+02 -0.33054482370E+02 -0.19131596489E+02  0.40659135892E+02  0.00000000000E+00 0.  1.
         11    1    3    3    0    0  0.21946824127E+01  0.84497495539E+01  0.62631180889E+01  0.10744372800E+02  0.51100000000E-03 0. -1.
        -11    1    3    3    0    0  0.10302401345E+02  0.14421094921E+02  0.20408977436E+02  0.27030238853E+02  0.51100000000E-03 0.  1.
        -12    1    3    3    0    0  0.14509821468E+01  0.10183637895E+02 -0.75404990362E+01  0.12754252455E+02  0.00000000000E+00 0.  1.
</event>
<event>
 7    1  0.5487071E-013  0.5052886E+02  0.7816164E-02  0.1300439E+00
        -11   -1    0    0    0    0  0.00000000000E+00  0.00000000000E+00  0.45593999997E+02  0.45594000000E+02  0.51100000000E-03 0. -1.
         11   -1    0    0    0    0 -0.00000000000E+00 -0.00000000000E+00 -0.45593999997E+02  0.45594000000E+02  0.51100000000E-03 0.  1.
    9900012    2    1    2    0    0  0.14132743638E+02 -0.36206464801E+02  0.11938305961E+02  0.50528859756E+02  0.29999999716E+02 0.  0.
        -12    1    1    2    0    0 -0.14132743638E+02  0.36206464801E+02 -0.11938305961E+02  0.40659140244E+02  0.00000000000E+00 0.  1.
         11    1    3    3    0    0 -0.30989119357E+01 -0.39512162296E+01  0.22659499310E+01  0.55090738086E+01  0.51100000000E-03 0. -1.
        -11    1    3    3    0    0  0.19377983865E+01 -0.75362546121E+01 -0.78712027971E+01  0.11068244210E+02  0.51100000000E-03 0.  1.
         12    1    3    3    0    0  0.15293857187E+02 -0.24718993959E+02  0.17543558827E+02  0.33951541738E+02  0.00000000000E+00 0. -1.
</event>
<event>
 7    1  0.5487071E-013  0.5052887E+02  0.7816164E-02  0.1300439E+00
        -11   -1    0    0    0    0  0.00000000000E+00  0.00000000000E+00  0.45593999997E+02  0.45594000000E+02  0.51100000000E-03 0.  1.
         11   -1    0    0    0    0 -0.00000000000E+00 -0.00000000000E+00 -0.45593999997E+02  0.45594000000E+02  0.51100000000E-03 0. -1.
    9900012    2    1    2    0    0  0.55680842229E+01  0.15068950628E+02 -0.37350872599E+02  0.50528874101E+02  0.30000043317E+02 0.  0.
        -12    1    1    2    0    0 -0.55680842229E+01 -0.15068950628E+02  0.37350872599E+02  0.40659125899E+02  0.00000000000E+00 0.  1.
         11    1    3    3    0    0 -0.23618754362E+01  0.12589666824E+01 -0.16170025813E+01  0.31270034047E+01  0.51100000000E-03 0.  1.
        -11    1    3    3    0    0  0.10868328371E+02  0.58330362577E+01 -0.36820655406E+02  0.38831759403E+02  0.51100000000E-03 0. -1.
         12    1    3    3    0    0 -0.29383687116E+01  0.79769476878E+01  0.10867853879E+01  0.85701112932E+01  0.00000000000E+00 0. -1.
</event>
<event>
 7    1  0.5487071E-013  0.5052886E+02  0.7816164E-02  0.1300439E+00
        -11   -1    0    0    0    0  0.00000000000E+00  0.00000000000E+00  0.45593999997E+02  0.45594000000E+02  0.51100000000E-03 0. -1.
         11   -1    0    0    0    0 -0.00000000000E+00 -0.00000000000E+00 -0.45593999997E+02  0.45594000000E+02  0.51100000000E-03 0.  1.
    9900012    2    1    2    0    0 -0.21607381032E+02  0.40917693514E+01  0.34198600982E+02  0.50528858340E+02  0.29999995409E+02 0.  0.
        -12    1    1    2    0    0  0.21607381032E+02 -0.40917693514E+01 -0.34198600982E+02  0.40659141660E+02  0.00000000000E+00 0.  1.
         11    1    3    3    0    0 -0.35770759579E+01 -0.44128588374E+01  0.18332118723E+01  0.59690419296E+01  0.51100000000E-03 0.  1.
        -11    1    3    3    0    0 -0.10771226628E+02 -0.73406485893E+01  0.11594015939E+02  0.17444931947E+02  0.51100000000E-03 0. -1.
        -12    1    3    3    0    0 -0.72590784458E+01  0.15845276778E+02  0.20771373170E+02  0.27114884463E+02  0.00000000000E+00 0.  1.
</event>
<event>
 7    1  0.5487071E-013  0.5052885E+02  0.7816164E-02  0.1300439E+00
        -11   -1    0    0    0    0  0.00000000000E+00  0.00000000000E+00  0.45593999997E+02  0.45594000000E+02  0.51100000000E-03 0.  1.
         11   -1    0    0    0    0 -0.00000000000E+00 -0.00000000000E+00 -0.45593999997E+02  0.45594000000E+02  0.51100000000E-03 0. -1.
    9900012    2    1    2    0    0  0.37719734807E+02 -0.36894544399E+01 -0.14723312269E+02  0.50528851065E+02  0.29999973296E+02 0.  0.
        -12    1    1    2    0    0 -0.37719734807E+02  0.36894544399E+01  0.14723312269E+02  0.40659148935E+02  0.00000000000E+00 0.  1.
         11    1    3    3    0    0  0.15783814929E+01 -0.19450447914E+01 -0.30827177745E+01  0.39721073143E+01  0.51100000000E-03 0. -1.
        -11    1    3    3    0    0  0.16953672917E+02 -0.10953836604E+02  0.34355022019E+01  0.20474770753E+02  0.51100000000E-03 0.  1.
        -12    1    3    3    0    0  0.19187680397E+02  0.92094269552E+01 -0.15076096697E+02  0.26081972998E+02  0.00000000000E+00 0.  1.
</event>
<event>
 7    1  0.5487071E-013  0.5052886E+02  0.7816164E-02  0.1300439E+00
        -11   -1    0    0    0    0  0.00000000000E+00  0.00000000000E+00  0.45593999997E+02  0.45594000000E+02  0.51100000000E-03 0.  1.
         11   -1    0    0    0    0 -0.00000000000E+00 -0.00000000000E+00 -0.45593999997E+02  0.45594000000E+02  0.51100000000E-03 0. -1.
    9900012    2    1    2    0    0 -0.39619586757E+02  0.11389192566E+00  0.91345964472E+01  0.50528862301E+02  0.30000007450E+02 0.  0.
        -12    1    1    2    0    0  0.39619586757E+02 -0.11389192566E+00 -0.91345964472E+01  0.40659137699E+02  0.00000000000E+00 0.  1.
         11    1    3    3    0    0 -0.68747606646E+01  0.27582554323E+01 -0.15459175119E+01  0.75670448948E+01  0.51100000000E-03 0. -1.
        -11    1    3    3    0    0 -0.39467361682E+01  0.43183677865E+01 -0.64742974306E+01  0.87259128005E+01  0.51100000000E-03 0.  1.
        -12    1    3    3    0    0 -0.28798089924E+02 -0.69627312932E+01  0.17154811390E+02  0.34235904606E+02  0.00000000000E+00 0.  1.
</event>
<event>
 7    1  0.5487071E-013  0.5052886E+02  0.7816164E-02  0.1300439E+00
        -11   -1    0    0    0    0  0.00000000000E+00  0.00000000000E+00  0.45593999997E+02  0.45594000000E+02  0.51100000000E-03 0.  1.
         11   -1    0    0    0    0 -0.00000000000E+00 -0.00000000000E+00 -0.45593999997E+02  0.45594000000E+02  0.51100000000E-03 0. -1.
    9900012    2    1    2    0    0 -0.17643661189E+02 -0.36573571074E+02  0.20592955403E+01  0.50528861060E+02  0.30000003677E+02 0.  0.
        -12    1    1    2    0    0  0.17643661189E+02  0.36573571074E+02 -0.20592955403E+01  0.40659138940E+02  0.00000000000E+00 0.  1.
         11    1    3    3    0    0 -0.43750269540E+01 -0.11723514459E+02  0.47759298856E+01  0.13393698468E+02  0.51100000000E-03 0. -1.
        -11    1    3    3    0    0 -0.14239480106E+02 -0.28365797073E+02  0.12276194813E+01  0.31763001860E+02  0.51100000000E-03 0.  1.
        -12    1    3    3    0    0  0.97084587110E+00  0.35157404589E+01 -0.39442538266E+01  0.53721607318E+01  0.00000000000E+00 0.  1.
</event>
<event>
 7    1  0.5487071E-013  0.5052886E+02  0.7816164E-02  0.1300439E+00
        -11   -1    0    0    0    0  0.00000000000E+00  0.00000000000E+00  0.45593999997E+02  0.45594000000E+02  0.51100000000E-03 0.  1.
         11   -1    0    0    0    0 -0.00000000000E+00 -0.00000000000E+00 -0.45593999997E+02  0.45594000000E+02  0.51100000000E-03 0. -1.
    9900012    2    1    2    0    0 -0.38823119123E+02  0.11967158574E+02 -0.16485944552E+01  0.50528864170E+02  0.30000013131E+02 0.  0.
        -12    1    1    2    0    0  0.38823119123E+02 -0.11967158574E+02  0.16485944552E+01  0.40659135830E+02  0.00000000000E+00 0.  1.
         11    1    3    3    0    0 -0.15385469781E+02  0.51220752811E+01 -0.64015416673E+01  0.17433532963E+02  0.51100000000E-03 0. -1.
        -11    1    3    3    0    0 -0.17471936033E+02  0.10191389651E+02 -0.53241664688E+01  0.20916015887E+02  0.51100000000E-03 0.  1.
        -12    1    3    3    0    0 -0.59657133088E+01 -0.33463063585E+01  0.10077113681E+02  0.12179315320E+02  0.00000000000E+00 0.  1.
</event>
<event>
 7    1  0.5487071E-013  0.5052886E+02  0.7816164E-02  0.1300439E+00
        -11   -1    0    0    0    0  0.00000000000E+00  0.00000000000E+00  0.45593999997E+02  0.45594000000E+02  0.51100000000E-03 0.  1.
         11   -1    0    0    0    0 -0.00000000000E+00 -0.00000000000E+00 -0.45593999997E+02  0.45594000000E+02  0.51100000000E-03 0. -1.
    9900012    2    1    2    0    0 -0.15831949375E+02 -0.23245074727E+02 -0.29362931211E+02  0.50528857740E+02  0.29999993586E+02 0.  0.
        -12    1    1    2    0    0  0.15831949375E+02  0.23245074727E+02  0.29362931211E+02  0.40659142260E+02  0.00000000000E+00 0.  1.
         11    1    3    3    0    0 -0.37089851758E+01 -0.32727759518E+01 -0.12144619111E+02  0.13113329367E+02  0.51100000000E-03 0. -1.
        -11    1    3    3    0    0  0.35761756774E+01 -0.83363496474E+01  0.27477395195E+01  0.94780710404E+01  0.51100000000E-03 0.  1.
         12    1    3    3    0    0 -0.15699139876E+02 -0.11635949128E+02 -0.19966051619E+02  0.27937457332E+02  0.00000000000E+00 0. -1.
</event>
<event>
 7    1  0.5487071E-013  0.5052886E+02  0.7816164E-02  0.1300439E+00
        -11   -1    0    0    0    0  0.00000000000E+00  0.00000000000E+00  0.45593999997E+02  0.45594000000E+02  0.51100000000E-03 0.  1.
         11   -1    0    0    0    0 -0.00000000000E+00 -0.00000000000E+00 -0.45593999997E+02  0.45594000000E+02  0.51100000000E-03 0. -1.
    9900012    2    1    2    0    0  0.33208652414E+02  0.22787223826E+02  0.55761736186E+01  0.50528857399E+02  0.29999992550E+02 0.  0.
        -12    1    1    2    0    0 -0.33208652414E+02 -0.22787223826E+02 -0.55761736186E+01  0.40659142601E+02  0.00000000000E+00 0.  1.
         11    1    3    3    0    0  0.40377542233E+01 -0.15068848631E+01 -0.69261901912E+01  0.81575898392E+01  0.51100000000E-03 0. -1.
        -11    1    3    3    0    0  0.53076311581E+01  0.61033329435E+01 -0.29632921238E+01  0.86141001853E+01  0.51100000000E-03 0.  1.
        -12    1    3    3    0    0  0.23863267032E+02  0.18190775746E+02  0.15465655934E+02  0.33757167374E+02  0.00000000000E+00 0.  1.
</event>
<event>
 7    1  0.5487071E-013  0.5052885E+02  0.7816164E-02  0.1300439E+00
        -11   -1    0    0    0    0  0.00000000000E+00  0.00000000000E+00  0.45593999997E+02  0.45594000000E+02  0.51100000000E-03 0. -1.
         11   -1    0    0    0    0 -0.00000000000E+00 -0.00000000000E+00 -0.45593999997E+02  0.45594000000E+02  0.51100000000E-03 0.  1.
    9900012    2    1    2    0    0 -0.39858107731E+02 -0.20420687008E+01  0.77670942027E+01  0.50528849138E+02  0.29999967439E+02 0.  0.
        -12    1    1    2    0    0  0.39858107731E+02  0.20420687008E+01 -0.77670942027E+01  0.40659150862E+02  0.00000000000E+00 0.  1.
         11    1    3    3    0    0 -0.11632200004E+02  0.57368427041E+01  0.40037088190E+01  0.13573839756E+02  0.51100000000E-03 0. -1.
        -11    1    3    3    0    0 -0.35435630233E+01  0.32276262837E+01 -0.64744467248E+01  0.80556111488E+01  0.51100000000E-03 0.  1.
         12    1    3    3    0    0 -0.24682344704E+02 -0.11006537689E+02  0.10237832108E+02  0.28899398233E+02  0.00000000000E+00 0. -1.
</event>
<event>
 7    1  0.5487071E-013  0.5052885E+02  0.7816164E-02  0.1300439E+00
        -11   -1    0    0    0    0  0.00000000000E+00  0.00000000000E+00  0.45593999997E+02  0.45594000000E+02  0.51100000000E-03 0.  1.
         11   -1    0    0    0    0 -0.00000000000E+00 -0.00000000000E+00 -0.45593999997E+02  0.45594000000E+02  0.51100000000E-03 0. -1.
    9900012    2    1    2    0    0 -0.21871475412E+01  0.39897506235E+02  0.75213998636E+01  0.50528854976E+02  0.29999985185E+02 0.  0.
        -12    1    1    2    0    0  0.21871475412E+01 -0.39897506235E+02 -0.75213998636E+01  0.40659145024E+02  0.00000000000E+00 0.  1.
         11    1    3    3    0    0 -0.73212063238E+01  0.35335744328E+01  0.19959065139E+01  0.83707737624E+01  0.51100000000E-03 0. -1.
        -11    1    3    3    0    0 -0.65958143925E+01  0.93628901128E+01 -0.23336626885E+01  0.11688218879E+02  0.51100000000E-03 0.  1.
         12    1    3    3    0    0  0.11729873175E+02  0.27001041690E+02  0.78591560382E+01  0.30469862334E+02  0.00000000000E+00 0. -1.
</event>
<event>
 7    1  0.5487071E-013  0.5052886E+02  0.7816164E-02  0.1300439E+00
        -11   -1    0    0    0    0  0.00000000000E+00  0.00000000000E+00  0.45593999997E+02  0.45594000000E+02  0.51100000000E-03 0.  1.
         11   -1    0    0    0    0 -0.00000000000E+00 -0.00000000000E+00 -0.45593999997E+02  0.45594000000E+02  0.51100000000E-03 0. -1.
    9900012    2    1    2    0    0  0.25218290687E+02  0.30514845036E+02 -0.92761915395E+01  0.50528859795E+02  0.29999999834E+02 0.  0.
        -12    1    1    2    0    0 -0.25218290687E+02 -0.30514845036E+02  0.92761915395E+01  0.40659140205E+02  0.00000000000E+00 0.  1.
         11    1    3    3    0    0  0.15589146139E+01  0.65368704547E+01 -0.36652796666E+01  0.76547478998E+01  0.51100000000E-03 0. -1.
        -11    1    3    3    0    0  0.16112908257E+01 -0.72788948162E+00 -0.93815583083E+01  0.95467124066E+01  0.51100000000E-03 0.  1.
        -12    1    3    3    0    0  0.22048085247E+02  0.24705864062E+02  0.37706464353E+01  0.33327399489E+02  0.00000000000E+00 0.  1.
</event>
<event>
 7    1  0.5487071E-013  0.5052886E+02  0.7816164E-02  0.1300439E+00
        -11   -1    0    0    0    0  0.00000000000E+00  0.00000000000E+00  0.45593999997E+02  0.45594000000E+02  0.51100000000E-03 0. -1.
         11   -1    0    0    0    0 -0.00000000000E+00 -0.00000000000E+00 -0.45593999997E+02  0.45594000000E+02  0.51100000000E-03 0.  1.
    9900012    2    1    2    0    0 -0.21848176840E+02  0.20886237872E+01 -0.34226607761E+02  0.50528857616E+02  0.29999993209E+02 0.  0.
        -12    1    1    2    0    0  0.21848176840E+02 -0.20886237872E+01  0.34226607761E+02  0.40659142384E+02  0.00000000000E+00 0.  1.
         11    1    3    3    0    0 -0.81451303907E+01 -0.46922571017E+01 -0.12246688228E+02  0.15438322402E+02  0.51100000000E-03 0. -1.
        -11    1    3    3    0    0 -0.12959335637E+02 -0.51915351930E+01 -0.62165953991E+01  0.15282096598E+02  0.51100000000E-03 0.  1.
         12    1    3    3    0    0 -0.74371081270E+00  0.11972416082E+02 -0.15763324135E+02  0.19808438615E+02  0.00000000000E+00 0. -1.
</event>
<event>
 7    1  0.5487071E-013  0.5052886E+02  0.7816164E-02  0.1300439E+00
        -11   -1    0    0    0    0  0.00000000000E+00  0.00000000000E+00  0.45593999997E+02  0.45594000000E+02  0.51100000000E-03 0.  1.
         11   -1    0    0    0    0 -0.00000000000E+00 -0.00000000000E+00 -0.45593999997E+02  0.45594000000E+02  0.51100000000E-03 0. -1.
    9900012    2    1    2    0    0  0.20479111053E+02 -0.31979460804E+02 -0.14528791869E+02  0.50528859625E+02  0.29999999317E+02 0.  0.
        -12    1    1    2    0    0 -0.20479111053E+02  0.31979460804E+02  0.14528791869E+02  0.40659140375E+02  0.00000000000E+00 0.  1.
         11    1    3    3    0    0 -0.16216419237E+01 -0.82171577563E+01 -0.12931628101E+02  0.15407089593E+02  0.51100000000E-03 0. -1.
        -11    1    3    3    0    0  0.11853202370E+02 -0.10096904019E+02 -0.71872900794E+01  0.17149431948E+02  0.51100000000E-03 0.  1.
        -12    1    3    3    0    0  0.10247550607E+02 -0.13665399029E+02  0.55901263107E+01  0.17972338085E+02  0.00000000000E+00 0.  1.
</event>
<event>
 7    1  0.5487071E-013  0.5052872E+02  0.7816164E-02  0.1300439E+00
        -11   -1    0    0    0    0  0.00000000000E+00  0.00000000000E+00  0.45593999997E+02  0.45594000000E+02  0.51100000000E-03 0. -1.
         11   -1    0    0    0    0 -0.00000000000E+00 -0.00000000000E+00 -0.45593999997E+02  0.45594000000E+02  0.51100000000E-03 0.  1.
    9900012    2    1    2    0    0  0.18565532247E+02  0.16715566186E+02  0.32079401603E+02  0.50528718800E+02  0.29999571260E+02 0.  0.
        -12    1    1    2    0    0 -0.18565532247E+02 -0.16715566186E+02 -0.32079401603E+02  0.40659281200E+02  0.00000000000E+00 0.  1.
         11    1    3    3    0    0  0.95483630282E+01 -0.11957229947E+01  0.13281300457E+02  0.16401034482E+02  0.51100000000E-03 0. -1.
        -11    1    3    3    0    0  0.59212773136E+01  0.34925265244E+00  0.14669282390E+02  0.15823127015E+02  0.51100000000E-03 0.  1.
        -12    1    3    3    0    0  0.30958919051E+01  0.17562036528E+02  0.41288187559E+01  0.18304557302E+02  0.00000000000E+00 0.  1.
</event>
<event>
 7    1  0.5621504E-013  0.5052886E+02  0.7816164E-02  0.1300439E+00
        -11   -1    0    0    0    0  0.00000000000E+00  0.00000000000E+00  0.45593999997E+02  0.45594000000E+02  0.51100000000E-03 0. -1.
         11   -1    0    0    0    0 -0.00000000000E+00 -0.00000000000E+00 -0.45593999997E+02  0.45594000000E+02  0.51100000000E-03 0.  1.
    9900012    2    1    2    0    0 -0.63255250375E+01  0.24412055681E+02  0.31893644578E+02  0.50528864568E+02  0.30000014341E+02 0.  0.
        -12    1    1    2    0    0  0.63255250375E+01 -0.24412055681E+02 -0.31893644578E+02  0.40659135432E+02  0.00000000000E+00 0.  1.
         11    1    3    3    0    0 -0.55701809763E+01  0.10472417578E+02  0.22439807609E+02  0.25381950512E+02  0.51100000000E-03 0. -1.
        -11    1    3    3    0    0  0.34344637492E+01  0.31925896673E+01  0.12387079801E+02  0.13244920396E+02  0.51100000000E-03 0.  1.
        -12    1    3    3    0    0 -0.41898078103E+01  0.10747048436E+02 -0.29332428317E+01  0.11901993660E+02  0.00000000000E+00 0.  1.
</event>
<event>
 7    1  0.5487071E-013  0.5052884E+02  0.7816164E-02  0.1300439E+00
        -11   -1    0    0    0    0  0.00000000000E+00  0.00000000000E+00  0.45593999997E+02  0.45594000000E+02  0.51100000000E-03 0.  1.
         11   -1    0    0    0    0 -0.00000000000E+00 -0.00000000000E+00 -0.45593999997E+02  0.45594000000E+02  0.51100000000E-03 0. -1.
    9900012    2    1    2    0    0  0.40304018298E+02  0.18198943895E+01 -0.50439181421E+01  0.50528843383E+02  0.29999949948E+02 0.  0.
        -12    1    1    2    0    0 -0.40304018298E+02 -0.18198943895E+01  0.50439181421E+01  0.40659156617E+02  0.00000000000E+00 0.  1.
         11    1    3    3    0    0  0.13162601474E+02  0.73791431476E+01 -0.44953746898E+01  0.15745292155E+02  0.51100000000E-03 0. -1.
        -11    1    3    3    0    0  0.24079070546E+02 -0.43850693209E+01  0.79018193069E+01  0.25719043915E+02  0.51100000000E-03 0.  1.
         12    1    3    3    0    0  0.30623462774E+01 -0.11741794372E+01 -0.84503627592E+01  0.90645073134E+01  0.00000000000E+00 0. -1.
</event>
<event>
 7    1  0.5487071E-013  0.5052885E+02  0.7816164E-02  0.1300439E+00
        -11   -1    0    0    0    0  0.00000000000E+00  0.00000000000E+00  0.45593999997E+02  0.45594000000E+02  0.51100000000E-03 0.  1.
         11   -1    0    0    0    0 -0.00000000000E+00 -0.00000000000E+00 -0.45593999997E+02  0.45594000000E+02  0.51100000000E-03 0. -1.
    9900012    2    1    2    0    0 -0.22364241529E+02  0.42804836503E+01 -0.33685074475E+02  0.50528854881E+02  0.29999984895E+02 0.  0.
        -12    1    1    2    0    0  0.22364241529E+02 -0.42804836503E+01  0.33685074475E+02  0.40659145119E+02  0.00000000000E+00 0.  1.
         11    1    3    3    0    0 -0.12097988325E+02  0.33532821609E+01 -0.14669023252E+02  0.19307668585E+02  0.51100000000E-03 0. -1.
        -11    1    3    3    0    0 -0.15670264937E+02  0.10298196798E+01 -0.54580446943E+01  0.16625522065E+02  0.51100000000E-03 0.  1.
         12    1    3    3    0    0  0.54040117332E+01 -0.10261819044E+00 -0.13558006528E+02  0.14595664230E+02  0.00000000000E+00 0. -1.
</event>
<event>
 7    1  0.5487071E-013  0.5052886E+02  0.7816164E-02  0.1300439E+00
        -11   -1    0    0    0    0  0.00000000000E+00  0.00000000000E+00  0.45593999997E+02  0.45594000000E+02  0.51100000000E-03 0. -1.
         11   -1    0    0    0    0 -0.00000000000E+00 -0.00000000000E+00 -0.45593999997E+02  0.45594000000E+02  0.51100000000E-03 0.  1.
    9900012    2    1    2    0    0  0.56808707221E+00  0.19543444668E+02  0.35649638896E+02  0.50528859504E+02  0.29999998949E+02 0.  0.
        -12    1    1    2    0    0 -0.56808707221E+00 -0.19543444668E+02 -0.35649638896E+02  0.40659140496E+02  0.00000000000E+00 0.  1.
         11    1    3    3    0    0  0.73660091103E+01  0.58653247469E+01  0.71681510608E+01  0.11833955995E+02  0.51100000000E-03 0. -1.
        -11    1    3    3    0    0  0.54245167872E+01  0.21391457240E+01  0.17916652759E+02  0.18841649959E+02  0.51100000000E-03 0.  1.
         12    1    3    3    0    0 -0.12222438825E+02  0.11538974197E+02  0.10564835076E+02  0.19853253551E+02  0.00000000000E+00 0. -1.
</event>
<event>
 7    1  0.5487071E-013  0.5052886E+02  0.7816164E-02  0.1300439E+00
        -11   -1    0    0    0    0  0.00000000000E+00  0.00000000000E+00  0.45593999997E+02  0.45594000000E+02  0.51100000000E-03 0.  1.
         11   -1    0    0    0    0 -0.00000000000E+00 -0.00000000000E+00 -0.45593999997E+02  0.45594000000E+02  0.51100000000E-03 0. -1.
    9900012    2    1    2    0    0  0.11046675974E+02 -0.28358132916E+02  0.26962067097E+02  0.50528858166E+02  0.29999994880E+02 0.  0.
        -12    1    1    2    0    0 -0.11046675974E+02  0.28358132916E+02 -0.26962067097E+02  0.40659141834E+02  0.00000000000E+00 0.  1.
         11    1    3    3    0    0  0.46246913123E+01 -0.46541162223E+01 -0.33043973283E+01  0.73462650040E+01  0.51100000000E-03 0. -1.
        -11    1    3    3    0    0  0.10650860770E+01  0.26711545422E+01  0.27965677971E+00  0.28892357320E+01  0.51100000000E-03 0.  1.
        -12    1    3    3    0    0  0.53568985850E+01 -0.26375171236E+02  0.29986807646E+02  0.40293357430E+02  0.00000000000E+00 0.  1.
</event>
<event>
 7    1  0.5487071E-013  0.5052884E+02  0.7816164E-02  0.1300439E+00
        -11   -1    0    0    0    0  0.00000000000E+00  0.00000000000E+00  0.45593999997E+02  0.45594000000E+02  0.51100000000E-03 0. -1.
         11   -1    0    0    0    0 -0.00000000000E+00 -0.00000000000E+00 -0.45593999997E+02  0.45594000000E+02  0.51100000000E-03 0.  1.
    9900012    2    1    2    0    0 -0.31883834157E+02 -0.28458849023E+01  0.25069688934E+02  0.50528840581E+02  0.29999941430E+02 0.  0.
        -12    1    1    2    0    0  0.31883834157E+02  0.28458849023E+01 -0.25069688934E+02  0.40659159419E+02  0.00000000000E+00 0.  1.
         11    1    3    3    0    0 -0.19050964861E+02  0.37409621923E+01  0.52549958705E+01  0.20113404539E+02  0.51100000000E-03 0. -1.
        -11    1    3    3    0    0 -0.89928204400E+01  0.53860689903E+01  0.96313353148E+01  0.14235279373E+02  0.51100000000E-03 0.  1.
        -12    1    3    3    0    0 -0.38400488557E+01 -0.11972916085E+02  0.10183357749E+02  0.16180156669E+02  0.00000000000E+00 0.  1.
</event>
<event>
 7    1  0.5487071E-013  0.5052886E+02  0.7816164E-02  0.1300439E+00
        -11   -1    0    0    0    0  0.00000000000E+00  0.00000000000E+00  0.45593999997E+02  0.45594000000E+02  0.51100000000E-03 0.  1.
         11   -1    0    0    0    0 -0.00000000000E+00 -0.00000000000E+00 -0.45593999997E+02  0.45594000000E+02  0.51100000000E-03 0. -1.
    9900012    2    1    2    0    0 -0.77399122184E+01 -0.33528335488E+01 -0.39774590857E+02  0.50528858201E+02  0.29999994988E+02 0.  0.
        -12    1    1    2    0    0  0.77399122184E+01  0.33528335488E+01  0.39774590857E+02  0.40659141799E+02  0.00000000000E+00 0.  1.
         11    1    3    3    0    0 -0.10535418985E+02  0.18200074450E+01 -0.19669443175E+02  0.22387373124E+02  0.51100000000E-03 0. -1.
        -11    1    3    3    0    0 -0.53063116698E+01  0.26279387276E+01 -0.14315697626E+02  0.15492004527E+02  0.51100000000E-03 0.  1.
        -12    1    3    3    0    0  0.81018184365E+01 -0.78007797214E+01 -0.57894500562E+01  0.12649480550E+02  0.00000000000E+00 0.  1.
</event>
<event>
 7    1  0.5487071E-013  0.5052882E+02  0.7816164E-02  0.1300439E+00
        -11   -1    0    0    0    0  0.00000000000E+00  0.00000000000E+00  0.45593999997E+02  0.45594000000E+02  0.51100000000E-03 0.  1.
         11   -1    0    0    0    0 -0.00000000000E+00 -0.00000000000E+00 -0.45593999997E+02  0.45594000000E+02  0.51100000000E-03 0. -1.
    9900012    2    1    2    0    0 -0.19850149961E+02  0.34004065736E+02  0.10142193538E+02  0.50528818628E+02  0.29999874702E+02 0.  0.
        -12    1    1    2    0    0  0.19850149961E+02 -0.34004065736E+02 -0.10142193538E+02  0.40659181372E+02  0.00000000000E+00 0.  1.
         11    1    3    3    0    0  0.34049628869E+00  0.28772832687E+01 -0.15539097365E+00  0.29015243143E+01  0.51100000000E-03 0. -1.
        -11    1    3    3    0    0  0.30153599896E+01  0.10251887530E+01  0.90549969239E+01  0.95987695774E+01  0.51100000000E-03 0.  1.
         12    1    3    3    0    0 -0.23206006240E+02  0.30101593714E+02  0.12425875882E+01  0.38028524737E+02  0.00000000000E+00 0. -1.
</event>
<event>
 7    1  0.5487071E-013  0.5052885E+02  0.7816164E-02  0.1300439E+00
        -11   -1    0    0    0    0  0.00000000000E+00  0.00000000000E+00  0.45593999997E+02  0.45594000000E+02  0.51100000000E-03 0. -1.
         11   -1    0    0    0    0 -0.00000000000E+00 -0.00000000000E+00 -0.45593999997E+02  0.45594000000E+02  0.51100000000E-03 0.  1.
    9900012    2    1    2    0    0 -0.33747153171E+02 -0.20814624548E+02  0.90026229543E+01  0.50528853892E+02  0.29999981889E+02 0.  0.
        -12    1    1    2    0    0  0.33747153171E+02  0.20814624548E+02 -0.90026229543E+01  0.40659146108E+02  0.00000000000E+00 0.  1.
         11    1    3    3    0    0  0.30330093582E+01 -0.17574832645E+01 -0.12781323613E+01  0.37311547523E+01  0.51100000000E-03 0. -1.
        -11    1    3    3    0    0 -0.16043706508E+02 -0.16165678266E+01 -0.33460320823E+01  0.16468446830E+02  0.51100000000E-03 0.  1.
         12    1    3    3    0    0 -0.20736456021E+02 -0.17440573457E+02  0.13626787398E+02  0.30329252309E+02  0.00000000000E+00 0. -1.
</event>
<event>
 7    1  0.5487071E-013  0.5052886E+02  0.7816164E-02  0.1300439E+00
        -11   -1    0    0    0    0  0.00000000000E+00  0.00000000000E+00  0.45593999997E+02  0.45594000000E+02  0.51100000000E-03 0.  1.
         11   -1    0    0    0    0 -0.00000000000E+00 -0.00000000000E+00 -0.45593999997E+02  0.45594000000E+02  0.51100000000E-03 0. -1.
    9900012    2    1    2    0    0 -0.11077370613E+02 -0.92243672822E+01 -0.38018002512E+02  0.50528860726E+02  0.30000002663E+02 0.  0.
        -12    1    1    2    0    0  0.11077370613E+02  0.92243672822E+01  0.38018002512E+02  0.40659139274E+02  0.00000000000E+00 0.  1.
         11    1    3    3    0    0 -0.86574393182E+01 -0.82066673999E+00 -0.21842706666E+02  0.23510180438E+02  0.51100000000E-03 0. -1.
        -11    1    3    3    0    0 -0.99491455449E+01 -0.77371451032E+01 -0.14618182188E+02  0.19301299494E+02  0.51100000000E-03 0.  1.
        -12    1    3    3    0    0  0.75292142501E+01 -0.66655543903E+00 -0.15571136580E+01  0.77173807941E+01  0.00000000000E+00 0.  1.
</event>
<event>
 7    1  0.5487071E-013  0.5052886E+02  0.7816164E-02  0.1300439E+00
        -11   -1    0    0    0    0  0.00000000000E+00  0.00000000000E+00  0.45593999997E+02  0.45594000000E+02  0.51100000000E-03 0. -1.
         11   -1    0    0    0    0 -0.00000000000E+00 -0.00000000000E+00 -0.45593999997E+02  0.45594000000E+02  0.51100000000E-03 0.  1.
    9900012    2    1    2    0    0  0.19792494425E+02 -0.29764371844E+02  0.19377960909E+02  0.50528855446E+02  0.29999986614E+02 0.  0.
        -12    1    1    2    0    0 -0.19792494425E+02  0.29764371844E+02 -0.19377960909E+02  0.40659144554E+02  0.00000000000E+00 0.  1.
         11    1    3    3    0    0  0.24887880175E+02 -0.27835006351E+02  0.20359508220E+02  0.42528857654E+02  0.51100000000E-03 0. -1.
        -11    1    3    3    0    0  0.67836808423E+00  0.92463949974E+00  0.69990708619E+00  0.13435072209E+01  0.51100000000E-03 0.  1.
         12    1    3    3    0    0 -0.57737538337E+01 -0.28540049935E+01 -0.16814543967E+01  0.66564905712E+01  0.00000000000E+00 0. -1.
</event>
<event>
 7    1  0.5487071E-013  0.5052886E+02  0.7816164E-02  0.1300439E+00
        -11   -1    0    0    0    0  0.00000000000E+00  0.00000000000E+00  0.45593999997E+02  0.45594000000E+02  0.51100000000E-03 0.  1.
         11   -1    0    0    0    0 -0.00000000000E+00 -0.00000000000E+00 -0.45593999997E+02  0.45594000000E+02  0.51100000000E-03 0. -1.
    9900012    2    1    2    0    0  0.32121296775E+02  0.17609960677E+01 -0.24865376026E+02  0.50528859102E+02  0.29999997725E+02 0.  0.
        -12    1    1    2    0    0 -0.32121296775E+02 -0.17609960677E+01  0.24865376026E+02  0.40659140898E+02  0.00000000000E+00 0.  1.
         11    1    3    3    0    0  0.41909066279E+00  0.24132366891E+01 -0.84289533881E+01  0.87776194826E+01  0.51100000000E-03 0. -1.
        -11    1    3    3    0    0 -0.15353556542E+01  0.80347125993E+00 -0.69399238973E+01  0.71530012591E+01  0.51100000000E-03 0.  1.
        -12    1    3    3    0    0  0.33237561767E+02 -0.14557118814E+01 -0.94964987409E+01  0.34598238360E+02  0.00000000000E+00 0.  1.
</event>
<event>
 7    1  0.5487071E-013  0.5052886E+02  0.7816164E-02  0.1300439E+00
        -11   -1    0    0    0    0  0.00000000000E+00  0.00000000000E+00  0.45593999997E+02  0.45594000000E+02  0.51100000000E-03 0.  1.
         11   -1    0    0    0    0 -0.00000000000E+00 -0.00000000000E+00 -0.45593999997E+02  0.45594000000E+02  0.51100000000E-03 0. -1.
    9900012    2    1    2    0    0  0.28787688917E+02 -0.57683683215E+01 -0.28127575169E+02  0.50528860914E+02  0.30000003236E+02 0.  0.
        -12    1    1    2    0    0 -0.28787688917E+02  0.57683683215E+01  0.28127575169E+02  0.40659139086E+02  0.00000000000E+00 0.  1.
         11    1    3    3    0    0  0.11725872264E+01  0.35630368329E-04  0.36813129409E+01  0.38635509619E+01  0.51100000000E-03 0. -1.
        -11    1    3    3    0    0  0.10098922657E+02  0.31852695716E+01 -0.17373821678E+01  0.10730921588E+02  0.51100000000E-03 0.  1.
         12    1    3    3    0    0  0.17516179034E+02 -0.89536735234E+01 -0.30071505942E+02  0.35934388365E+02  0.00000000000E+00 0. -1.
</event>
<event>
 7    1  0.5487071E-013  0.5052889E+02  0.7816164E-02  0.1300439E+00
        -11   -1    0    0    0    0  0.00000000000E+00  0.00000000000E+00  0.45593999997E+02  0.45594000000E+02  0.51100000000E-03 0.  1.
         11   -1    0    0    0    0 -0.00000000000E+00 -0.00000000000E+00 -0.45593999997E+02  0.45594000000E+02  0.51100000000E-03 0. -1.
    9900012    2    1    2    0    0 -0.32373413701E+02 -0.15687062648E+02 -0.18948381532E+02  0.50528892633E+02  0.30000099648E+02 0.  0.
        -12    1    1    2    0    0  0.32373413701E+02  0.15687062648E+02  0.18948381532E+02  0.40659107367E+02  0.00000000000E+00 0.  1.
         11    1    3    3    0    0 -0.80353183084E+01  0.81727074544E+00  0.27983102786E+01  0.85477957665E+01  0.51100000000E-03 0. -1.
        -11    1    3    3    0    0 -0.13218877485E+02  0.28763909806E+01 -0.72779726402E+01  0.15361680671E+02  0.51100000000E-03 0.  1.
         12    1    3    3    0    0 -0.11119217907E+02 -0.19380724374E+02 -0.14468719171E+02  0.26619416195E+02  0.00000000000E+00 0. -1.
</event>
<event>
 7    1  0.5487071E-013  0.5052887E+02  0.7816164E-02  0.1300439E+00
        -11   -1    0    0    0    0  0.00000000000E+00  0.00000000000E+00  0.45593999997E+02  0.45594000000E+02  0.51100000000E-03 0. -1.
         11   -1    0    0    0    0 -0.00000000000E+00 -0.00000000000E+00 -0.45593999997E+02  0.45594000000E+02  0.51100000000E-03 0.  1.
    9900012    2    1    2    0    0  0.32458546616E+02 -0.21487959278E+02  0.11742043174E+02  0.50528865476E+02  0.30000017100E+02 0.  0.
        -12    1    1    2    0    0 -0.32458546616E+02  0.21487959278E+02 -0.11742043174E+02  0.40659134524E+02  0.00000000000E+00 0.  1.
         11    1    3    3    0    0  0.13133232875E+00 -0.15283811927E+01 -0.24901419899E+01  0.29247230026E+01  0.51100000000E-03 0. -1.
        -11    1    3    3    0    0  0.57060020046E+01  0.56337047982E+01 -0.26526492129E-01  0.80185904338E+01  0.51100000000E-03 0.  1.
         12    1    3    3    0    0  0.26621212283E+02 -0.25593282883E+02  0.14258711656E+02  0.39585552039E+02  0.00000000000E+00 0. -1.
</event>
<event>
 7    1  0.5487071E-013  0.5052886E+02  0.7816164E-02  0.1300439E+00
        -11   -1    0    0    0    0  0.00000000000E+00  0.00000000000E+00  0.45593999997E+02  0.45594000000E+02  0.51100000000E-03 0. -1.
         11   -1    0    0    0    0 -0.00000000000E+00 -0.00000000000E+00 -0.45593999997E+02  0.45594000000E+02  0.51100000000E-03 0.  1.
    9900012    2    1    2    0    0 -0.11281989586E+02  0.13366793750E+02  0.36704373145E+02  0.50528862378E+02  0.30000007683E+02 0.  0.
        -12    1    1    2    0    0  0.11281989586E+02 -0.13366793750E+02 -0.36704373145E+02  0.40659137622E+02  0.00000000000E+00 0.  1.
         11    1    3    3    0    0  0.20011309726E+01  0.44486515870E+01  0.79354819746E+01  0.93148752295E+01  0.51100000000E-03 0. -1.
        -11    1    3    3    0    0 -0.64868357601E+01  0.15724095421E+02  0.26236638503E+02  0.31267993463E+02  0.51100000000E-03 0.  1.
        -12    1    3    3    0    0 -0.67962847989E+01 -0.68059532575E+01  0.25322526674E+01  0.99459936851E+01  0.00000000000E+00 0.  1.
</event>
<event>
 7    1  0.5487071E-013  0.5052886E+02  0.7816164E-02  0.1300439E+00
        -11   -1    0    0    0    0  0.00000000000E+00  0.00000000000E+00  0.45593999997E+02  0.45594000000E+02  0.51100000000E-03 0.  1.
         11   -1    0    0    0    0 -0.00000000000E+00 -0.00000000000E+00 -0.45593999997E+02  0.45594000000E+02  0.51100000000E-03 0. -1.
    9900012    2    1    2    0    0  0.19265682185E+02 -0.22633892515E+02  0.27743573256E+02  0.50528862559E+02  0.30000008233E+02 0.  0.
        -12    1    1    2    0    0 -0.19265682185E+02  0.22633892515E+02 -0.27743573256E+02  0.40659137441E+02  0.00000000000E+00 0.  1.
         11    1    3    3    0    0 -0.92148284268E+00 -0.13860866847E+02  0.76473835883E+01  0.15857340142E+02  0.51100000000E-03 0.  1.
        -11    1    3    3    0    0  0.56954234682E+01 -0.12021433633E+02  0.80459613830E+01  0.15546388967E+02  0.51100000000E-03 0. -1.
        -12    1    3    3    0    0  0.14491741559E+02  0.32484079648E+01  0.12050228285E+02  0.19125133449E+02  0.00000000000E+00 0.  1.
</event>
<event>
 7    1  0.5487071E-013  0.5052886E+02  0.7816164E-02  0.1300439E+00
        -11   -1    0    0    0    0  0.00000000000E+00  0.00000000000E+00  0.45593999997E+02  0.45594000000E+02  0.51100000000E-03 0.  1.
         11   -1    0    0    0    0 -0.00000000000E+00 -0.00000000000E+00 -0.45593999997E+02  0.45594000000E+02  0.51100000000E-03 0. -1.
    9900012    2    1    2    0    0 -0.38569063602E+02  0.12273680457E+02 -0.38664515930E+01  0.50528863918E+02  0.30000012364E+02 0.  0.
        -12    1    1    2    0    0  0.38569063602E+02 -0.12273680457E+02  0.38664515930E+01  0.40659136082E+02  0.00000000000E+00 0.  1.
         11    1    3    3    0    0 -0.23086362782E+01 -0.37092495571E+01  0.28740298211E+01  0.52295679951E+01  0.51100000000E-03 0.  1.
        -11    1    3    3    0    0 -0.13524472098E+02  0.10505235313E+02 -0.12514586526E+02  0.21210520755E+02  0.51100000000E-03 0. -1.
         12    1    3    3    0    0 -0.22735955225E+02  0.54776947009E+01  0.57741051118E+01  0.24088775168E+02  0.00000000000E+00 0. -1.
</event>
<event>
 7    1  0.5487071E-013  0.5052888E+02  0.7816164E-02  0.1300439E+00
        -11   -1    0    0    0    0  0.00000000000E+00  0.00000000000E+00  0.45593999997E+02  0.45594000000E+02  0.51100000000E-03 0. -1.
         11   -1    0    0    0    0 -0.00000000000E+00 -0.00000000000E+00 -0.45593999997E+02  0.45594000000E+02  0.51100000000E-03 0.  1.
    9900012    2    1    2    0    0 -0.23521942229E+02  0.31335411947E+02 -0.10861579651E+02  0.50528883917E+02  0.30000073154E+02 0.  0.
        -12    1    1    2    0    0  0.23521942229E+02 -0.31335411947E+02  0.10861579651E+02  0.40659116083E+02  0.00000000000E+00 0.  1.
         11    1    3    3    0    0 -0.36983608461E+01  0.13734867168E+02  0.60801786677E+00  0.14237069047E+02  0.51100000000E-03 0. -1.
        -11    1    3    3    0    0 -0.53295396395E+01  0.18854188421E+02 -0.88951629421E+01  0.21517628536E+02  0.51100000000E-03 0.  1.
        -12    1    3    3    0    0 -0.14494041744E+02 -0.12536436417E+01 -0.25744345761E+01  0.14774186334E+02  0.00000000000E+00 0.  1.
</event>
<event>
 7    1  0.5487071E-013  0.5052886E+02  0.7816164E-02  0.1300439E+00
        -11   -1    0    0    0    0  0.00000000000E+00  0.00000000000E+00  0.45593999997E+02  0.45594000000E+02  0.51100000000E-03 0.  1.
         11   -1    0    0    0    0 -0.00000000000E+00 -0.00000000000E+00 -0.45593999997E+02  0.45594000000E+02  0.51100000000E-03 0. -1.
    9900012    2    1    2    0    0 -0.34997546073E+02 -0.18759716942E+02 -0.87413099119E+01  0.50528859455E+02  0.29999998800E+02 0.  0.
        -12    1    1    2    0    0  0.34997546073E+02  0.18759716942E+02  0.87413099119E+01  0.40659140545E+02  0.00000000000E+00 0.  1.
         11    1    3    3    0    0 -0.19220618271E+01 -0.39285759089E+01 -0.58251596427E-01  0.43739483135E+01  0.51100000000E-03 0.  1.
        -11    1    3    3    0    0 -0.31903125000E+02 -0.74757462831E+01  0.23406947578E+01  0.32850799373E+02  0.51100000000E-03 0. -1.
         12    1    3    3    0    0 -0.11723592460E+01 -0.73553947495E+01 -0.11023753073E+02  0.13304111768E+02  0.00000000000E+00 0. -1.
</event>
<event>
 7    1  0.5487071E-013  0.5052889E+02  0.7816164E-02  0.1300439E+00
        -11   -1    0    0    0    0  0.00000000000E+00  0.00000000000E+00  0.45593999997E+02  0.45594000000E+02  0.51100000000E-03 0.  1.
         11   -1    0    0    0    0 -0.00000000000E+00 -0.00000000000E+00 -0.45593999997E+02  0.45594000000E+02  0.51100000000E-03 0. -1.
    9900012    2    1    2    0    0  0.37431500548E+02 -0.13286122555E+02  0.86904986831E+01  0.50528892125E+02  0.30000098104E+02 0.  0.
        -12    1    1    2    0    0 -0.37431500548E+02  0.13286122555E+02 -0.86904986831E+01  0.40659107875E+02  0.00000000000E+00 0.  1.
         11    1    3    3    0    0  0.10325069470E+02 -0.27808248666E+01  0.65677923775E+01  0.12548941926E+02  0.51100000000E-03 0. -1.
        -11    1    3    3    0    0  0.30223313336E+02 -0.56982201182E+01  0.56238238142E+01  0.31265728459E+02  0.51100000000E-03 0.  1.
         12    1    3    3    0    0 -0.31168822574E+01 -0.48070775701E+01 -0.35011175086E+01  0.67142217405E+01  0.00000000000E+00 0. -1.
</event>
<event>
 7    1  0.5487071E-013  0.5052884E+02  0.7816164E-02  0.1300439E+00
        -11   -1    0    0    0    0  0.00000000000E+00  0.00000000000E+00  0.45593999997E+02  0.45594000000E+02  0.51100000000E-03 0.  1.
         11   -1    0    0    0    0 -0.00000000000E+00 -0.00000000000E+00 -0.45593999997E+02  0.45594000000E+02  0.51100000000E-03 0. -1.
    9900012    2    1    2    0    0 -0.84923124813E+01  0.38311458691E+02 -0.10643303315E+02  0.50528841821E+02  0.29999945200E+02 0.  0.
        -12    1    1    2    0    0  0.84923124813E+01 -0.38311458691E+02  0.10643303315E+02  0.40659158179E+02  0.00000000000E+00 0.  1.
         11    1    3    3    0    0 -0.13521907853E+01  0.59215171311E+01  0.97469570121E+00  0.61516515689E+01  0.51100000000E-03 0.  1.
        -11    1    3    3    0    0 -0.14183850760E+02  0.72148820745E+01 -0.36869705357E+00  0.15917665768E+02  0.51100000000E-03 0. -1.
         12    1    3    3    0    0  0.70437290637E+01  0.25175059486E+02 -0.11249301963E+02  0.28459524484E+02  0.00000000000E+00 0. -1.
</event>
<event>
 7    1  0.5487071E-013  0.5052886E+02  0.7816164E-02  0.1300439E+00
        -11   -1    0    0    0    0  0.00000000000E+00  0.00000000000E+00  0.45593999997E+02  0.45594000000E+02  0.51100000000E-03 0.  1.
         11   -1    0    0    0    0 -0.00000000000E+00 -0.00000000000E+00 -0.45593999997E+02  0.45594000000E+02  0.51100000000E-03 0. -1.
    9900012    2    1    2    0    0  0.78845767588E+01 -0.33923786907E+02 -0.20980358105E+02  0.50528864557E+02  0.30000014307E+02 0.  0.
        -12    1    1    2    0    0 -0.78845767588E+01  0.33923786907E+02  0.20980358105E+02  0.40659135443E+02  0.00000000000E+00 0.  1.
         11    1    3    3    0    0  0.41448235250E+01 -0.91594333015E+01 -0.29652410637E+01  0.10481766802E+02  0.51100000000E-03 0.  1.
        -11    1    3    3    0    0 -0.33242539465E+01 -0.20143301715E+02 -0.29359868370E+00  0.20417871308E+02  0.51100000000E-03 0. -1.
         12    1    3    3    0    0  0.70640071802E+01 -0.46210518901E+01 -0.17721518358E+02  0.19629226447E+02  0.00000000000E+00 0. -1.
</event>
<event>
 7    1  0.5487071E-013  0.5052886E+02  0.7816164E-02  0.1300439E+00
        -11   -1    0    0    0    0  0.00000000000E+00  0.00000000000E+00  0.45593999997E+02  0.45594000000E+02  0.51100000000E-03 0.  1.
         11   -1    0    0    0    0 -0.00000000000E+00 -0.00000000000E+00 -0.45593999997E+02  0.45594000000E+02  0.51100000000E-03 0. -1.
    9900012    2    1    2    0    0  0.31566122811E+02 -0.10618777896E+02 -0.23323534356E+02  0.50528858246E+02  0.29999995123E+02 0.  0.
        -12    1    1    2    0    0 -0.31566122811E+02  0.10618777896E+02  0.23323534356E+02  0.40659141754E+02  0.00000000000E+00 0.  1.
         11    1    3    3    0    0  0.23367220322E+02 -0.30140458049E+01 -0.15460840008E+02  0.28180649951E+02  0.51100000000E-03 0. -1.
        -11    1    3    3    0    0  0.39034488443E+01 -0.71163538876E+01 -0.13190128244E+02  0.15487378374E+02  0.51100000000E-03 0.  1.
        -12    1    3    3    0    0  0.42954536450E+01 -0.48837820373E+00  0.53274338955E+01  0.68608299205E+01  0.00000000000E+00 0.  1.
</event>
<event>
 7    1  0.5487071E-013  0.5052887E+02  0.7816164E-02  0.1300439E+00
        -11   -1    0    0    0    0  0.00000000000E+00  0.00000000000E+00  0.45593999997E+02  0.45594000000E+02  0.51100000000E-03 0.  1.
         11   -1    0    0    0    0 -0.00000000000E+00 -0.00000000000E+00 -0.45593999997E+02  0.45594000000E+02  0.51100000000E-03 0. -1.
    9900012    2    1    2    0    0 -0.99182777121E+01 -0.89931666651E+01 -0.38391612680E+02  0.50528865681E+02  0.30000017723E+02 0.  0.
        -12    1    1    2    0    0  0.99182777121E+01  0.89931666651E+01  0.38391612680E+02  0.40659134319E+02  0.00000000000E+00 0.  1.
         11    1    3    3    0    0  0.11921675231E+01  0.31371189554E+01  0.32171947582E+01  0.46489914086E+01  0.51100000000E-03 0.  1.
        -11    1    3    3    0    0 -0.41526243625E+01  0.11228004792E+01 -0.10870371408E+02  0.11690592150E+02  0.51100000000E-03 0. -1.
        -12    1    3    3    0    0 -0.69578208727E+01 -0.13253086100E+02 -0.30738436030E+02  0.34189282122E+02  0.00000000000E+00 0.  1.
</event>
<event>
 7    1  0.5487071E-013  0.5052893E+02  0.7816164E-02  0.1300439E+00
        -11   -1    0    0    0    0  0.00000000000E+00  0.00000000000E+00  0.45593999997E+02  0.45594000000E+02  0.51100000000E-03 0.  1.
         11   -1    0    0    0    0 -0.00000000000E+00 -0.00000000000E+00 -0.45593999997E+02  0.45594000000E+02  0.51100000000E-03 0. -1.
    9900012    2    1    2    0    0 -0.22484657608E+02  0.15768930520E+02 -0.29982350097E+02  0.50528925799E+02  0.30000200459E+02 0.  0.
        -12    1    1    2    0    0  0.22484657608E+02 -0.15768930520E+02  0.29982350097E+02  0.40659074201E+02  0.00000000000E+00 0.  1.
         11    1    3    3    0    0  0.18428611533E+01  0.94266620382E-02 -0.47375769385E+01  0.50833907583E+01  0.51100000000E-03 0. -1.
        -11    1    3    3    0    0  0.38046992174E+00  0.12592137368E+02 -0.59262833970E+01  0.13922195086E+02  0.51100000000E-03 0.  1.
         12    1    3    3    0    0 -0.24707988683E+02  0.31673664902E+01 -0.19318489762E+02  0.31523339955E+02  0.00000000000E+00 0. -1.
</event>
<event>
 7    1  0.5487071E-013  0.5052886E+02  0.7816164E-02  0.1300439E+00
        -11   -1    0    0    0    0  0.00000000000E+00  0.00000000000E+00  0.45593999997E+02  0.45594000000E+02  0.51100000000E-03 0.  1.
         11   -1    0    0    0    0 -0.00000000000E+00 -0.00000000000E+00 -0.45593999997E+02  0.45594000000E+02  0.51100000000E-03 0. -1.
    9900012    2    1    2    0    0  0.28068732460E+02  0.26746282185E+02 -0.12245333677E+02  0.50528861427E+02  0.30000004794E+02 0.  0.
        -12    1    1    2    0    0 -0.28068732460E+02 -0.26746282185E+02  0.12245333677E+02  0.40659138573E+02  0.00000000000E+00 0.  1.
         11    1    3    3    0    0  0.27301422173E+02  0.11101187899E+02 -0.63619770420E+01  0.30150933279E+02  0.51100000000E-03 0. -1.
        -11    1    3    3    0    0  0.35810084125E+01  0.29940816135E+00  0.27714772852E+00  0.36041750266E+01  0.51100000000E-03 0.  1.
        -12    1    3    3    0    0 -0.28136981259E+01  0.15345686124E+02 -0.61605043638E+01  0.16773753121E+02  0.00000000000E+00 0.  1.
</event>
<event>
 7    1  0.5487071E-013  0.5052887E+02  0.7816164E-02  0.1300439E+00
        -11   -1    0    0    0    0  0.00000000000E+00  0.00000000000E+00  0.45593999997E+02  0.45594000000E+02  0.51100000000E-03 0.  1.
         11   -1    0    0    0    0 -0.00000000000E+00 -0.00000000000E+00 -0.45593999997E+02  0.45594000000E+02  0.51100000000E-03 0. -1.
    9900012    2    1    2    0    0 -0.17475603716E+02 -0.36545504351E+02 -0.34920579041E+01  0.50528867177E+02  0.30000022272E+02 0.  0.
        -12    1    1    2    0    0  0.17475603716E+02  0.36545504351E+02  0.34920579041E+01  0.40659132823E+02  0.00000000000E+00 0.  1.
         11    1    3    3    0    0 -0.52870234839E+01 -0.20678163941E+02  0.10173007868E+02  0.23643797720E+02  0.51100000000E-03 0. -1.
        -11    1    3    3    0    0 -0.13146795249E+01  0.74905841336E+00  0.13195588798E+01  0.20076619881E+01  0.51100000000E-03 0.  1.
         12    1    3    3    0    0 -0.10873900707E+02 -0.16616398823E+02 -0.14984624652E+02  0.24877407469E+02  0.00000000000E+00 0. -1.
</event>
<event>
 7    1  0.5487071E-013  0.5052886E+02  0.7816164E-02  0.1300439E+00
        -11   -1    0    0    0    0  0.00000000000E+00  0.00000000000E+00  0.45593999997E+02  0.45594000000E+02  0.51100000000E-03 0. -1.
         11   -1    0    0    0    0 -0.00000000000E+00 -0.00000000000E+00 -0.45593999997E+02  0.45594000000E+02  0.51100000000E-03 0.  1.
    9900012    2    1    2    0    0 -0.18469331788E+02  0.27838231997E+02  0.23175036271E+02  0.50528859778E+02  0.29999999780E+02 0.  0.
        -12    1    1    2    0    0  0.18469331788E+02 -0.27838231997E+02 -0.23175036271E+02  0.40659140222E+02  0.00000000000E+00 0.  1.
         11    1    3    3    0    0  0.47119180174E+01 -0.12048074306E+01  0.12901776996E+01  0.50317284411E+01  0.51100000000E-03 0. -1.
        -11    1    3    3    0    0 -0.38779825247E+01 -0.10441745682E+01  0.11759717594E+01  0.41847292422E+01  0.51100000000E-03 0.  1.
        -12    1    3    3    0    0 -0.19303267281E+02  0.30087213996E+02  0.20708886812E+02  0.41312402094E+02  0.00000000000E+00 0.  1.
</event>
<event>
 7    1  0.5487071E-013  0.5052886E+02  0.7816164E-02  0.1300439E+00
        -11   -1    0    0    0    0  0.00000000000E+00  0.00000000000E+00  0.45593999997E+02  0.45594000000E+02  0.51100000000E-03 0.  1.
         11   -1    0    0    0    0 -0.00000000000E+00 -0.00000000000E+00 -0.45593999997E+02  0.45594000000E+02  0.51100000000E-03 0. -1.
    9900012    2    1    2    0    0  0.28599835105E+02 -0.27824761336E+02 -0.78101226573E+01  0.50528856780E+02  0.29999990669E+02 0.  0.
        -12    1    1    2    0    0 -0.28599835105E+02  0.27824761336E+02  0.78101226573E+01  0.40659143220E+02  0.00000000000E+00 0.  1.
         11    1    3    3    0    0 -0.13587162940E+01 -0.57078072585E+01 -0.40999694498E+01  0.71578574600E+01  0.51100000000E-03 0. -1.
        -11    1    3    3    0    0  0.11386385446E+02 -0.10528325345E+02  0.91262003847E+01  0.17993969596E+02  0.51100000000E-03 0.  1.
        -12    1    3    3    0    0  0.18572165953E+02 -0.11588628733E+02 -0.12836353592E+02  0.25377029724E+02  0.00000000000E+00 0.  1.
</event>
<event>
 7    1  0.5487071E-013  0.5052887E+02  0.7816164E-02  0.1300439E+00
        -11   -1    0    0    0    0  0.00000000000E+00  0.00000000000E+00  0.45593999997E+02  0.45594000000E+02  0.51100000000E-03 0.  1.
         11   -1    0    0    0    0 -0.00000000000E+00 -0.00000000000E+00 -0.45593999997E+02  0.45594000000E+02  0.51100000000E-03 0. -1.
    9900012    2    1    2    0    0 -0.72751350997E+01  0.39500721273E+02 -0.63190517325E+01  0.50528868349E+02  0.30000025833E+02 0.  0.
        -12    1    1    2    0    0  0.72751350997E+01 -0.39500721273E+02  0.63190517325E+01  0.40659131651E+02  0.00000000000E+00 0.  1.
         11    1    3    3    0    0 -0.44452582402E+01  0.18134359253E+02 -0.10630213136E+02  0.21485267927E+02  0.51100000000E-03 0. -1.
        -11    1    3    3    0    0 -0.47356189875E+01  0.99992025837E+01  0.11095691193E+02  0.15669221513E+02  0.51100000000E-03 0.  1.
         12    1    3    3    0    0  0.19057421281E+01  0.11367159437E+02 -0.67845297900E+01  0.13374378908E+02  0.00000000000E+00 0. -1.
</event>
<event>
 7    1  0.5487071E-013  0.5052885E+02  0.7816164E-02  0.1300439E+00
        -11   -1    0    0    0    0  0.00000000000E+00  0.00000000000E+00  0.45593999997E+02  0.45594000000E+02  0.51100000000E-03 0.  1.
         11   -1    0    0    0    0 -0.00000000000E+00 -0.00000000000E+00 -0.45593999997E+02  0.45594000000E+02  0.51100000000E-03 0. -1.
    9900012    2    1    2    0    0  0.41309717442E+01  0.30953287039E+02 -0.26038355043E+02  0.50528845564E+02  0.29999956578E+02 0.  0.
        -12    1    1    2    0    0 -0.41309717442E+01 -0.30953287039E+02  0.26038355043E+02  0.40659154436E+02  0.00000000000E+00 0.  1.
         11    1    3    3    0    0  0.41058093553E+01 -0.49347397824E+00 -0.12978064392E+02  0.13620989048E+02  0.51100000000E-03 0. -1.
        -11    1    3    3    0    0 -0.32783183363E+01  0.56423750435E+00 -0.22739677187E+01  0.40294744723E+01  0.51100000000E-03 0.  1.
         12    1    3    3    0    0  0.33034807252E+01  0.30882523513E+02 -0.10786322932E+02  0.32878382044E+02  0.00000000000E+00 0. -1.
</event>
<event>
 7    1  0.5487071E-013  0.5052886E+02  0.7816164E-02  0.1300439E+00
        -11   -1    0    0    0    0  0.00000000000E+00  0.00000000000E+00  0.45593999997E+02  0.45594000000E+02  0.51100000000E-03 0.  1.
         11   -1    0    0    0    0 -0.00000000000E+00 -0.00000000000E+00 -0.45593999997E+02  0.45594000000E+02  0.51100000000E-03 0. -1.
    9900012    2    1    2    0    0  0.16077280383E+02 -0.15081184144E+02 -0.34164958141E+02  0.50528862964E+02  0.30000009467E+02 0.  0.
        -12    1    1    2    0    0 -0.16077280383E+02  0.15081184144E+02  0.34164958141E+02  0.40659137036E+02  0.00000000000E+00 0.  1.
         11    1    3    3    0    0 -0.39218276540E+00 -0.54391477277E+01  0.37899178245E+00  0.54664220800E+01  0.51100000000E-03 0. -1.
        -11    1    3    3    0    0 -0.26084972137E+01 -0.93833418485E+01 -0.13642784238E+02  0.16762366300E+02  0.51100000000E-03 0.  1.
         12    1    3    3    0    0  0.19077960362E+02 -0.25869456811E+00 -0.20901165685E+02  0.28300074584E+02  0.00000000000E+00 0. -1.
</event>
<event>
 7    1  0.5487071E-013  0.5052887E+02  0.7816164E-02  0.1300439E+00
        -11   -1    0    0    0    0  0.00000000000E+00  0.00000000000E+00  0.45593999997E+02  0.45594000000E+02  0.51100000000E-03 0.  1.
         11   -1    0    0    0    0 -0.00000000000E+00 -0.00000000000E+00 -0.45593999997E+02  0.45594000000E+02  0.51100000000E-03 0. -1.
    9900012    2    1    2    0    0 -0.32629213322E+02 -0.13697877424E+02 -0.20021680928E+02  0.50528866768E+02  0.30000021029E+02 0.  0.
        -12    1    1    2    0    0  0.32629213322E+02  0.13697877424E+02  0.20021680928E+02  0.40659133232E+02  0.00000000000E+00 0.  1.
         11    1    3    3    0    0  0.22751911348E+01 -0.36065558623E+01 -0.66038972058E+01  0.78609922054E+01  0.51100000000E-03 0. -1.
        -11    1    3    3    0    0 -0.87474320628E+01 -0.88427575192E+01  0.15026669064E+01  0.12528764358E+02  0.51100000000E-03 0.  1.
         12    1    3    3    0    0 -0.26156972394E+02 -0.12485640423E+01 -0.14920450629E+02  0.30139110205E+02  0.00000000000E+00 0. -1.
</event>
<event>
 7    1  0.5487071E-013  0.5052886E+02  0.7816164E-02  0.1300439E+00
        -11   -1    0    0    0    0  0.00000000000E+00  0.00000000000E+00  0.45593999997E+02  0.45594000000E+02  0.51100000000E-03 0.  1.
         11   -1    0    0    0    0 -0.00000000000E+00 -0.00000000000E+00 -0.45593999997E+02  0.45594000000E+02  0.51100000000E-03 0. -1.
    9900012    2    1    2    0    0  0.41824678971E+01  0.31688869966E+00 -0.40442206269E+02  0.50528861986E+02  0.30000006492E+02 0.  0.
        -12    1    1    2    0    0 -0.41824678971E+01 -0.31688869966E+00  0.40442206269E+02  0.40659138014E+02  0.00000000000E+00 0.  1.
         11    1    3    3    0    0  0.39353797438E+00  0.32208922124E+01 -0.12752987849E+01  0.34864603874E+01  0.51100000000E-03 0. -1.
        -11    1    3    3    0    0 -0.43657597492E+01 -0.18467671947E+01  0.19394093680E+01  0.51216907576E+01  0.51100000000E-03 0.  1.
         12    1    3    3    0    0  0.81546896719E+01 -0.10572363181E+01 -0.41106316852E+02  0.41920710841E+02  0.00000000000E+00 0. -1.
</event>
<event>
 7    1  0.5487071E-013  0.5052886E+02  0.7816164E-02  0.1300439E+00
        -11   -1    0    0    0    0  0.00000000000E+00  0.00000000000E+00  0.45593999997E+02  0.45594000000E+02  0.51100000000E-03 0.  1.
         11   -1    0    0    0    0 -0.00000000000E+00 -0.00000000000E+00 -0.45593999997E+02  0.45594000000E+02  0.51100000000E-03 0. -1.
    9900012    2    1    2    0    0 -0.26668622770E+02 -0.30035447655E+02 -0.63104612205E+01  0.50528862317E+02  0.30000007500E+02 0.  0.
        -12    1    1    2    0    0  0.26668622770E+02  0.30035447655E+02  0.63104612205E+01  0.40659137683E+02  0.00000000000E+00 0.  1.
         11    1    3    3    0    0 -0.27401511290E+01 -0.11600956859E+02 -0.69788677051E+01  0.13812864401E+02  0.51100000000E-03 0. -1.
        -11    1    3    3    0    0 -0.10300408994E+02 -0.10979639980E+02  0.10479633072E+02  0.18343217524E+02  0.51100000000E-03 0.  1.
         12    1    3    3    0    0 -0.13628062647E+02 -0.74548508154E+01 -0.98112265878E+01  0.18372780392E+02  0.00000000000E+00 0. -1.
</event>
<event>
 7    1  0.5487071E-013  0.5052885E+02  0.7816164E-02  0.1300439E+00
        -11   -1    0    0    0    0  0.00000000000E+00  0.00000000000E+00  0.45593999997E+02  0.45594000000E+02  0.51100000000E-03 0.  1.
         11   -1    0    0    0    0 -0.00000000000E+00 -0.00000000000E+00 -0.45593999997E+02  0.45594000000E+02  0.51100000000E-03 0. -1.
    9900012    2    1    2    0    0  0.14723110414E+02 -0.24826082521E+02 -0.28636733900E+02  0.50528845039E+02  0.29999954981E+02 0.  0.
        -12    1    1    2    0    0 -0.14723110414E+02  0.24826082521E+02  0.28636733900E+02  0.40659154961E+02  0.00000000000E+00 0.  1.
         11    1    3    3    0    0  0.61324939869E+01  0.12064214225E-02  0.10787619256E+01  0.62266533152E+01  0.51100000000E-03 0. -1.
        -11    1    3    3    0    0  0.54298718814E+01 -0.56675279477E+00  0.43205948290E+00  0.54764398140E+01  0.51100000000E-03 0.  1.
         12    1    3    3    0    0  0.31607445461E+01 -0.24260536148E+02 -0.30147555309E+02  0.38825751910E+02  0.00000000000E+00 0. -1.
</event>
<event>
 7    1  0.5487071E-013  0.5052885E+02  0.7816164E-02  0.1300439E+00
        -11   -1    0    0    0    0  0.00000000000E+00  0.00000000000E+00  0.45593999997E+02  0.45594000000E+02  0.51100000000E-03 0. -1.
         11   -1    0    0    0    0 -0.00000000000E+00 -0.00000000000E+00 -0.45593999997E+02  0.45594000000E+02  0.51100000000E-03 0.  1.
    9900012    2    1    2    0    0 -0.32172261368E+02 -0.24858929913E+02 -0.38131071171E+00  0.50528853480E+02  0.29999980637E+02 0.  0.
        -12    1    1    2    0    0  0.32172261368E+02  0.24858929913E+02  0.38131071171E+00  0.40659146520E+02  0.00000000000E+00 0.  1.
         11    1    3    3    0    0 -0.14434243211E+02 -0.20585135305E+02 -0.14626836636E+01  0.25184015096E+02  0.51100000000E-03 0.  1.
        -11    1    3    3    0    0 -0.19468923913E+02 -0.28275435525E+01 -0.37367136600E+01  0.20024910240E+02  0.51100000000E-03 0. -1.
        -12    1    3    3    0    0  0.17309057566E+01 -0.14462510549E+01  0.48180866119E+01  0.53199281435E+01  0.00000000000E+00 0.  1.
</event>
<event>
 7    1  0.5487071E-013  0.5052888E+02  0.7816164E-02  0.1300439E+00
        -11   -1    0    0    0    0  0.00000000000E+00  0.00000000000E+00  0.45593999997E+02  0.45594000000E+02  0.51100000000E-03 0.  1.
         11   -1    0    0    0    0 -0.00000000000E+00 -0.00000000000E+00 -0.45593999997E+02  0.45594000000E+02  0.51100000000E-03 0. -1.
    9900012    2    1    2    0    0  0.16975888202E+02  0.23028753231E+02 -0.28890484060E+02  0.50528876487E+02  0.30000050570E+02 0.  0.
        -12    1    1    2    0    0 -0.16975888202E+02 -0.23028753231E+02  0.28890484060E+02  0.40659123513E+02  0.00000000000E+00 0.  1.
         11    1    3    3    0    0  0.12733242271E+01  0.16436356899E+02 -0.13910017357E+00  0.16486192157E+02  0.51100000000E-03 0.  1.
        -11    1    3    3    0    0  0.19072938824E+01  0.73078980489E+00 -0.91055632335E+01  0.93318329257E+01  0.51100000000E-03 0. -1.
        -12    1    3    3    0    0  0.13795270093E+02  0.58616065267E+01 -0.19645820653E+02  0.24710851405E+02  0.00000000000E+00 0.  1.
</event>
<event>
 7    1  0.5487071E-013  0.5052887E+02  0.7816164E-02  0.1300439E+00
        -11   -1    0    0    0    0  0.00000000000E+00  0.00000000000E+00  0.45593999997E+02  0.45594000000E+02  0.51100000000E-03 0.  1.
         11   -1    0    0    0    0 -0.00000000000E+00 -0.00000000000E+00 -0.45593999997E+02  0.45594000000E+02  0.51100000000E-03 0. -1.
    9900012    2    1    2    0    0  0.14153854039E+02 -0.31224239284E+01 -0.37987943149E+02  0.50528868922E+02  0.30000027575E+02 0.  0.
        -12    1    1    2    0    0 -0.14153854039E+02  0.31224239284E+01  0.37987943149E+02  0.40659131078E+02  0.00000000000E+00 0.  1.
         11    1    3    3    0    0  0.60622997940E+01 -0.42141600549E+01 -0.50402612555E+01  0.89395110350E+01  0.51100000000E-03 0. -1.
        -11    1    3    3    0    0 -0.81567054444E+01 -0.27241826172E+01 -0.12896278845E+02  0.15500549118E+02  0.51100000000E-03 0.  1.
         12    1    3    3    0    0  0.16248259689E+02  0.38159187437E+01 -0.20051403048E+02  0.26088808769E+02  0.00000000000E+00 0. -1.
</event>
<event>
 7    1  0.5487071E-013  0.5052885E+02  0.7816164E-02  0.1300439E+00
        -11   -1    0    0    0    0  0.00000000000E+00  0.00000000000E+00  0.45593999997E+02  0.45594000000E+02  0.51100000000E-03 0. -1.
         11   -1    0    0    0    0 -0.00000000000E+00 -0.00000000000E+00 -0.45593999997E+02  0.45594000000E+02  0.51100000000E-03 0.  1.
    9900012    2    1    2    0    0 -0.31862858492E+02 -0.24832590667E+02 -0.46116104544E+01  0.50528852671E+02  0.29999978180E+02 0.  0.
        -12    1    1    2    0    0  0.31862858492E+02  0.24832590667E+02  0.46116104544E+01  0.40659147329E+02  0.00000000000E+00 0.  1.
         11    1    3    3    0    0  0.18815207686E+01 -0.12477716961E+01 -0.46132734839E+01  0.51360828563E+01  0.51100000000E-03 0. -1.
        -11    1    3    3    0    0 -0.64715901874E+01 -0.40203089515E+00 -0.63082155424E+01  0.90463634675E+01  0.51100000000E-03 0.  1.
         12    1    3    3    0    0 -0.27272789073E+02 -0.23182788076E+02  0.63098785720E+01  0.36346406348E+02  0.00000000000E+00 0. -1.
</event>
<event>
 7    1  0.5487071E-013  0.5052886E+02  0.7816164E-02  0.1300439E+00
        -11   -1    0    0    0    0  0.00000000000E+00  0.00000000000E+00  0.45593999997E+02  0.45594000000E+02  0.51100000000E-03 0. -1.
         11   -1    0    0    0    0 -0.00000000000E+00 -0.00000000000E+00 -0.45593999997E+02  0.45594000000E+02  0.51100000000E-03 0.  1.
    9900012    2    1    2    0    0  0.22628463264E+02 -0.27790859775E+02  0.19203813095E+02  0.50528859894E+02  0.30000000135E+02 0.  0.
        -12    1    1    2    0    0 -0.22628463264E+02  0.27790859775E+02 -0.19203813095E+02  0.40659140106E+02  0.00000000000E+00 0.  1.
         11    1    3    3    0    0  0.76095922332E+01 -0.23462454568E+01  0.13209969531E+02  0.15424462939E+02  0.51100000000E-03 0. -1.
        -11    1    3    3    0    0 -0.37001688756E+01 -0.73553144914E+01  0.35247501495E+01  0.89563254102E+01  0.51100000000E-03 0.  1.
         12    1    3    3    0    0  0.18719039906E+02 -0.18089299827E+02  0.24690934154E+01  0.26148071545E+02  0.00000000000E+00 0. -1.
</event>
<event>
 7    1  0.5487071E-013  0.5052886E+02  0.7816164E-02  0.1300439E+00
        -11   -1    0    0    0    0  0.00000000000E+00  0.00000000000E+00  0.45593999997E+02  0.45594000000E+02  0.51100000000E-03 0.  1.
         11   -1    0    0    0    0 -0.00000000000E+00 -0.00000000000E+00 -0.45593999997E+02  0.45594000000E+02  0.51100000000E-03 0. -1.
    9900012    2    1    2    0    0 -0.27752723010E+02  0.10023397956E+02 -0.27972907888E+02  0.50528859370E+02  0.29999998542E+02 0.  0.
        -12    1    1    2    0    0  0.27752723010E+02 -0.10023397956E+02  0.27972907888E+02  0.40659140630E+02  0.00000000000E+00 0.  1.
         11    1    3    3    0    0  0.62891173575E+00  0.44162165111E+01  0.50250135983E+00  0.44889872044E+01  0.51100000000E-03 0. -1.
        -11    1    3    3    0    0 -0.65325120438E+01 -0.92882304230E+00 -0.21043501940E+02  0.22053693568E+02  0.51100000000E-03 0.  1.
         12    1    3    3    0    0 -0.21849122702E+02  0.65360044868E+01 -0.74319073083E+01  0.23986178598E+02  0.00000000000E+00 0. -1.
</event>
<event>
 7    1  0.5487071E-013  0.5052886E+02  0.7816164E-02  0.1300439E+00
        -11   -1    0    0    0    0  0.00000000000E+00  0.00000000000E+00  0.45593999997E+02  0.45594000000E+02  0.51100000000E-03 0.  1.
         11   -1    0    0    0    0 -0.00000000000E+00 -0.00000000000E+00 -0.45593999997E+02  0.45594000000E+02  0.51100000000E-03 0. -1.
    9900012    2    1    2    0    0  0.29506855708E+02  0.21365897116E+02  0.18055732260E+02  0.50528861289E+02  0.30000004373E+02 0.  0.
        -12    1    1    2    0    0 -0.29506855708E+02 -0.21365897116E+02 -0.18055732260E+02  0.40659138711E+02  0.00000000000E+00 0.  1.
         11    1    3    3    0    0  0.12009392559E+01 -0.10046904192E+01  0.82622807401E+00  0.17703985501E+01  0.51100000000E-03 0. -1.
        -11    1    3    3    0    0  0.70097755692E+00  0.12845193187E+02 -0.30305319795E+01  0.13216447401E+02  0.51100000000E-03 0.  1.
         12    1    3    3    0    0  0.27604938895E+02  0.95253943476E+01  0.20260036165E+02  0.35542015338E+02  0.00000000000E+00 0. -1.
</event>
<event>
 7    1  0.5487071E-013  0.5052886E+02  0.7816164E-02  0.1300439E+00
        -11   -1    0    0    0    0  0.00000000000E+00  0.00000000000E+00  0.45593999997E+02  0.45594000000E+02  0.51100000000E-03 0. -1.
         11   -1    0    0    0    0 -0.00000000000E+00 -0.00000000000E+00 -0.45593999997E+02  0.45594000000E+02  0.51100000000E-03 0.  1.
    9900012    2    1    2    0    0  0.14458024826E+02 -0.22457169197E+02  0.30656265132E+02  0.50528861764E+02  0.30000005818E+02 0.  0.
        -12    1    1    2    0    0 -0.14458024826E+02  0.22457169197E+02 -0.30656265132E+02  0.40659138236E+02  0.00000000000E+00 0.  1.
         11    1    3    3    0    0 -0.15995585216E+01 -0.54763878219E+01 -0.35591429869E+01  0.67243520209E+01  0.51100000000E-03 0. -1.
        -11    1    3    3    0    0 -0.23182061985E+01  0.12506933591E-01  0.31417637925E+01  0.39044738943E+01  0.51100000000E-03 0.  1.
         12    1    3    3    0    0  0.18375789546E+02 -0.16993288309E+02  0.31073644327E+02  0.39900035849E+02  0.00000000000E+00 0. -1.
</event>
<event>
 7    1  0.5487071E-013  0.5052886E+02  0.7816164E-02  0.1300439E+00
        -11   -1    0    0    0    0  0.00000000000E+00  0.00000000000E+00  0.45593999997E+02  0.45594000000E+02  0.51100000000E-03 0.  1.
         11   -1    0    0    0    0 -0.00000000000E+00 -0.00000000000E+00 -0.45593999997E+02  0.45594000000E+02  0.51100000000E-03 0. -1.
    9900012    2    1    2    0    0  0.33464436513E+02  0.98243291816E+00 -0.23072328027E+02  0.50528855812E+02  0.29999987725E+02 0.  0.
        -12    1    1    2    0    0 -0.33464436513E+02 -0.98243291816E+00  0.23072328027E+02  0.40659144188E+02  0.00000000000E+00 0.  1.
         11    1    3    3    0    0  0.19230495986E+02 -0.37304812797E+01 -0.19022193305E+02  0.27305169929E+02  0.51100000000E-03 0. -1.
        -11    1    3    3    0    0  0.44986963678E+01 -0.27012266636E+01 -0.86777342141E+01  0.10140905573E+02  0.51100000000E-03 0.  1.
        -12    1    3    3    0    0  0.97352441594E+01  0.74141408614E+01  0.46275994927E+01  0.13082780309E+02  0.00000000000E+00 0.  1.
</event>
<event>
 7    1  0.5487071E-013  0.5052887E+02  0.7816164E-02  0.1300439E+00
        -11   -1    0    0    0    0  0.00000000000E+00  0.00000000000E+00  0.45593999997E+02  0.45594000000E+02  0.51100000000E-03 0. -1.
         11   -1    0    0    0    0 -0.00000000000E+00 -0.00000000000E+00 -0.45593999997E+02  0.45594000000E+02  0.51100000000E-03 0.  1.
    9900012    2    1    2    0    0  0.24573615075E+02 -0.23028816243E+01  0.32310974482E+02  0.50528869493E+02  0.30000029312E+02 0.  0.
        -12    1    1    2    0    0 -0.24573615075E+02  0.23028816243E+01 -0.32310974482E+02  0.40659130507E+02  0.00000000000E+00 0.  1.
         11    1    3    3    0    0  0.68623924752E+01  0.55884523650E+01  0.19387536746E+02  0.21311964050E+02  0.51100000000E-03 0. -1.
        -11    1    3    3    0    0 -0.16496300725E+01  0.30171524707E+01  0.39866844685E+01  0.52648021539E+01  0.51100000000E-03 0.  1.
         12    1    3    3    0    0  0.19360852672E+02 -0.10908486460E+02  0.89367532671E+01  0.23952103289E+02  0.00000000000E+00 0. -1.
</event>
<event>
 7    1  0.5487071E-013  0.5052885E+02  0.7816164E-02  0.1300439E+00
        -11   -1    0    0    0    0  0.00000000000E+00  0.00000000000E+00  0.45593999997E+02  0.45594000000E+02  0.51100000000E-03 0. -1.
         11   -1    0    0    0    0 -0.00000000000E+00 -0.00000000000E+00 -0.45593999997E+02  0.45594000000E+02  0.51100000000E-03 0.  1.
    9900012    2    1    2    0    0  0.32827972953E+02 -0.24985736176E+01  0.23858914223E+02  0.50528850154E+02  0.29999970528E+02 0.  0.
        -12    1    1    2    0    0 -0.32827972953E+02  0.24985736176E+01 -0.23858914223E+02  0.40659149846E+02  0.00000000000E+00 0.  1.
         11    1    3    3    0    0  0.35341684316E+01  0.60578527028E+01  0.70576460223E+01  0.99497886163E+01  0.51100000000E-03 0. -1.
        -11    1    3    3    0    0  0.62542732517E+01  0.12640337028E+01 -0.44118489776E+01  0.77574562049E+01  0.51100000000E-03 0.  1.
        -12    1    3    3    0    0  0.23039531269E+02 -0.98204600232E+01  0.21213117179E+02  0.32821605333E+02  0.00000000000E+00 0.  1.
</event>
<event>
 7    1  0.5487071E-013  0.5052885E+02  0.7816164E-02  0.1300439E+00
        -11   -1    0    0    0    0  0.00000000000E+00  0.00000000000E+00  0.45593999997E+02  0.45594000000E+02  0.51100000000E-03 0.  1.
         11   -1    0    0    0    0 -0.00000000000E+00 -0.00000000000E+00 -0.45593999997E+02  0.45594000000E+02  0.51100000000E-03 0. -1.
    9900012    2    1    2    0    0  0.35015832127E+02  0.20241365195E+02  0.41647246796E+01  0.50528852245E+02  0.29999976885E+02 0.  0.
        -12    1    1    2    0    0 -0.35015832127E+02 -0.20241365195E+02 -0.41647246796E+01  0.40659147755E+02  0.00000000000E+00 0.  1.
         11    1    3    3    0    0  0.61323309581E+01  0.10455700439E+02 -0.17407083489E+01  0.12245702123E+02  0.51100000000E-03 0. -1.
        -11    1    3    3    0    0  0.17734656613E+02  0.16251502364E+02 -0.12247430529E+00  0.24055028050E+02  0.51100000000E-03 0.  1.
        -12    1    3    3    0    0  0.11148844556E+02 -0.64658376084E+01  0.60279073338E+01  0.14228122073E+02  0.00000000000E+00 0.  1.
</event>
<event>
 7    1  0.5487071E-013  0.5052887E+02  0.7816164E-02  0.1300439E+00
        -11   -1    0    0    0    0  0.00000000000E+00  0.00000000000E+00  0.45593999997E+02  0.45594000000E+02  0.51100000000E-03 0.  1.
         11   -1    0    0    0    0 -0.00000000000E+00 -0.00000000000E+00 -0.45593999997E+02  0.45594000000E+02  0.51100000000E-03 0. -1.
    9900012    2    1    2    0    0  0.61464281445E+01  0.39123081090E+02 -0.92070917224E+01  0.50528873216E+02  0.30000040626E+02 0.  0.
        -12    1    1    2    0    0 -0.61464281445E+01 -0.39123081090E+02  0.92070917224E+01  0.40659126784E+02  0.00000000000E+00 0.  1.
         11    1    3    3    0    0  0.13324330167E+02  0.66144324847E+01 -0.30398381951E+01  0.15183185042E+02  0.51100000000E-03 0. -1.
        -11    1    3    3    0    0  0.18617924290E+01  0.12003810987E+01 -0.32415249451E+00  0.22388079265E+01  0.51100000000E-03 0.  1.
        -12    1    3    3    0    0 -0.90396944519E+01  0.31308267506E+02 -0.58431010328E+01  0.33106880247E+02  0.00000000000E+00 0.  1.
</event>
<event>
 7    1  0.5487071E-013  0.5052885E+02  0.7816164E-02  0.1300439E+00
        -11   -1    0    0    0    0  0.00000000000E+00  0.00000000000E+00  0.45593999997E+02  0.45594000000E+02  0.51100000000E-03 0.  1.
         11   -1    0    0    0    0 -0.00000000000E+00 -0.00000000000E+00 -0.45593999997E+02  0.45594000000E+02  0.51100000000E-03 0. -1.
    9900012    2    1    2    0    0 -0.11035699884E+02  0.92997339263E+01 -0.38011772367E+02  0.50528848982E+02  0.29999966966E+02 0.  0.
        -12    1    1    2    0    0  0.11035699884E+02 -0.92997339263E+01  0.38011772367E+02  0.40659151018E+02  0.00000000000E+00 0.  1.
         11    1    3    3    0    0 -0.13418925988E+01 -0.57027873211E+00  0.15174192897E+01  0.21043894937E+01  0.51100000000E-03 0. -1.
        -11    1    3    3    0    0 -0.80898198683E+01  0.12609785589E+02 -0.84835747242E+01  0.17216936965E+02  0.51100000000E-03 0.  1.
         12    1    3    3    0    0 -0.16039874165E+01 -0.27397729303E+01 -0.31045616932E+02  0.31207522523E+02  0.00000000000E+00 0. -1.
</event>
<event>
 7    1  0.5487071E-013  0.5052886E+02  0.7816164E-02  0.1300439E+00
        -11   -1    0    0    0    0  0.00000000000E+00  0.00000000000E+00  0.45593999997E+02  0.45594000000E+02  0.51100000000E-03 0. -1.
         11   -1    0    0    0    0 -0.00000000000E+00 -0.00000000000E+00 -0.45593999997E+02  0.45594000000E+02  0.51100000000E-03 0.  1.
    9900012    2    1    2    0    0 -0.25607159849E+02 -0.25206367250E+01  0.31481509321E+02  0.50528859894E+02  0.30000000134E+02 0.  0.
        -12    1    1    2    0    0  0.25607159849E+02  0.25206367250E+01 -0.31481509321E+02  0.40659140106E+02  0.00000000000E+00 0.  1.
         11    1    3    3    0    0 -0.17678435366E+02 -0.90134757319E+01  0.11376431109E+02  0.22873412662E+02  0.51100000000E-03 0. -1.
        -11    1    3    3    0    0  0.20103312386E+01 -0.40267765861E+01  0.52723911793E+01  0.69321331761E+01  0.51100000000E-03 0.  1.
        -12    1    3    3    0    0 -0.99390557215E+01  0.10519615593E+02  0.14832687032E+02  0.20723314056E+02  0.00000000000E+00 0.  1.
</event>
<event>
 7    1  0.5487071E-013  0.5052886E+02  0.7816164E-02  0.1300439E+00
        -11   -1    0    0    0    0  0.00000000000E+00  0.00000000000E+00  0.45593999997E+02  0.45594000000E+02  0.51100000000E-03 0.  1.
         11   -1    0    0    0    0 -0.00000000000E+00 -0.00000000000E+00 -0.45593999997E+02  0.45594000000E+02  0.51100000000E-03 0. -1.
    9900012    2    1    2    0    0  0.13600861599E+02  0.21162996589E+02 -0.31942292907E+02  0.50528856661E+02  0.29999990307E+02 0.  0.
        -12    1    1    2    0    0 -0.13600861599E+02 -0.21162996589E+02  0.31942292907E+02  0.40659143339E+02  0.00000000000E+00 0.  1.
         11    1    3    3    0    0  0.57205112148E+01  0.11552433902E+02 -0.12443500888E+02  0.17917134041E+02  0.51100000000E-03 0. -1.
        -11    1    3    3    0    0  0.28404617485E+01  0.16905893381E+02 -0.11276157525E+02  0.20518995656E+02  0.51100000000E-03 0.  1.
        -12    1    3    3    0    0  0.50398886359E+01 -0.72953306940E+01 -0.82226344951E+01  0.12092726964E+02  0.00000000000E+00 0.  1.
</event>
<event>
 7    1  0.5487071E-013  0.5052885E+02  0.7816164E-02  0.1300439E+00
        -11   -1    0    0    0    0  0.00000000000E+00  0.00000000000E+00  0.45593999997E+02  0.45594000000E+02  0.51100000000E-03 0. -1.
         11   -1    0    0    0    0 -0.00000000000E+00 -0.00000000000E+00 -0.45593999997E+02  0.45594000000E+02  0.51100000000E-03 0.  1.
    9900012    2    1    2    0    0 -0.80583353826E+01 -0.39708428328E+02  0.33868159233E+01  0.50528848859E+02  0.29999966592E+02 0.  0.
        -12    1    1    2    0    0  0.80583353826E+01  0.39708428328E+02 -0.33868159233E+01  0.40659151141E+02  0.00000000000E+00 0.  1.
         11    1    3    3    0    0 -0.35292110189E+01 -0.70010700559E+01  0.87910749031E+01  0.11779359514E+02  0.51100000000E-03 0.  1.
        -11    1    3    3    0    0  0.47134192151E+01 -0.22258898441E+02  0.22055360725E+01  0.22859117877E+02  0.51100000000E-03 0. -1.
        -12    1    3    3    0    0 -0.92425435788E+01 -0.10448459832E+02 -0.76097950524E+01  0.15890371468E+02  0.00000000000E+00 0.  1.
</event>
<event>
 7    1  0.5487071E-013  0.5052886E+02  0.7816164E-02  0.1300439E+00
        -11   -1    0    0    0    0  0.00000000000E+00  0.00000000000E+00  0.45593999997E+02  0.45594000000E+02  0.51100000000E-03 0.  1.
         11   -1    0    0    0    0 -0.00000000000E+00 -0.00000000000E+00 -0.45593999997E+02  0.45594000000E+02  0.51100000000E-03 0. -1.
    9900012    2    1    2    0    0  0.35007972183E+02  0.72074610837E+01  0.19381941596E+02  0.50528864844E+02  0.30000015178E+02 0.  0.
        -12    1    1    2    0    0 -0.35007972183E+02 -0.72074610837E+01 -0.19381941596E+02  0.40659135156E+02  0.00000000000E+00 0.  1.
         11    1    3    3    0    0  0.15573220342E+02  0.19527961067E+01  0.56889825763E+01  0.16694404076E+02  0.51100000000E-03 0. -1.
        -11    1    3    3    0    0  0.15861795057E+02 -0.25795758056E+01 -0.17378027389E+01  0.16163870588E+02  0.51100000000E-03 0.  1.
        -12    1    3    3    0    0  0.35729567842E+01  0.78342407826E+01  0.15430761759E+02  0.17670590179E+02  0.00000000000E+00 0.  1.
</event>
<event>
 7    1  0.5487071E-013  0.5052887E+02  0.7816164E-02  0.1300439E+00
        -11   -1    0    0    0    0  0.00000000000E+00  0.00000000000E+00  0.45593999997E+02  0.45594000000E+02  0.51100000000E-03 0.  1.
         11   -1    0    0    0    0 -0.00000000000E+00 -0.00000000000E+00 -0.45593999997E+02  0.45594000000E+02  0.51100000000E-03 0. -1.
    9900012    2    1    2    0    0  0.94698111040E+01  0.36081566983E+02 -0.16174307180E+02  0.50528868049E+02  0.30000024920E+02 0.  0.
        -12    1    1    2    0    0 -0.94698111040E+01 -0.36081566983E+02  0.16174307180E+02  0.40659131951E+02  0.00000000000E+00 0.  1.
         11    1    3    3    0    0  0.13110754875E+02  0.56206952401E+01 -0.89609708112E+01  0.16845863187E+02  0.51100000000E-03 0. -1.
        -11    1    3    3    0    0  0.34489077652E+01  0.58254565599E+01  0.81789805536E+00  0.68190810520E+01  0.51100000000E-03 0.  1.
         12    1    3    3    0    0 -0.70898515366E+01  0.24635415183E+02 -0.80312344237E+01  0.26863923809E+02  0.00000000000E+00 0. -1.
</event>
<event>
 7    1  0.5487071E-013  0.5052886E+02  0.7816164E-02  0.1300439E+00
        -11   -1    0    0    0    0  0.00000000000E+00  0.00000000000E+00  0.45593999997E+02  0.45594000000E+02  0.51100000000E-03 0.  1.
         11   -1    0    0    0    0 -0.00000000000E+00 -0.00000000000E+00 -0.45593999997E+02  0.45594000000E+02  0.51100000000E-03 0. -1.
    9900012    2    1    2    0    0 -0.16681802009E+02 -0.36542603507E+02 -0.62865855638E+01  0.50528861453E+02  0.30000004872E+02 0.  0.
        -12    1    1    2    0    0  0.16681802009E+02  0.36542603507E+02  0.62865855638E+01  0.40659138547E+02  0.00000000000E+00 0.  1.
         11    1    3    3    0    0 -0.11491253051E+02 -0.50674786709E+01  0.27312823308E+01  0.12852553839E+02  0.51100000000E-03 0. -1.
        -11    1    3    3    0    0 -0.24838841252E+01  0.18689508261E+01 -0.11090648353E+01  0.33004064307E+01  0.51100000000E-03 0.  1.
         12    1    3    3    0    0 -0.27066648329E+01 -0.33344075662E+02 -0.79088030594E+01  0.34375901183E+02  0.00000000000E+00 0. -1.
</event>
<event>
 7    1  0.5487071E-013  0.5052885E+02  0.7816164E-02  0.1300439E+00
        -11   -1    0    0    0    0  0.00000000000E+00  0.00000000000E+00  0.45593999997E+02  0.45594000000E+02  0.51100000000E-03 0. -1.
         11   -1    0    0    0    0 -0.00000000000E+00 -0.00000000000E+00 -0.45593999997E+02  0.45594000000E+02  0.51100000000E-03 0.  1.
    9900012    2    1    2    0    0  0.19483016295E+01  0.40068538864E+02 -0.66244250333E+01  0.50528847365E+02  0.29999962051E+02 0.  0.
        -12    1    1    2    0    0 -0.19483016295E+01 -0.40068538864E+02  0.66244250333E+01  0.40659152635E+02  0.00000000000E+00 0.  1.
         11    1    3    3    0    0 -0.18451480416E+01  0.14978166424E+01  0.17037154571E+01  0.29241533150E+01  0.51100000000E-03 0. -1.
        -11    1    3    3    0    0 -0.10007838413E+02  0.23337562649E+02  0.88089370318E-01  0.25393038812E+02  0.51100000000E-03 0.  1.
         12    1    3    3    0    0  0.13801288084E+02  0.15233159573E+02 -0.84162298607E+01  0.22211655238E+02  0.00000000000E+00 0. -1.
</event>
<event>
 7    1  0.5487071E-013  0.5052886E+02  0.7816164E-02  0.1300439E+00
        -11   -1    0    0    0    0  0.00000000000E+00  0.00000000000E+00  0.45593999997E+02  0.45594000000E+02  0.51100000000E-03 0.  1.
         11   -1    0    0    0    0 -0.00000000000E+00 -0.00000000000E+00 -0.45593999997E+02  0.45594000000E+02  0.51100000000E-03 0. -1.
    9900012    2    1    2    0    0 -0.91524430756E+01  0.15943970705E+02 -0.36265519106E+02  0.50528864592E+02  0.30000014414E+02 0.  0.
        -12    1    1    2    0    0  0.91524430756E+01 -0.15943970705E+02  0.36265519106E+02  0.40659135408E+02  0.00000000000E+00 0.  1.
         11    1    3    3    0    0 -0.27775127313E+01  0.80360866866E+01 -0.14211206352E+02  0.16560545053E+02  0.51100000000E-03 0. -1.
        -11    1    3    3    0    0 -0.12962142150E+02  0.60640690550E+01 -0.22973885627E+02  0.27066390297E+02  0.51100000000E-03 0.  1.
        -12    1    3    3    0    0  0.65872118061E+01  0.18438149630E+01  0.91957287310E+00  0.69019292423E+01  0.00000000000E+00 0.  1.
</event>
<event>
 7    1  0.5487071E-013  0.5052887E+02  0.7816164E-02  0.1300439E+00
        -11   -1    0    0    0    0  0.00000000000E+00  0.00000000000E+00  0.45593999997E+02  0.45594000000E+02  0.51100000000E-03 0.  1.
         11   -1    0    0    0    0 -0.00000000000E+00 -0.00000000000E+00 -0.45593999997E+02  0.45594000000E+02  0.51100000000E-03 0. -1.
    9900012    2    1    2    0    0 -0.18549529375E+02  0.34876621531E+00 -0.36179526766E+02  0.50528870214E+02  0.30000031503E+02 0.  0.
        -12    1    1    2    0    0  0.18549529375E+02 -0.34876621531E+00  0.36179526766E+02  0.40659129786E+02  0.00000000000E+00 0.  1.
         11    1    3    3    0    0 -0.18848474252E+01 -0.64415048437E+01 -0.24983972067E+02  0.25869760242E+02  0.51100000000E-03 0. -1.
        -11    1    3    3    0    0 -0.78761550836E+01  0.34281079684E+01 -0.12492196146E+02  0.15160498275E+02  0.51100000000E-03 0.  1.
        -12    1    3    3    0    0 -0.87885268660E+01  0.33621630906E+01  0.12966414471E+01  0.94986116967E+01  0.00000000000E+00 0.  1.
</event>
<event>
 7    1  0.5487071E-013  0.5052886E+02  0.7816164E-02  0.1300439E+00
        -11   -1    0    0    0    0  0.00000000000E+00  0.00000000000E+00  0.45593999997E+02  0.45594000000E+02  0.51100000000E-03 0.  1.
         11   -1    0    0    0    0 -0.00000000000E+00 -0.00000000000E+00 -0.45593999997E+02  0.45594000000E+02  0.51100000000E-03 0. -1.
    9900012    2    1    2    0    0 -0.10310455344E+02 -0.17832091068E+02 -0.35055333734E+02  0.50528863457E+02  0.30000010964E+02 0.  0.
        -12    1    1    2    0    0  0.10310455344E+02  0.17832091068E+02  0.35055333734E+02  0.40659136543E+02  0.00000000000E+00 0.  1.
         11    1    3    3    0    0 -0.20506902287E+01  0.15715210224E+01  0.18991212449E+01  0.32065044053E+01  0.51100000000E-03 0. -1.
        -11    1    3    3    0    0 -0.21237281183E+01  0.42724182174E+01 -0.36775750782E+01  0.60239801843E+01  0.51100000000E-03 0.  1.
         12    1    3    3    0    0 -0.61360369966E+01 -0.23676030308E+02 -0.33276879900E+02  0.41298378867E+02  0.00000000000E+00 0. -1.
</event>
<event>
 7    1  0.5487071E-013  0.5052886E+02  0.7816164E-02  0.1300439E+00
        -11   -1    0    0    0    0  0.00000000000E+00  0.00000000000E+00  0.45593999997E+02  0.45594000000E+02  0.51100000000E-03 0.  1.
         11   -1    0    0    0    0 -0.00000000000E+00 -0.00000000000E+00 -0.45593999997E+02  0.45594000000E+02  0.51100000000E-03 0. -1.
    9900012    2    1    2    0    0 -0.11522131978E+02  0.37164193135E+02 -0.11799519294E+02  0.50528862868E+02  0.30000009175E+02 0.  0.
        -12    1    1    2    0    0  0.11522131978E+02 -0.37164193135E+02  0.11799519294E+02  0.40659137132E+02  0.00000000000E+00 0.  1.
         11    1    3    3    0    0  0.49884054467E+01  0.14191702108E+02  0.97183896928E+00  0.15074251851E+02  0.51100000000E-03 0. -1.
        -11    1    3    3    0    0 -0.53278083343E+00  0.47759360777E+01  0.37874445565E+01  0.61186728434E+01  0.51100000000E-03 0.  1.
         12    1    3    3    0    0 -0.15977756591E+02  0.18196554949E+02 -0.16558802820E+02  0.29335938174E+02  0.00000000000E+00 0. -1.
</event>
<event>
 7    1  0.5487071E-013  0.5052885E+02  0.7816164E-02  0.1300439E+00
        -11   -1    0    0    0    0  0.00000000000E+00  0.00000000000E+00  0.45593999997E+02  0.45594000000E+02  0.51100000000E-03 0.  1.
         11   -1    0    0    0    0 -0.00000000000E+00 -0.00000000000E+00 -0.45593999997E+02  0.45594000000E+02  0.51100000000E-03 0. -1.
    9900012    2    1    2    0    0  0.69888196099E+01  0.35445335481E+02 -0.18653436340E+02  0.50528854728E+02  0.29999984433E+02 0.  0.
        -12    1    1    2    0    0 -0.69888196099E+01 -0.35445335481E+02  0.18653436340E+02  0.40659145272E+02  0.00000000000E+00 0.  1.
         11    1    3    3    0    0  0.20095675278E+01  0.27179526589E+01  0.17160147772E+01  0.37908225072E+01  0.51100000000E-03 0. -1.
        -11    1    3    3    0    0  0.35188743896E+00 -0.18647797159E+01  0.38261447175E+01  0.42709029278E+01  0.51100000000E-03 0.  1.
         12    1    3    3    0    0  0.46273646432E+01  0.34592162538E+02 -0.24195595835E+02  0.42467129293E+02  0.00000000000E+00 0. -1.
</event>
<event>
 7    1  0.5487071E-013  0.5052886E+02  0.7816164E-02  0.1300439E+00
        -11   -1    0    0    0    0  0.00000000000E+00  0.00000000000E+00  0.45593999997E+02  0.45594000000E+02  0.51100000000E-03 0.  1.
         11   -1    0    0    0    0 -0.00000000000E+00 -0.00000000000E+00 -0.45593999997E+02  0.45594000000E+02  0.51100000000E-03 0. -1.
    9900012    2    1    2    0    0 -0.84065483637E+01 -0.39648584988E+02 -0.32381021348E+01  0.50528860162E+02  0.30000000947E+02 0.  0.
        -12    1    1    2    0    0  0.84065483637E+01  0.39648584988E+02  0.32381021348E+01  0.40659139838E+02  0.00000000000E+00 0.  1.
         11    1    3    3    0    0 -0.12938838343E+02 -0.17537822378E+02  0.21554653201E+01  0.21900565801E+02  0.51100000000E-03 0.  1.
        -11    1    3    3    0    0 -0.53247568904E+01 -0.15102129691E+02 -0.27438937479E+01  0.16246732296E+02  0.51100000000E-03 0. -1.
        -12    1    3    3    0    0  0.98570468697E+01 -0.70086329199E+01 -0.26496737070E+01  0.12381562064E+02  0.00000000000E+00 0.  1.
</event>
<event>
 7    1  0.5487071E-013  0.5052886E+02  0.7816164E-02  0.1300439E+00
        -11   -1    0    0    0    0  0.00000000000E+00  0.00000000000E+00  0.45593999997E+02  0.45594000000E+02  0.51100000000E-03 0. -1.
         11   -1    0    0    0    0 -0.00000000000E+00 -0.00000000000E+00 -0.45593999997E+02  0.45594000000E+02  0.51100000000E-03 0.  1.
    9900012    2    1    2    0    0  0.10195094185E+02 -0.39080416628E+02  0.46847012210E+01  0.50528864068E+02  0.30000012820E+02 0.  0.
        -12    1    1    2    0    0 -0.10195094185E+02  0.39080416628E+02 -0.46847012210E+01  0.40659135932E+02  0.00000000000E+00 0.  1.
         11    1    3    3    0    0  0.32207324358E+01 -0.20378952112E+02 -0.19943281390E+01  0.20728052287E+02  0.51100000000E-03 0. -1.
        -11    1    3    3    0    0  0.53108758823E+01 -0.23420842711E+02  0.50726934016E+01  0.24545335495E+02  0.51100000000E-03 0.  1.
        -12    1    3    3    0    0  0.16634858665E+01  0.47193781957E+01  0.16063359584E+01  0.52554762861E+01  0.00000000000E+00 0.  1.
</event>
<event>
 7    1  0.5487071E-013  0.5052888E+02  0.7816164E-02  0.1300439E+00
        -11   -1    0    0    0    0  0.00000000000E+00  0.00000000000E+00  0.45593999997E+02  0.45594000000E+02  0.51100000000E-03 0.  1.
         11   -1    0    0    0    0 -0.00000000000E+00 -0.00000000000E+00 -0.45593999997E+02  0.45594000000E+02  0.51100000000E-03 0. -1.
    9900012    2    1    2    0    0 -0.20391741955E+02  0.24831335279E+02 -0.24914776292E+02  0.50528875202E+02  0.30000046663E+02 0.  0.
        -12    1    1    2    0    0  0.20391741955E+02 -0.24831335279E+02  0.24914776292E+02  0.40659124798E+02  0.00000000000E+00 0.  1.
         11    1    3    3    0    0 -0.19562007268E+02  0.20172429683E+02 -0.14096509107E+02  0.31437407923E+02  0.51100000000E-03 0. -1.
        -11    1    3    3    0    0 -0.24111152259E+01  0.76511099138E+00 -0.13741327651E+02  0.13972220916E+02  0.51100000000E-03 0.  1.
        -12    1    3    3    0    0  0.15813805390E+01  0.38937946045E+01  0.29230604657E+01  0.51192463623E+01  0.00000000000E+00 0.  1.
</event>
<event>
 7    1  0.5487071E-013  0.5052886E+02  0.7816164E-02  0.1300439E+00
        -11   -1    0    0    0    0  0.00000000000E+00  0.00000000000E+00  0.45593999997E+02  0.45594000000E+02  0.51100000000E-03 0.  1.
         11   -1    0    0    0    0 -0.00000000000E+00 -0.00000000000E+00 -0.45593999997E+02  0.45594000000E+02  0.51100000000E-03 0. -1.
    9900012    2    1    2    0    0  0.29992291527E+02  0.55186989042E+01 -0.26891860400E+02  0.50528859030E+02  0.29999997507E+02 0.  0.
        -12    1    1    2    0    0 -0.29992291527E+02 -0.55186989042E+01  0.26891860400E+02  0.40659140970E+02  0.00000000000E+00 0.  1.
         11    1    3    3    0    0  0.12634183572E+02  0.12060900602E+02 -0.15212028523E+02  0.23162334293E+02  0.51100000000E-03 0. -1.
        -11    1    3    3    0    0 -0.29892102027E+01 -0.23163116001E+01 -0.64249575049E+00  0.38358151826E+01  0.51100000000E-03 0.  1.
         12    1    3    3    0    0  0.20347318158E+02 -0.42258900977E+01 -0.11037336126E+02  0.23530709554E+02  0.00000000000E+00 0. -1.
</event>
<event>
 7    1  0.5487071E-013  0.5052885E+02  0.7816164E-02  0.1300439E+00
        -11   -1    0    0    0    0  0.00000000000E+00  0.00000000000E+00  0.45593999997E+02  0.45594000000E+02  0.51100000000E-03 0.  1.
         11   -1    0    0    0    0 -0.00000000000E+00 -0.00000000000E+00 -0.45593999997E+02  0.45594000000E+02  0.51100000000E-03 0. -1.
    9900012    2    1    2    0    0 -0.24094293636E+02  0.23095682294E+02 -0.23221125787E+02  0.50528853314E+02  0.29999980133E+02 0.  0.
        -12    1    1    2    0    0  0.24094293636E+02 -0.23095682294E+02  0.23221125787E+02  0.40659146686E+02  0.00000000000E+00 0.  1.
         11    1    3    3    0    0 -0.24782752876E-01  0.55416122693E+01  0.24909439713E+00  0.55472631998E+01  0.51100000000E-03 0. -1.
        -11    1    3    3    0    0 -0.67112656331E+01  0.44181224242E+01  0.47554849259E+01  0.93367836697E+01  0.51100000000E-03 0.  1.
         12    1    3    3    0    0 -0.17358245250E+02  0.13135947600E+02 -0.28225705110E+02  0.35644806445E+02  0.00000000000E+00 0. -1.
</event>
<event>
 7    1  0.5487071E-013  0.5052885E+02  0.7816164E-02  0.1300439E+00
        -11   -1    0    0    0    0  0.00000000000E+00  0.00000000000E+00  0.45593999997E+02  0.45594000000E+02  0.51100000000E-03 0. -1.
         11   -1    0    0    0    0 -0.00000000000E+00 -0.00000000000E+00 -0.45593999997E+02  0.45594000000E+02  0.51100000000E-03 0.  1.
    9900012    2    1    2    0    0  0.25936964448E+02 -0.52659025707E+00  0.31307558937E+02  0.50528847664E+02  0.29999962960E+02 0.  0.
        -12    1    1    2    0    0 -0.25936964448E+02  0.52659025707E+00 -0.31307558937E+02  0.40659152336E+02  0.00000000000E+00 0.  1.
         11    1    3    3    0    0  0.87925323490E+01  0.15325631497E+01  0.91376924792E+01  0.12773206294E+02  0.51100000000E-03 0. -1.
        -11    1    3    3    0    0  0.16131533398E+02 -0.88800902726E+01  0.24345201157E+02  0.30524927398E+02  0.51100000000E-03 0.  1.
        -12    1    3    3    0    0  0.10128987006E+01  0.68209368658E+01 -0.21753346988E+01  0.72307139728E+01  0.00000000000E+00 0.  1.
</event>
<event>
 7    1  0.5487071E-013  0.5052886E+02  0.7816164E-02  0.1300439E+00
        -11   -1    0    0    0    0  0.00000000000E+00  0.00000000000E+00  0.45593999997E+02  0.45594000000E+02  0.51100000000E-03 0.  1.
         11   -1    0    0    0    0 -0.00000000000E+00 -0.00000000000E+00 -0.45593999997E+02  0.45594000000E+02  0.51100000000E-03 0. -1.
    9900012    2    1    2    0    0 -0.34129293147E+01 -0.27810127407E+02 -0.29463782615E+02  0.50528858852E+02  0.29999996965E+02 0.  0.
        -12    1    1    2    0    0  0.34129293147E+01  0.27810127407E+02  0.29463782615E+02  0.40659141148E+02  0.00000000000E+00 0.  1.
         11    1    3    3    0    0 -0.22761100156E+01 -0.89414824213E+01 -0.19766789087E+02  0.21814140730E+02  0.51100000000E-03 0. -1.
        -11    1    3    3    0    0  0.85923241018E+01 -0.99498444088E+01 -0.80464145716E+01  0.15413378116E+02  0.51100000000E-03 0.  1.
        -12    1    3    3    0    0 -0.97291434009E+01 -0.89188005772E+01 -0.16505789564E+01  0.13301340006E+02  0.00000000000E+00 0.  1.
</event>
<event>
 7    1  0.5487071E-013  0.5052886E+02  0.7816164E-02  0.1300439E+00
        -11   -1    0    0    0    0  0.00000000000E+00  0.00000000000E+00  0.45593999997E+02  0.45594000000E+02  0.51100000000E-03 0. -1.
         11   -1    0    0    0    0 -0.00000000000E+00 -0.00000000000E+00 -0.45593999997E+02  0.45594000000E+02  0.51100000000E-03 0.  1.
    9900012    2    1    2    0    0 -0.51824992577E+01  0.28191760214E+02 -0.28836291195E+02  0.50528864097E+02  0.30000012908E+02 0.  0.
        -12    1    1    2    0    0  0.51824992577E+01 -0.28191760214E+02  0.28836291195E+02  0.40659135903E+02  0.00000000000E+00 0.  1.
         11    1    3    3    0    0 -0.26840247063E+01  0.22007417601E+02 -0.15970475080E+02  0.27323734968E+02  0.51100000000E-03 0. -1.
        -11    1    3    3    0    0  0.27236793978E+01  0.34157651212E+01  0.36314642577E+01  0.56809694368E+01  0.51100000000E-03 0.  1.
        -12    1    3    3    0    0 -0.52221539493E+01  0.27685774921E+01 -0.16497280373E+02  0.17524159692E+02  0.00000000000E+00 0.  1.
</event>
<event>
 7    1  0.5487071E-013  0.5052886E+02  0.7816164E-02  0.1300439E+00
        -11   -1    0    0    0    0  0.00000000000E+00  0.00000000000E+00  0.45593999997E+02  0.45594000000E+02  0.51100000000E-03 0.  1.
         11   -1    0    0    0    0 -0.00000000000E+00 -0.00000000000E+00 -0.45593999997E+02  0.45594000000E+02  0.51100000000E-03 0. -1.
    9900012    2    1    2    0    0  0.40607867409E+02  0.78867372542E+00 -0.18828534084E+01  0.50528855411E+02  0.29999986507E+02 0.  0.
        -12    1    1    2    0    0 -0.40607867409E+02 -0.78867372542E+00  0.18828534084E+01  0.40659144589E+02  0.00000000000E+00 0.  1.
         11    1    3    3    0    0  0.19201803575E+02  0.33397392242E+01 -0.78198282735E+01  0.21000305548E+02  0.51100000000E-03 0. -1.
        -11    1    3    3    0    0  0.11449440525E+02  0.53359211217E+01 -0.41634812852E+01  0.13300237562E+02  0.51100000000E-03 0.  1.
        -12    1    3    3    0    0  0.99566233091E+01 -0.78869866205E+01  0.10100456150E+02  0.16228312300E+02  0.00000000000E+00 0.  1.
</event>
<event>
 7    1  0.5487071E-013  0.5052886E+02  0.7816164E-02  0.1300439E+00
        -11   -1    0    0    0    0  0.00000000000E+00  0.00000000000E+00  0.45593999997E+02  0.45594000000E+02  0.51100000000E-03 0.  1.
         11   -1    0    0    0    0 -0.00000000000E+00 -0.00000000000E+00 -0.45593999997E+02  0.45594000000E+02  0.51100000000E-03 0. -1.
    9900012    2    1    2    0    0  0.36981734465E+02  0.87604425962E+01 -0.14448919697E+02  0.50528864262E+02  0.30000013412E+02 0.  0.
        -12    1    1    2    0    0 -0.36981734465E+02 -0.87604425962E+01  0.14448919697E+02  0.40659135738E+02  0.00000000000E+00 0.  1.
         11    1    3    3    0    0  0.51457676539E-01  0.13465932648E+01 -0.82462939685E+01  0.83556762617E+01  0.51100000000E-03 0. -1.
        -11    1    3    3    0    0 -0.90043402089E+00  0.33345981493E+01  0.63997525462E+00  0.35128186447E+01  0.51100000000E-03 0.  1.
        -12    1    3    3    0    0  0.37830710809E+02  0.40792511821E+01 -0.68426009833E+01  0.38660369356E+02  0.00000000000E+00 0.  1.
</event>
<event>
 7    1  0.5487071E-013  0.5052887E+02  0.7816164E-02  0.1300439E+00
        -11   -1    0    0    0    0  0.00000000000E+00  0.00000000000E+00  0.45593999997E+02  0.45594000000E+02  0.51100000000E-03 0.  1.
         11   -1    0    0    0    0 -0.00000000000E+00 -0.00000000000E+00 -0.45593999997E+02  0.45594000000E+02  0.51100000000E-03 0. -1.
    9900012    2    1    2    0    0 -0.12477886986E+02 -0.34480254646E+02 -0.17566425627E+02  0.50528869003E+02  0.30000027823E+02 0.  0.
        -12    1    1    2    0    0  0.12477886986E+02  0.34480254646E+02  0.17566425627E+02  0.40659130997E+02  0.00000000000E+00 0.  1.
         11    1    3    3    0    0  0.16025392683E+01 -0.14553699770E+02  0.39765142593E+01  0.15172045841E+02  0.51100000000E-03 0. -1.
        -11    1    3    3    0    0 -0.26047263107E+01 -0.14971953535E+02 -0.14524866621E+02  0.21021792084E+02  0.51100000000E-03 0.  1.
        -12    1    3    3    0    0 -0.11475699944E+02 -0.49546013411E+01 -0.70180732648E+01  0.14335031078E+02  0.00000000000E+00 0.  1.
</event>
<event>
 7    1  0.5487071E-013  0.5052885E+02  0.7816164E-02  0.1300439E+00
        -11   -1    0    0    0    0  0.00000000000E+00  0.00000000000E+00  0.45593999997E+02  0.45594000000E+02  0.51100000000E-03 0. -1.
         11   -1    0    0    0    0 -0.00000000000E+00 -0.00000000000E+00 -0.45593999997E+02  0.45594000000E+02  0.51100000000E-03 0.  1.
    9900012    2    1    2    0    0 -0.33564846104E+02 -0.16180878646E+02 -0.16271041668E+02  0.50528849434E+02  0.29999968340E+02 0.  0.
        -12    1    1    2    0    0  0.33564846104E+02  0.16180878646E+02  0.16271041668E+02  0.40659150566E+02  0.00000000000E+00 0.  1.
         11    1    3    3    0    0 -0.32269011400E+01 -0.66981294510E+01  0.58717584653E+00  0.74580563718E+01  0.51100000000E-03 0. -1.
        -11    1    3    3    0    0 -0.11947284271E+02 -0.16099403359E+02 -0.95226261424E+01  0.22194792157E+02  0.51100000000E-03 0.  1.
        -12    1    3    3    0    0 -0.18390660693E+02  0.66166541633E+01 -0.73355913719E+01  0.20876000906E+02  0.00000000000E+00 0.  1.
</event>
<event>
 7    1  0.5487071E-013  0.5052885E+02  0.7816164E-02  0.1300439E+00
        -11   -1    0    0    0    0  0.00000000000E+00  0.00000000000E+00  0.45593999997E+02  0.45594000000E+02  0.51100000000E-03 0.  1.
         11   -1    0    0    0    0 -0.00000000000E+00 -0.00000000000E+00 -0.45593999997E+02  0.45594000000E+02  0.51100000000E-03 0. -1.
    9900012    2    1    2    0    0  0.40585667009E+02  0.43550124960E+00 -0.24041734269E+01  0.50528854931E+02  0.29999985047E+02 0.  0.
        -12    1    1    2    0    0 -0.40585667009E+02 -0.43550124960E+00  0.24041734269E+01  0.40659145069E+02  0.00000000000E+00 0.  1.
         11    1    3    3    0    0 -0.20038328305E+00  0.13132261660E+01 -0.50024769562E+00  0.14194944316E+01  0.51100000000E-03 0. -1.
        -11    1    3    3    0    0  0.20306505042E+02  0.99043770774E+01  0.79547963680E+01  0.23952653670E+02  0.51100000000E-03 0.  1.
         12    1    3    3    0    0  0.20479545250E+02 -0.10782101994E+02 -0.98587220993E+01  0.25156706829E+02  0.00000000000E+00 0. -1.
</event>
<event>
 7    1  0.5487071E-013  0.5052886E+02  0.7816164E-02  0.1300439E+00
        -11   -1    0    0    0    0  0.00000000000E+00  0.00000000000E+00  0.45593999997E+02  0.45594000000E+02  0.51100000000E-03 0. -1.
         11   -1    0    0    0    0 -0.00000000000E+00 -0.00000000000E+00 -0.45593999997E+02  0.45594000000E+02  0.51100000000E-03 0.  1.
    9900012    2    1    2    0    0  0.36348618633E+02 -0.17721394251E+02  0.42303833537E+01  0.50528855469E+02  0.29999986682E+02 0.  0.
        -12    1    1    2    0    0 -0.36348618633E+02  0.17721394251E+02 -0.42303833537E+01  0.40659144531E+02  0.00000000000E+00 0.  1.
         11    1    3    3    0    0  0.25435845559E+02 -0.14748684282E+02  0.31755823770E+01  0.29573472083E+02  0.51100000000E-03 0. -1.
        -11    1    3    3    0    0  0.11010760330E+02 -0.93198226597E+01 -0.44634022481E+00  0.14432434213E+02  0.51100000000E-03 0.  1.
        -12    1    3    3    0    0 -0.97987255579E-01  0.63471126907E+01  0.15011412015E+01  0.65229491733E+01  0.00000000000E+00 0.  1.
</event>
<event>
 7    1  0.5487071E-013  0.5052887E+02  0.7816164E-02  0.1300439E+00
        -11   -1    0    0    0    0  0.00000000000E+00  0.00000000000E+00  0.45593999997E+02  0.45594000000E+02  0.51100000000E-03 0.  1.
         11   -1    0    0    0    0 -0.00000000000E+00 -0.00000000000E+00 -0.45593999997E+02  0.45594000000E+02  0.51100000000E-03 0. -1.
    9900012    2    1    2    0    0  0.14531769046E+02  0.37941017118E+02 -0.15722264781E+01  0.50528868336E+02  0.30000025795E+02 0.  0.
        -12    1    1    2    0    0 -0.14531769046E+02 -0.37941017118E+02  0.15722264781E+01  0.40659131664E+02  0.00000000000E+00 0.  1.
         11    1    3    3    0    0  0.27951124835E+01  0.16726181513E+02 -0.21628958547E+00  0.16959498320E+02  0.51100000000E-03 0. -1.
        -11    1    3    3    0    0  0.99589012852E+01  0.26141801355E+02  0.59260325939E+00  0.27980791122E+02  0.51100000000E-03 0.  1.
        -12    1    3    3    0    0  0.17777552776E+01 -0.49269657511E+01 -0.19485401520E+01  0.55885788948E+01  0.00000000000E+00 0.  1.
</event>
<event>
 7    1  0.5487071E-013  0.5052884E+02  0.7816164E-02  0.1300439E+00
        -11   -1    0    0    0    0  0.00000000000E+00  0.00000000000E+00  0.45593999997E+02  0.45594000000E+02  0.51100000000E-03 0.  1.
         11   -1    0    0    0    0 -0.00000000000E+00 -0.00000000000E+00 -0.45593999997E+02  0.45594000000E+02  0.51100000000E-03 0. -1.
    9900012    2    1    2    0    0  0.13393985539E+01 -0.30721678323E+02 -0.26599839747E+02  0.50528843811E+02  0.29999951247E+02 0.  0.
        -12    1    1    2    0    0 -0.13393985539E+01  0.30721678323E+02  0.26599839747E+02  0.40659156189E+02  0.00000000000E+00 0.  1.
         11    1    3    3    0    0  0.12111082265E+01 -0.69821844952E+01 -0.33115512314E+01  0.78220237331E+01  0.51100000000E-03 0. -1.
        -11    1    3    3    0    0  0.26286924473E+01 -0.16571758172E+02 -0.28796092939E+02  0.33327888648E+02  0.51100000000E-03 0.  1.
        -12    1    3    3    0    0 -0.25004021199E+01 -0.71677356561E+01  0.55078044241E+01  0.93789314301E+01  0.00000000000E+00 0.  1.
</event>
<event>
 7    1  0.5487071E-013  0.5052878E+02  0.7816164E-02  0.1300439E+00
        -11   -1    0    0    0    0  0.00000000000E+00  0.00000000000E+00  0.45593999997E+02  0.45594000000E+02  0.51100000000E-03 0.  1.
         11   -1    0    0    0    0 -0.00000000000E+00 -0.00000000000E+00 -0.45593999997E+02  0.45594000000E+02  0.51100000000E-03 0. -1.
    9900012    2    1    2    0    0  0.77435579340E+01 -0.11719396489E+02 -0.38155805509E+02  0.50528776722E+02  0.29999747323E+02 0.  0.
        -12    1    1    2    0    0 -0.77435579340E+01  0.11719396489E+02  0.38155805509E+02  0.40659223278E+02  0.00000000000E+00 0.  1.
         11    1    3    3    0    0 -0.87820945406E+01 -0.11472863166E+01 -0.15034793089E+02  0.17449540220E+02  0.51100000000E-03 0. -1.
        -11    1    3    3    0    0 -0.78474165109E+00 -0.38360227155E+01 -0.87765975685E+01  0.96103878628E+01  0.51100000000E-03 0.  1.
        -12    1    3    3    0    0  0.17310394126E+02 -0.67360874572E+01 -0.14344414851E+02  0.23468848639E+02  0.00000000000E+00 0.  1.
</event>
<event>
 7    1  0.5487071E-013  0.5052887E+02  0.7816164E-02  0.1300439E+00
        -11   -1    0    0    0    0  0.00000000000E+00  0.00000000000E+00  0.45593999997E+02  0.45594000000E+02  0.51100000000E-03 0.  1.
         11   -1    0    0    0    0 -0.00000000000E+00 -0.00000000000E+00 -0.45593999997E+02  0.45594000000E+02  0.51100000000E-03 0. -1.
    9900012    2    1    2    0    0  0.25677998932E+02 -0.29521065174E+02  0.11059468675E+02  0.50528871068E+02  0.30000034099E+02 0.  0.
        -12    1    1    2    0    0 -0.25677998932E+02  0.29521065174E+02 -0.11059468675E+02  0.40659128932E+02  0.00000000000E+00 0.  1.
         11    1    3    3    0    0  0.18996286565E+02 -0.11328007113E+02  0.13075147701E+02  0.25693231328E+02  0.51100000000E-03 0. -1.
        -11    1    3    3    0    0 -0.10840022492E+01  0.18567931165E+01 -0.25402605245E+01  0.33280122216E+01  0.51100000000E-03 0.  1.
        -12    1    3    3    0    0  0.77657146166E+01 -0.20049851177E+02  0.52458149789E+00  0.21507627519E+02  0.00000000000E+00 0.  1.
</event>
<event>
 7    1  0.5487071E-013  0.5052886E+02  0.7816164E-02  0.1300439E+00
        -11   -1    0    0    0    0  0.00000000000E+00  0.00000000000E+00  0.45593999997E+02  0.45594000000E+02  0.51100000000E-03 0.  1.
         11   -1    0    0    0    0 -0.00000000000E+00 -0.00000000000E+00 -0.45593999997E+02  0.45594000000E+02  0.51100000000E-03 0. -1.
    9900012    2    1    2    0    0 -0.16230357170E+02  0.35691754465E+02 -0.10762877282E+02  0.50528863781E+02  0.30000011948E+02 0.  0.
        -12    1    1    2    0    0  0.16230357170E+02 -0.35691754465E+02  0.10762877282E+02  0.40659136219E+02  0.00000000000E+00 0.  1.
         11    1    3    3    0    0  0.38467254825E+00  0.12854388807E+01  0.33249378070E+01  0.35854620019E+01  0.51100000000E-03 0. -1.
        -11    1    3    3    0    0  0.25729455255E+01  0.25677783344E+00  0.32109579262E+01  0.41226489782E+01  0.51100000000E-03 0.  1.
         12    1    3    3    0    0 -0.19187975244E+02  0.34149537751E+02 -0.17298773015E+02  0.42820752801E+02  0.00000000000E+00 0. -1.
</event>
<event>
 7    1  0.5487071E-013  0.5052878E+02  0.7816164E-02  0.1300439E+00
        -11   -1    0    0    0    0  0.00000000000E+00  0.00000000000E+00  0.45593999997E+02  0.45594000000E+02  0.51100000000E-03 0. -1.
         11   -1    0    0    0    0 -0.00000000000E+00 -0.00000000000E+00 -0.45593999997E+02  0.45594000000E+02  0.51100000000E-03 0.  1.
    9900012    2    1    2    0    0 -0.37869255925E+02  0.14747604346E+02  0.12648040241E+01  0.50528780781E+02  0.29999759661E+02 0.  0.
        -12    1    1    2    0    0  0.37869255925E+02 -0.14747604346E+02 -0.12648040241E+01  0.40659219219E+02  0.00000000000E+00 0.  1.
         11    1    3    3    0    0 -0.27536210479E+02  0.12487343564E+02 -0.35529534208E+01  0.30443391977E+02  0.51100000000E-03 0. -1.
        -11    1    3    3    0    0 -0.72619247793E+00  0.71700009844E+01 -0.18008132675E+01  0.74282702103E+01  0.51100000000E-03 0.  1.
        -12    1    3    3    0    0 -0.96068529684E+01 -0.49097402024E+01  0.66185707124E+01  0.12657118593E+02  0.00000000000E+00 0.  1.
</event>
<event>
 7    1  0.5487071E-013  0.5052886E+02  0.7816164E-02  0.1300439E+00
        -11   -1    0    0    0    0  0.00000000000E+00  0.00000000000E+00  0.45593999997E+02  0.45594000000E+02  0.51100000000E-03 0.  1.
         11   -1    0    0    0    0 -0.00000000000E+00 -0.00000000000E+00 -0.45593999997E+02  0.45594000000E+02  0.51100000000E-03 0. -1.
    9900012    2    1    2    0    0 -0.11190327949E+01 -0.33427098635E+02 -0.23120174237E+02  0.50528860630E+02  0.30000002372E+02 0.  0.
        -12    1    1    2    0    0  0.11190327949E+01  0.33427098635E+02  0.23120174237E+02  0.40659139370E+02  0.00000000000E+00 0.  1.
         11    1    3    3    0    0  0.17692263677E+01 -0.88781190391E+01 -0.19589811642E+02  0.21580358664E+02  0.51100000000E-03 0. -1.
        -11    1    3    3    0    0 -0.25127528338E+01  0.94736921065E+00 -0.21004984315E+01  0.34093297211E+01  0.51100000000E-03 0.  1.
        -12    1    3    3    0    0 -0.37550632881E+00 -0.25496348807E+02 -0.14298641630E+01  0.25539172246E+02  0.00000000000E+00 0.  1.
</event>
<event>
 7    1  0.5487071E-013  0.5052884E+02  0.7816164E-02  0.1300439E+00
        -11   -1    0    0    0    0  0.00000000000E+00  0.00000000000E+00  0.45593999997E+02  0.45594000000E+02  0.51100000000E-03 0.  1.
         11   -1    0    0    0    0 -0.00000000000E+00 -0.00000000000E+00 -0.45593999997E+02  0.45594000000E+02  0.51100000000E-03 0. -1.
    9900012    2    1    2    0    0  0.98253586101E+01 -0.38084758744E+02  0.10304404099E+02  0.50528840341E+02  0.29999940699E+02 0.  0.
        -12    1    1    2    0    0 -0.98253586101E+01  0.38084758744E+02 -0.10304404099E+02  0.40659159659E+02  0.00000000000E+00 0.  1.
         11    1    3    3    0    0  0.92957389582E+01 -0.22399912695E+02 -0.32981169153E+01  0.24475384103E+02  0.51100000000E-03 0. -1.
        -11    1    3    3    0    0  0.49189049766E+01 -0.19647551372E+01 -0.11653491334E+01  0.54234608676E+01  0.51100000000E-03 0.  1.
        -12    1    3    3    0    0 -0.43892853247E+01 -0.13720090911E+02  0.14767870148E+02  0.20629995370E+02  0.00000000000E+00 0.  1.
</event>
<event>
 7    1  0.5487071E-013  0.5052885E+02  0.7816164E-02  0.1300439E+00
        -11   -1    0    0    0    0  0.00000000000E+00  0.00000000000E+00  0.45593999997E+02  0.45594000000E+02  0.51100000000E-03 0.  1.
         11   -1    0    0    0    0 -0.00000000000E+00 -0.00000000000E+00 -0.45593999997E+02  0.45594000000E+02  0.51100000000E-03 0. -1.
    9900012    2    1    2    0    0  0.15529369454E+02  0.33378941333E+02 -0.17258378777E+02  0.50528847547E+02  0.29999962605E+02 0.  0.
        -12    1    1    2    0    0 -0.15529369454E+02 -0.33378941333E+02  0.17258378777E+02  0.40659152453E+02  0.00000000000E+00 0.  1.
         11    1    3    3    0    0 -0.18878588203E+01  0.10256458433E+02 -0.42095854210E+01  0.11246313182E+02  0.51100000000E-03 0.  1.
        -11    1    3    3    0    0 -0.10996519287E+01 -0.32659364845E+01 -0.49714008570E+01  0.60490001014E+01  0.51100000000E-03 0. -1.
         12    1    3    3    0    0  0.18516880203E+02  0.26388419385E+02 -0.80773924994E+01  0.33233534264E+02  0.00000000000E+00 0. -1.
</event>
<event>
 7    1  0.5487071E-013  0.5052885E+02  0.7816164E-02  0.1300439E+00
        -11   -1    0    0    0    0  0.00000000000E+00  0.00000000000E+00  0.45593999997E+02  0.45594000000E+02  0.51100000000E-03 0. -1.
         11   -1    0    0    0    0 -0.00000000000E+00 -0.00000000000E+00 -0.45593999997E+02  0.45594000000E+02  0.51100000000E-03 0.  1.
    9900012    2    1    2    0    0  0.20922120864E+02  0.30182949838E+02  0.17447653857E+02  0.50528853090E+02  0.29999979452E+02 0.  0.
        -12    1    1    2    0    0 -0.20922120864E+02 -0.30182949838E+02 -0.17447653857E+02  0.40659146910E+02  0.00000000000E+00 0.  1.
         11    1    3    3    0    0 -0.38556718869E+01  0.48792535641E+01  0.55267205656E+01  0.83197332597E+01  0.51100000000E-03 0. -1.
        -11    1    3    3    0    0  0.55989158770E+00  0.20580023369E+01  0.81554467713E+01  0.84297191240E+01  0.51100000000E-03 0.  1.
         12    1    3    3    0    0  0.24217901163E+02  0.23245693937E+02  0.37654865200E+01  0.33779400706E+02  0.00000000000E+00 0. -1.
</event>
<event>
 7    1  0.5487071E-013  0.5052885E+02  0.7816164E-02  0.1300439E+00
        -11   -1    0    0    0    0  0.00000000000E+00  0.00000000000E+00  0.45593999997E+02  0.45594000000E+02  0.51100000000E-03 0.  1.
         11   -1    0    0    0    0 -0.00000000000E+00 -0.00000000000E+00 -0.45593999997E+02  0.45594000000E+02  0.51100000000E-03 0. -1.
    9900012    2    1    2    0    0 -0.35612249016E+02 -0.34257673566E+01 -0.19318339376E+02  0.50528850990E+02  0.29999973070E+02 0.  0.
        -12    1    1    2    0    0  0.35612249016E+02  0.34257673566E+01  0.19318339376E+02  0.40659149010E+02  0.00000000000E+00 0.  1.
         11    1    3    3    0    0 -0.55602181432E+01 -0.49788013580E+01  0.38842269766E+01  0.84137808522E+01  0.51100000000E-03 0.  1.
        -11    1    3    3    0    0 -0.60952136437E+01  0.79721635788E+01 -0.93022136687E+01  0.13683501046E+02  0.51100000000E-03 0. -1.
         12    1    3    3    0    0 -0.23956817229E+02 -0.64191295775E+01 -0.13900352684E+02  0.28431569092E+02  0.00000000000E+00 0. -1.
</event>
<event>
 7    1  0.5487071E-013  0.5052886E+02  0.7816164E-02  0.1300439E+00
        -11   -1    0    0    0    0  0.00000000000E+00  0.00000000000E+00  0.45593999997E+02  0.45594000000E+02  0.51100000000E-03 0.  1.
         11   -1    0    0    0    0 -0.00000000000E+00 -0.00000000000E+00 -0.45593999997E+02  0.45594000000E+02  0.51100000000E-03 0. -1.
    9900012    2    1    2    0    0 -0.38483463726E+02 -0.45094781662E+01  0.12322887375E+02  0.50528856786E+02  0.29999990686E+02 0.  0.
        -12    1    1    2    0    0  0.38483463726E+02  0.45094781662E+01 -0.12322887375E+02  0.40659143214E+02  0.00000000000E+00 0.  1.
         11    1    3    3    0    0 -0.49341717205E+01  0.62514983058E+01  0.59791551317E+01  0.99587940025E+01  0.51100000000E-03 0. -1.
        -11    1    3    3    0    0 -0.12102974494E+02  0.20851489438E+00  0.10621750422E+02  0.16104255722E+02  0.51100000000E-03 0.  1.
        -12    1    3    3    0    0 -0.21446317511E+02 -0.10969491366E+02 -0.42780181790E+01  0.24465807061E+02  0.00000000000E+00 0.  1.
</event>
<event>
 7    1  0.5487071E-013  0.5052888E+02  0.7816164E-02  0.1300439E+00
        -11   -1    0    0    0    0  0.00000000000E+00  0.00000000000E+00  0.45593999997E+02  0.45594000000E+02  0.51100000000E-03 0.  1.
         11   -1    0    0    0    0 -0.00000000000E+00 -0.00000000000E+00 -0.45593999997E+02  0.45594000000E+02  0.51100000000E-03 0. -1.
    9900012    2    1    2    0    0  0.34563743867E+02 -0.76145920490E+01 -0.20013238583E+02  0.50528878997E+02  0.30000058200E+02 0.  0.
        -12    1    1    2    0    0 -0.34563743867E+02  0.76145920490E+01  0.20013238583E+02  0.40659121003E+02  0.00000000000E+00 0.  1.
         11    1    3    3    0    0  0.18089172006E+02  0.14903905164E+00 -0.83270536522E+01  0.19914320960E+02  0.51100000000E-03 0. -1.
        -11    1    3    3    0    0  0.11883094346E+02  0.46579391797E+01  0.27949943664E+00  0.12766457960E+02  0.51100000000E-03 0.  1.
         12    1    3    3    0    0  0.45914775143E+01 -0.12421570280E+02 -0.11965684367E+02  0.17848100077E+02  0.00000000000E+00 0. -1.
</event>
<event>
 7    1  0.5487071E-013  0.5052887E+02  0.7816164E-02  0.1300439E+00
        -11   -1    0    0    0    0  0.00000000000E+00  0.00000000000E+00  0.45593999997E+02  0.45594000000E+02  0.51100000000E-03 0. -1.
         11   -1    0    0    0    0 -0.00000000000E+00 -0.00000000000E+00 -0.45593999997E+02  0.45594000000E+02  0.51100000000E-03 0.  1.
    9900012    2    1    2    0    0 -0.23472654073E+02  0.31563690294E+02 -0.10292360470E+02  0.50528871649E+02  0.30000035865E+02 0.  0.
        -12    1    1    2    0    0  0.23472654073E+02 -0.31563690294E+02  0.10292360470E+02  0.40659128351E+02  0.00000000000E+00 0.  1.
         11    1    3    3    0    0 -0.56436795847E+01 -0.20058536416E+01  0.28701386774E+01  0.66417064354E+01  0.51100000000E-03 0. -1.
        -11    1    3    3    0    0 -0.52556293776E+01 -0.56129934642E+00 -0.31827383613E+01  0.61698071970E+01  0.51100000000E-03 0.  1.
        -12    1    3    3    0    0 -0.12573345111E+02  0.34130843282E+02 -0.99797607864E+01  0.37717358017E+02  0.00000000000E+00 0.  1.
</event>
<event>
 7    1  0.5487071E-013  0.5052886E+02  0.7816164E-02  0.1300439E+00
        -11   -1    0    0    0    0  0.00000000000E+00  0.00000000000E+00  0.45593999997E+02  0.45594000000E+02  0.51100000000E-03 0. -1.
         11   -1    0    0    0    0 -0.00000000000E+00 -0.00000000000E+00 -0.45593999997E+02  0.45594000000E+02  0.51100000000E-03 0.  1.
    9900012    2    1    2    0    0 -0.19295170543E+02  0.32183968254E+02 -0.15654218351E+02  0.50528856244E+02  0.29999989039E+02 0.  0.
        -12    1    1    2    0    0  0.19295170543E+02 -0.32183968254E+02  0.15654218351E+02  0.40659143756E+02  0.00000000000E+00 0.  1.
         11    1    3    3    0    0 -0.11487808342E+01 -0.37204644960E+01  0.25159017021E+01  0.46358726371E+01  0.51100000000E-03 0.  1.
        -11    1    3    3    0    0 -0.24235807267E+01  0.17005145420E+01 -0.53693576992E+01  0.61315165832E+01  0.51100000000E-03 0. -1.
         12    1    3    3    0    0 -0.15722808982E+02  0.34203918208E+02 -0.12800762354E+02  0.39761467024E+02  0.00000000000E+00 0. -1.
</event>
<event>
 7    1  0.5487071E-013  0.5052886E+02  0.7816164E-02  0.1300439E+00
        -11   -1    0    0    0    0  0.00000000000E+00  0.00000000000E+00  0.45593999997E+02  0.45594000000E+02  0.51100000000E-03 0. -1.
         11   -1    0    0    0    0 -0.00000000000E+00 -0.00000000000E+00 -0.45593999997E+02  0.45594000000E+02  0.51100000000E-03 0.  1.
    9900012    2    1    2    0    0  0.19876033106E+02  0.87651985512E+01 -0.34369757780E+02  0.50528860222E+02  0.30000001130E+02 0.  0.
        -12    1    1    2    0    0 -0.19876033106E+02 -0.87651985512E+01  0.34369757780E+02  0.40659139778E+02  0.00000000000E+00 0.  1.
         11    1    3    3    0    0 -0.37495822528E+01  0.51353020323E+01 -0.82643354144E+01  0.10427364678E+02  0.51100000000E-03 0. -1.
        -11    1    3    3    0    0  0.92400404401E+01  0.18162689215E+01  0.88977759781E+00  0.94587993194E+01  0.51100000000E-03 0.  1.
         12    1    3    3    0    0  0.14385574919E+02  0.18136275974E+01 -0.26995199963E+02  0.30642696224E+02  0.00000000000E+00 0. -1.
</event>
<event>
 7    1  0.5487071E-013  0.5052886E+02  0.7816164E-02  0.1300439E+00
        -11   -1    0    0    0    0  0.00000000000E+00  0.00000000000E+00  0.45593999997E+02  0.45594000000E+02  0.51100000000E-03 0.  1.
         11   -1    0    0    0    0 -0.00000000000E+00 -0.00000000000E+00 -0.45593999997E+02  0.45594000000E+02  0.51100000000E-03 0. -1.
    9900012    2    1    2    0    0  0.89204145160E+01 -0.48176999221E+01 -0.39374884294E+02  0.50528861533E+02  0.30000005117E+02 0.  0.
        -12    1    1    2    0    0 -0.89204145160E+01  0.48176999221E+01  0.39374884294E+02  0.40659138467E+02  0.00000000000E+00 0.  1.
         11    1    3    3    0    0 -0.22238640340E+01  0.38549581520E+01 -0.19347413364E+01  0.48527824900E+01  0.51100000000E-03 0. -1.
        -11    1    3    3    0    0 -0.32377950993E+01  0.95364279536E+00  0.99952921159E+00  0.35202003625E+01  0.51100000000E-03 0.  1.
         12    1    3    3    0    0  0.14382073649E+02 -0.96263008695E+01 -0.38439672169E+02  0.42155878681E+02  0.00000000000E+00 0. -1.
</event>
<event>
 7    1  0.5487071E-013  0.5052886E+02  0.7816164E-02  0.1300439E+00
        -11   -1    0    0    0    0  0.00000000000E+00  0.00000000000E+00  0.45593999997E+02  0.45594000000E+02  0.51100000000E-03 0.  1.
         11   -1    0    0    0    0 -0.00000000000E+00 -0.00000000000E+00 -0.45593999997E+02  0.45594000000E+02  0.51100000000E-03 0. -1.
    9900012    2    1    2    0    0 -0.15749487035E+02 -0.15879468716E+02 -0.33955293644E+02  0.50528857916E+02  0.29999994121E+02 0.  0.
        -12    1    1    2    0    0  0.15749487035E+02  0.15879468716E+02  0.33955293644E+02  0.40659142084E+02  0.00000000000E+00 0.  1.
         11    1    3    3    0    0 -0.16721324785E+02 -0.11302524007E+02 -0.14963824546E+02  0.25125003419E+02  0.51100000000E-03 0. -1.
        -11    1    3    3    0    0  0.33724877341E+01 -0.67478212767E+01 -0.15970326597E+01  0.77108546268E+01  0.51100000000E-03 0.  1.
        -12    1    3    3    0    0 -0.24006499842E+01  0.21708765675E+01 -0.17394436438E+02  0.17692999870E+02  0.00000000000E+00 0.  1.
</event>
<event>
 7    1  0.5487071E-013  0.5052886E+02  0.7816164E-02  0.1300439E+00
        -11   -1    0    0    0    0  0.00000000000E+00  0.00000000000E+00  0.45593999997E+02  0.45594000000E+02  0.51100000000E-03 0.  1.
         11   -1    0    0    0    0 -0.00000000000E+00 -0.00000000000E+00 -0.45593999997E+02  0.45594000000E+02  0.51100000000E-03 0. -1.
    9900012    2    1    2    0    0  0.12778065903E+02 -0.23366666141E+02 -0.30722720330E+02  0.50528860815E+02  0.30000002934E+02 0.  0.
        -12    1    1    2    0    0 -0.12778065903E+02  0.23366666141E+02  0.30722720330E+02  0.40659139185E+02  0.00000000000E+00 0.  1.
         11    1    3    3    0    0 -0.81661392842E+01 -0.43931806680E+01 -0.40852889575E+01  0.10132889683E+02  0.51100000000E-03 0. -1.
        -11    1    3    3    0    0  0.38902359306E+01 -0.85780764727E+01 -0.40727132867E+01  0.10261789578E+02  0.51100000000E-03 0.  1.
        -12    1    3    3    0    0  0.17053969256E+02 -0.10395409000E+02 -0.22564718086E+02  0.30134181555E+02  0.00000000000E+00 0.  1.
</event>
<event>
 7    1  0.5487071E-013  0.5052886E+02  0.7816164E-02  0.1300439E+00
        -11   -1    0    0    0    0  0.00000000000E+00  0.00000000000E+00  0.45593999997E+02  0.45594000000E+02  0.51100000000E-03 0.  1.
         11   -1    0    0    0    0 -0.00000000000E+00 -0.00000000000E+00 -0.45593999997E+02  0.45594000000E+02  0.51100000000E-03 0. -1.
    9900012    2    1    2    0    0 -0.25052131742E+02  0.25414119003E+02  0.19485344552E+02  0.50528863243E+02  0.30000010313E+02 0.  0.
        -12    1    1    2    0    0  0.25052131742E+02 -0.25414119003E+02 -0.19485344552E+02  0.40659136757E+02  0.00000000000E+00 0.  1.
         11    1    3    3    0    0 -0.13172827418E+02  0.42950824472E+01 -0.13829913584E+01  0.13924215625E+02  0.51100000000E-03 0. -1.
        -11    1    3    3    0    0 -0.28526432522E+00 -0.28480182692E+01  0.14493964230E+00  0.28659364191E+01  0.51100000000E-03 0.  1.
        -12    1    3    3    0    0 -0.11594039999E+02  0.23967054824E+02  0.20723396269E+02  0.33738711199E+02  0.00000000000E+00 0.  1.
</event>
<event>
 7    1  0.5487071E-013  0.5052886E+02  0.7816164E-02  0.1300439E+00
        -11   -1    0    0    0    0  0.00000000000E+00  0.00000000000E+00  0.45593999997E+02  0.45594000000E+02  0.51100000000E-03 0.  1.
         11   -1    0    0    0    0 -0.00000000000E+00 -0.00000000000E+00 -0.45593999997E+02  0.45594000000E+02  0.51100000000E-03 0. -1.
    9900012    2    1    2    0    0  0.22928734318E+02  0.65787639984E+01 -0.32926567654E+02  0.50528857723E+02  0.29999993536E+02 0.  0.
        -12    1    1    2    0    0 -0.22928734318E+02 -0.65787639984E+01  0.32926567654E+02  0.40659142277E+02  0.00000000000E+00 0.  1.
         11    1    3    3    0    0  0.31715819817E+01  0.12142128450E+02 -0.48590993508E+01  0.13457379474E+02  0.51100000000E-03 0. -1.
        -11    1    3    3    0    0  0.87855219107E+01  0.11283516697E+01 -0.38558124005E+01  0.96605311584E+01  0.51100000000E-03 0.  1.
         12    1    3    3    0    0  0.10971630426E+02 -0.66917161208E+01 -0.24211655903E+02  0.27410947091E+02  0.00000000000E+00 0. -1.
</event>
<event>
 7    1  0.5487071E-013  0.5052886E+02  0.7816164E-02  0.1300439E+00
        -11   -1    0    0    0    0  0.00000000000E+00  0.00000000000E+00  0.45593999997E+02  0.45594000000E+02  0.51100000000E-03 0. -1.
         11   -1    0    0    0    0 -0.00000000000E+00 -0.00000000000E+00 -0.45593999997E+02  0.45594000000E+02  0.51100000000E-03 0.  1.
    9900012    2    1    2    0    0 -0.26985043446E+01  0.18386717398E+02  0.36163691059E+02  0.50528857690E+02  0.29999993434E+02 0.  0.
        -12    1    1    2    0    0  0.26985043446E+01 -0.18386717398E+02 -0.36163691059E+02  0.40659142310E+02  0.00000000000E+00 0.  1.
         11    1    3    3    0    0 -0.63547174154E+01  0.44647044638E+01  0.11752125032E+02  0.14086463800E+02  0.51100000000E-03 0. -1.
        -11    1    3    3    0    0 -0.14673460663E+01  0.16465387559E+02  0.25720345895E+02  0.30574471135E+02  0.51100000000E-03 0.  1.
        -12    1    3    3    0    0  0.51235591372E+01 -0.25433746248E+01 -0.13087798676E+01  0.58679227548E+01  0.00000000000E+00 0.  1.
</event>
<event>
 7    1  0.5487071E-013  0.5052886E+02  0.7816164E-02  0.1300439E+00
        -11   -1    0    0    0    0  0.00000000000E+00  0.00000000000E+00  0.45593999997E+02  0.45594000000E+02  0.51100000000E-03 0. -1.
         11   -1    0    0    0    0 -0.00000000000E+00 -0.00000000000E+00 -0.45593999997E+02  0.45594000000E+02  0.51100000000E-03 0.  1.
    9900012    2    1    2    0    0 -0.36998900764E+01 -0.32724424855E+02  0.23845086654E+02  0.50528864173E+02  0.30000013140E+02 0.  0.
        -12    1    1    2    0    0  0.36998900764E+01  0.32724424855E+02 -0.23845086654E+02  0.40659135827E+02  0.00000000000E+00 0.  1.
         11    1    3    3    0    0 -0.84554663000E+01 -0.67423634410E+01  0.10618126454E+02  0.15155823461E+02  0.51100000000E-03 0. -1.
        -11    1    3    3    0    0  0.49270346501E+01 -0.10322758525E+02  0.15796973097E+02  0.19503316982E+02  0.51100000000E-03 0.  1.
        -12    1    3    3    0    0 -0.17145842642E+00 -0.15659302889E+02 -0.25700128974E+01  0.15869723730E+02  0.00000000000E+00 0.  1.
</event>
<event>
 7    1  0.5487071E-013  0.5052886E+02  0.7816164E-02  0.1300439E+00
        -11   -1    0    0    0    0  0.00000000000E+00  0.00000000000E+00  0.45593999997E+02  0.45594000000E+02  0.51100000000E-03 0.  1.
         11   -1    0    0    0    0 -0.00000000000E+00 -0.00000000000E+00 -0.45593999997E+02  0.45594000000E+02  0.51100000000E-03 0. -1.
    9900012    2    1    2    0    0  0.19607595180E+02 -0.18432343355E+02 -0.30478784778E+02  0.50528863366E+02  0.30000010688E+02 0.  0.
        -12    1    1    2    0    0 -0.19607595180E+02  0.18432343355E+02  0.30478784778E+02  0.40659136634E+02  0.00000000000E+00 0.  1.
         11    1    3    3    0    0  0.68802645242E+01  0.52443153151E+01 -0.27351634132E+01  0.90731473153E+01  0.51100000000E-03 0. -1.
        -11    1    3    3    0    0 -0.12940009774E+01  0.14641334858E+01 -0.24654834659E+01  0.31459075599E+01  0.51100000000E-03 0.  1.
         12    1    3    3    0    0  0.14021331633E+02 -0.25140792155E+02 -0.25278137899E+02  0.38309808491E+02  0.00000000000E+00 0. -1.
</event>
<event>
 7    1  0.5487071E-013  0.5052887E+02  0.7816164E-02  0.1300439E+00
        -11   -1    0    0    0    0  0.00000000000E+00  0.00000000000E+00  0.45593999997E+02  0.45594000000E+02  0.51100000000E-03 0.  1.
         11   -1    0    0    0    0 -0.00000000000E+00 -0.00000000000E+00 -0.45593999997E+02  0.45594000000E+02  0.51100000000E-03 0. -1.
    9900012    2    1    2    0    0  0.63325238028E+01 -0.39012483181E+01 -0.39973044152E+02  0.50528869969E+02  0.30000030757E+02 0.  0.
        -12    1    1    2    0    0 -0.63325238028E+01  0.39012483181E+01  0.39973044152E+02  0.40659130031E+02  0.00000000000E+00 0.  1.
         11    1    3    3    0    0  0.30765324835E+01  0.40412976395E+01 -0.20289897695E+02  0.20915952942E+02  0.51100000000E-03 0. -1.
        -11    1    3    3    0    0  0.24277841531E+01 -0.64391356540E+01 -0.24000120954E+02  0.24967226717E+02  0.51100000000E-03 0.  1.
        -12    1    3    3    0    0  0.82820716613E+00 -0.15034103036E+01  0.43169744969E+01  0.46456903102E+01  0.00000000000E+00 0.  1.
</event>
<event>
 7    1  0.5487071E-013  0.5052885E+02  0.7816164E-02  0.1300439E+00
        -11   -1    0    0    0    0  0.00000000000E+00  0.00000000000E+00  0.45593999997E+02  0.45594000000E+02  0.51100000000E-03 0. -1.
         11   -1    0    0    0    0 -0.00000000000E+00 -0.00000000000E+00 -0.45593999997E+02  0.45594000000E+02  0.51100000000E-03 0.  1.
    9900012    2    1    2    0    0 -0.36654779913E+02 -0.16463286191E+02  0.62091962328E+01  0.50528846042E+02  0.29999958031E+02 0.  0.
        -12    1    1    2    0    0  0.36654779913E+02  0.16463286191E+02 -0.62091962328E+01  0.40659153958E+02  0.00000000000E+00 0.  1.
         11    1    3    3    0    0 -0.26479621309E+02 -0.14808518252E+02  0.46380055221E+01  0.30691589287E+02  0.51100000000E-03 0. -1.
        -11    1    3    3    0    0 -0.10365132860E+02  0.74955444651E+00 -0.59250318550E+01  0.11962600629E+02  0.51100000000E-03 0.  1.
        -12    1    3    3    0    0  0.18997425553E+00 -0.24043223857E+01  0.74962225658E+01  0.78746561263E+01  0.00000000000E+00 0.  1.
</event>
<event>
 7    1  0.5487071E-013  0.5052886E+02  0.7816164E-02  0.1300439E+00
        -11   -1    0    0    0    0  0.00000000000E+00  0.00000000000E+00  0.45593999997E+02  0.45594000000E+02  0.51100000000E-03 0. -1.
         11   -1    0    0    0    0 -0.00000000000E+00 -0.00000000000E+00 -0.45593999997E+02  0.45594000000E+02  0.51100000000E-03 0.  1.
    9900012    2    1    2    0    0  0.37952336085E+02  0.15105521515E+01  0.14508762115E+02  0.50528858835E+02  0.29999996916E+02 0.  0.
        -12    1    1    2    0    0 -0.37952336085E+02 -0.15105521515E+01 -0.14508762115E+02  0.40659141165E+02  0.00000000000E+00 0.  1.
         11    1    3    3    0    0  0.16684814445E+02  0.43338088936E+00  0.91725355680E+01  0.19044848675E+02  0.51100000000E-03 0. -1.
        -11    1    3    3    0    0  0.20785578027E+02 -0.72134624685E+01  0.68482666715E+01  0.23042852500E+02  0.51100000000E-03 0.  1.
         12    1    3    3    0    0  0.48194361412E+00  0.82906337306E+01 -0.15120401247E+01  0.84411576600E+01  0.00000000000E+00 0. -1.
</event>
<event>
 7    1  0.5487071E-013  0.5052886E+02  0.7816164E-02  0.1300439E+00
        -11   -1    0    0    0    0  0.00000000000E+00  0.00000000000E+00  0.45593999997E+02  0.45594000000E+02  0.51100000000E-03 0. -1.
         11   -1    0    0    0    0 -0.00000000000E+00 -0.00000000000E+00 -0.45593999997E+02  0.45594000000E+02  0.51100000000E-03 0.  1.
    9900012    2    1    2    0    0  0.34152513257E+02  0.82846576389E+01 -0.20448376170E+02  0.50528858322E+02  0.29999995356E+02 0.  0.
        -12    1    1    2    0    0 -0.34152513257E+02 -0.82846576389E+01  0.20448376170E+02  0.40659141678E+02  0.00000000000E+00 0.  1.
         11    1    3    3    0    0  0.19872745479E+02 -0.29407394626E+00 -0.13146558597E+02  0.23829487942E+02  0.51100000000E-03 0. -1.
        -11    1    3    3    0    0  0.11137631490E+02  0.94827503368E+01  0.38106347659E+01  0.15115896491E+02  0.51100000000E-03 0.  1.
         12    1    3    3    0    0  0.31421362887E+01 -0.90401875158E+00 -0.11112452339E+02  0.11583473889E+02  0.00000000000E+00 0. -1.
</event>
<event>
 7    1  0.5487071E-013  0.5052887E+02  0.7816164E-02  0.1300439E+00
        -11   -1    0    0    0    0  0.00000000000E+00  0.00000000000E+00  0.45593999997E+02  0.45594000000E+02  0.51100000000E-03 0. -1.
         11   -1    0    0    0    0 -0.00000000000E+00 -0.00000000000E+00 -0.45593999997E+02  0.45594000000E+02  0.51100000000E-03 0.  1.
    9900012    2    1    2    0    0 -0.17010706675E+02  0.34854860863E+02  0.12204070140E+02  0.50528870701E+02  0.30000032983E+02 0.  0.
        -12    1    1    2    0    0  0.17010706675E+02 -0.34854860863E+02 -0.12204070140E+02  0.40659129299E+02  0.00000000000E+00 0.  1.
         11    1    3    3    0    0 -0.13969905369E+02  0.78413663123E+01  0.34925025124E-01  0.16020190439E+02  0.51100000000E-03 0. -1.
        -11    1    3    3    0    0 -0.80416022643E+01  0.54943041309E+01  0.11092416046E+01  0.98023039158E+01  0.51100000000E-03 0.  1.
         12    1    3    3    0    0  0.50008009580E+01  0.21519190420E+02  0.11059903510E+02  0.24706376347E+02  0.00000000000E+00 0. -1.
</event>
<event>
 7    1  0.5487071E-013  0.5052886E+02  0.7816164E-02  0.1300439E+00
        -11   -1    0    0    0    0  0.00000000000E+00  0.00000000000E+00  0.45593999997E+02  0.45594000000E+02  0.51100000000E-03 0.  1.
         11   -1    0    0    0    0 -0.00000000000E+00 -0.00000000000E+00 -0.45593999997E+02  0.45594000000E+02  0.51100000000E-03 0. -1.
    9900012    2    1    2    0    0  0.32264463487E+02 -0.22635893452E+02  0.99893081115E+01  0.50528861384E+02  0.30000004663E+02 0.  0.
        -12    1    1    2    0    0 -0.32264463487E+02  0.22635893452E+02 -0.99893081115E+01  0.40659138616E+02  0.00000000000E+00 0.  1.
         11    1    3    3    0    0  0.10647353248E+02 -0.63409058274E+01 -0.41673196949E+01  0.13074393738E+02  0.51100000000E-03 0. -1.
        -11    1    3    3    0    0  0.12561524154E+02 -0.37722877785E+01 -0.39041488293E+01  0.13684459160E+02  0.51100000000E-03 0.  1.
         12    1    3    3    0    0  0.90555860843E+01 -0.12522699846E+02  0.18060776636E+02  0.23770008486E+02  0.00000000000E+00 0. -1.
</event>
<event>
 7    1  0.5487071E-013  0.5052890E+02  0.7816164E-02  0.1300439E+00
        -11   -1    0    0    0    0  0.00000000000E+00  0.00000000000E+00  0.45593999997E+02  0.45594000000E+02  0.51100000000E-03 0.  1.
         11   -1    0    0    0    0 -0.00000000000E+00 -0.00000000000E+00 -0.45593999997E+02  0.45594000000E+02  0.51100000000E-03 0. -1.
    9900012    2    1    2    0    0 -0.25044628883E+02  0.89380599270E+01 -0.30757765232E+02  0.50528899257E+02  0.30000119782E+02 0.  0.
        -12    1    1    2    0    0  0.25044628883E+02 -0.89380599270E+01  0.30757765232E+02  0.40659100743E+02  0.00000000000E+00 0.  1.
         11    1    3    3    0    0 -0.10278486194E+02 -0.19157708558E+01 -0.22636652195E+02  0.24934624105E+02  0.51100000000E-03 0.  1.
        -11    1    3    3    0    0 -0.44592867830E+01  0.52885339058E+01 -0.11484991466E+02  0.13407418048E+02  0.51100000000E-03 0. -1.
        -12    1    3    3    0    0 -0.10306855906E+02  0.55652968770E+01  0.33638784282E+01  0.12186857104E+02  0.00000000000E+00 0.  1.
</event>
<event>
 7    1  0.5487071E-013  0.5052889E+02  0.7816164E-02  0.1300439E+00
        -11   -1    0    0    0    0  0.00000000000E+00  0.00000000000E+00  0.45593999997E+02  0.45594000000E+02  0.51100000000E-03 0. -1.
         11   -1    0    0    0    0 -0.00000000000E+00 -0.00000000000E+00 -0.45593999997E+02  0.45594000000E+02  0.51100000000E-03 0.  1.
    9900012    2    1    2    0    0 -0.79791222738E+01 -0.33664796048E+02  0.21358325680E+02  0.50528893258E+02  0.30000101545E+02 0.  0.
        -12    1    1    2    0    0  0.79791222738E+01  0.33664796048E+02 -0.21358325680E+02  0.40659106742E+02  0.00000000000E+00 0.  1.
         11    1    3    3    0    0  0.95795427967E+00 -0.93721492677E+01  0.14175062435E+02  0.17020201338E+02  0.51100000000E-03 0. -1.
        -11    1    3    3    0    0  0.60184232129E+01 -0.96614770572E+01  0.51322355648E+01  0.12486208354E+02  0.51100000000E-03 0.  1.
         12    1    3    3    0    0 -0.14955499766E+02 -0.14631169723E+02  0.20510276810E+01  0.21022483566E+02  0.00000000000E+00 0. -1.
</event>
<event>
 7    1  0.5487071E-013  0.5052886E+02  0.7816164E-02  0.1300439E+00
        -11   -1    0    0    0    0  0.00000000000E+00  0.00000000000E+00  0.45593999997E+02  0.45594000000E+02  0.51100000000E-03 0.  1.
         11   -1    0    0    0    0 -0.00000000000E+00 -0.00000000000E+00 -0.45593999997E+02  0.45594000000E+02  0.51100000000E-03 0. -1.
    9900012    2    1    2    0    0  0.30332426517E+02 -0.22424422570E+02  0.15174143151E+02  0.50528862695E+02  0.30000008648E+02 0.  0.
        -12    1    1    2    0    0 -0.30332426517E+02  0.22424422570E+02 -0.15174143151E+02  0.40659137305E+02  0.00000000000E+00 0.  1.
         11    1    3    3    0    0  0.49506301312E+01 -0.98335839796E+01  0.14263542424E+02  0.18018233968E+02  0.51100000000E-03 0. -1.
        -11    1    3    3    0    0  0.30984799145E+01 -0.87806381996E+01  0.30618288299E+01  0.98017845833E+01  0.51100000000E-03 0.  1.
         12    1    3    3    0    0  0.22283316471E+02 -0.38102003913E+01 -0.21512281036E+01  0.22708844144E+02  0.00000000000E+00 0. -1.
</event>
<event>
 7    1  0.5487071E-013  0.5052886E+02  0.7816164E-02  0.1300439E+00
        -11   -1    0    0    0    0  0.00000000000E+00  0.00000000000E+00  0.45593999997E+02  0.45594000000E+02  0.51100000000E-03 0.  1.
         11   -1    0    0    0    0 -0.00000000000E+00 -0.00000000000E+00 -0.45593999997E+02  0.45594000000E+02  0.51100000000E-03 0. -1.
    9900012    2    1    2    0    0  0.23106411863E+02 -0.29111212981E+02 -0.16486263059E+02  0.50528857608E+02  0.29999993184E+02 0.  0.
        -12    1    1    2    0    0 -0.23106411863E+02  0.29111212981E+02  0.16486263059E+02  0.40659142392E+02  0.00000000000E+00 0.  1.
         11    1    3    3    0    0  0.66802888057E+01 -0.33674423322E+01 -0.53302092734E+00  0.75000025306E+01  0.51100000000E-03 0. -1.
        -11    1    3    3    0    0  0.10909100775E+02 -0.13457923315E+02  0.50798063273E+01  0.18053493077E+02  0.51100000000E-03 0.  1.
         12    1    3    3    0    0  0.55170222822E+01 -0.12285847334E+02 -0.21033048459E+02  0.24975362001E+02  0.00000000000E+00 0. -1.
</event>
<event>
 7    1  0.5487071E-013  0.5052886E+02  0.7816164E-02  0.1300439E+00
        -11   -1    0    0    0    0  0.00000000000E+00  0.00000000000E+00  0.45593999997E+02  0.45594000000E+02  0.51100000000E-03 0. -1.
         11   -1    0    0    0    0 -0.00000000000E+00 -0.00000000000E+00 -0.45593999997E+02  0.45594000000E+02  0.51100000000E-03 0.  1.
    9900012    2    1    2    0    0  0.35625657479E+01 -0.72463656929E+01  0.39849270759E+02  0.50528855020E+02  0.29999985320E+02 0.  0.
        -12    1    1    2    0    0 -0.35625657479E+01  0.72463656929E+01 -0.39849270759E+02  0.40659144980E+02  0.00000000000E+00 0.  1.
         11    1    3    3    0    0 -0.43524805564E+01 -0.32029615576E+01  0.22108848018E+01  0.58387551414E+01  0.51100000000E-03 0.  1.
        -11    1    3    3    0    0 -0.55037115117E+00  0.86173998894E+01  0.16676820391E+02  0.18779745149E+02  0.51100000000E-03 0. -1.
        -12    1    3    3    0    0  0.84654174554E+01 -0.12660804025E+02  0.20961565566E+02  0.25910354730E+02  0.00000000000E+00 0.  1.
</event>
<event>
 7    1  0.5487071E-013  0.5052886E+02  0.7816164E-02  0.1300439E+00
        -11   -1    0    0    0    0  0.00000000000E+00  0.00000000000E+00  0.45593999997E+02  0.45594000000E+02  0.51100000000E-03 0.  1.
         11   -1    0    0    0    0 -0.00000000000E+00 -0.00000000000E+00 -0.45593999997E+02  0.45594000000E+02  0.51100000000E-03 0. -1.
    9900012    2    1    2    0    0 -0.26185111498E+02  0.29844426905E+02 -0.87644586992E+01  0.50528860588E+02  0.30000002244E+02 0.  0.
        -12    1    1    2    0    0  0.26185111498E+02 -0.29844426905E+02  0.87644586992E+01  0.40659139412E+02  0.00000000000E+00 0.  1.
         11    1    3    3    0    0 -0.20525820321E+02  0.89997605314E+01  0.27498563503E+01  0.22580228070E+02  0.51100000000E-03 0. -1.
        -11    1    3    3    0    0  0.17054319200E+01  0.76530054757E+01  0.15296821186E+01  0.79885492106E+01  0.51100000000E-03 0.  1.
        -12    1    3    3    0    0 -0.73647230966E+01  0.13191660898E+02 -0.13043997168E+02  0.19960083308E+02  0.00000000000E+00 0.  1.
</event>
<event>
 7    1  0.5487071E-013  0.5052886E+02  0.7816164E-02  0.1300439E+00
        -11   -1    0    0    0    0  0.00000000000E+00  0.00000000000E+00  0.45593999997E+02  0.45594000000E+02  0.51100000000E-03 0.  1.
         11   -1    0    0    0    0 -0.00000000000E+00 -0.00000000000E+00 -0.45593999997E+02  0.45594000000E+02  0.51100000000E-03 0. -1.
    9900012    2    1    2    0    0 -0.91039529195E+01  0.18296166786E+02 -0.35150161669E+02  0.50528861505E+02  0.30000005030E+02 0.  0.
        -12    1    1    2    0    0  0.91039529195E+01 -0.18296166786E+02  0.35150161669E+02  0.40659138495E+02  0.00000000000E+00 0.  1.
         11    1    3    3    0    0 -0.12195933691E+01  0.10225060936E+02 -0.92274881914E+01  0.13826995975E+02  0.51100000000E-03 0. -1.
        -11    1    3    3    0    0 -0.64935560556E+01  0.15238938388E+02 -0.23982321202E+02  0.29146925120E+02  0.51100000000E-03 0.  1.
        -12    1    3    3    0    0 -0.13908034948E+01 -0.71678325369E+01 -0.19403522753E+01  0.75549404095E+01  0.00000000000E+00 0.  1.
</event>
<event>
 7    1  0.5487071E-013  0.5052893E+02  0.7816164E-02  0.1300439E+00
        -11   -1    0    0    0    0  0.00000000000E+00  0.00000000000E+00  0.45593999997E+02  0.45594000000E+02  0.51100000000E-03 0.  1.
         11   -1    0    0    0    0 -0.00000000000E+00 -0.00000000000E+00 -0.45593999997E+02  0.45594000000E+02  0.51100000000E-03 0. -1.
    9900012    2    1    2    0    0  0.36171331467E+02 -0.18546035936E+02  0.91618286750E+00  0.50528928933E+02  0.30000209983E+02 0.  0.
        -12    1    1    2    0    0 -0.36171331467E+02  0.18546035936E+02 -0.91618286750E+00  0.40659071067E+02  0.00000000000E+00 0.  1.
         11    1    3    3    0    0  0.51786514840E+01 -0.97009518289E+01  0.95823978298E+01  0.14585926299E+02  0.51100000000E-03 0. -1.
        -11    1    3    3    0    0  0.83825261603E+01 -0.29996237339E+01  0.35530553143E+01  0.95858588400E+01  0.51100000000E-03 0.  1.
         12    1    3    3    0    0  0.22610153823E+02 -0.58454603728E+01 -0.12219270277E+02  0.26357143793E+02  0.00000000000E+00 0. -1.
</event>
<event>
 7    1  0.5487071E-013  0.5052884E+02  0.7816164E-02  0.1300439E+00
        -11   -1    0    0    0    0  0.00000000000E+00  0.00000000000E+00  0.45593999997E+02  0.45594000000E+02  0.51100000000E-03 0.  1.
         11   -1    0    0    0    0 -0.00000000000E+00 -0.00000000000E+00 -0.45593999997E+02  0.45594000000E+02  0.51100000000E-03 0. -1.
    9900012    2    1    2    0    0  0.28987336889E+02  0.26330130418E+02 -0.10937340693E+02  0.50528844952E+02  0.29999954717E+02 0.  0.
        -12    1    1    2    0    0 -0.28987336889E+02 -0.26330130418E+02  0.10937340693E+02  0.40659155048E+02  0.00000000000E+00 0.  1.
         11    1    3    3    0    0  0.67156535197E+01 -0.30241386879E+01 -0.46676585714E+01  0.87196590415E+01  0.51100000000E-03 0. -1.
        -11    1    3    3    0    0  0.10032848377E+02  0.89303988053E+00  0.54562949627E+00  0.10087283014E+02  0.51100000000E-03 0.  1.
        -12    1    3    3    0    0  0.12238834992E+02  0.28461229225E+02 -0.68153116176E+01  0.31721902897E+02  0.00000000000E+00 0.  1.
</event>
<event>
 7    1  0.5487071E-013  0.5052886E+02  0.7816164E-02  0.1300439E+00
        -11   -1    0    0    0    0  0.00000000000E+00  0.00000000000E+00  0.45593999997E+02  0.45594000000E+02  0.51100000000E-03 0. -1.
         11   -1    0    0    0    0 -0.00000000000E+00 -0.00000000000E+00 -0.45593999997E+02  0.45594000000E+02  0.51100000000E-03 0.  1.
    9900012    2    1    2    0    0  0.20709725670E+02  0.33842038491E+02  0.88876017510E+01  0.50528858698E+02  0.29999996497E+02 0.  0.
        -12    1    1    2    0    0 -0.20709725670E+02 -0.33842038491E+02 -0.88876017510E+01  0.40659141302E+02  0.00000000000E+00 0.  1.
         11    1    3    3    0    0 -0.68975345639E+00  0.15836160342E+02  0.33165802614E+01  0.16194426174E+02  0.51100000000E-03 0. -1.
        -11    1    3    3    0    0  0.13190272254E+01 -0.39203206910E+01  0.97261956916E+00  0.42490865170E+01  0.51100000000E-03 0.  1.
         12    1    3    3    0    0  0.20080451901E+02  0.21926198840E+02  0.45984019205E+01  0.30085346007E+02  0.00000000000E+00 0. -1.
</event>
<event>
 7    1  0.5487071E-013  0.5052886E+02  0.7816164E-02  0.1300439E+00
        -11   -1    0    0    0    0  0.00000000000E+00  0.00000000000E+00  0.45593999997E+02  0.45594000000E+02  0.51100000000E-03 0.  1.
         11   -1    0    0    0    0 -0.00000000000E+00 -0.00000000000E+00 -0.45593999997E+02  0.45594000000E+02  0.51100000000E-03 0. -1.
    9900012    2    1    2    0    0  0.37380980053E+02 -0.13209533901E+02 -0.90186589172E+01  0.50528860016E+02  0.30000000504E+02 0.  0.
        -12    1    1    2    0    0 -0.37380980053E+02  0.13209533901E+02  0.90186589172E+01  0.40659139984E+02  0.00000000000E+00 0.  1.
         11    1    3    3    0    0  0.17440341343E+02  0.16508460629E+01  0.51997330858E+01  0.18273697581E+02  0.51100000000E-03 0. -1.
        -11    1    3    3    0    0  0.20210585472E+02 -0.80544232126E+01 -0.84864690178E+01  0.23352979575E+02  0.51100000000E-03 0.  1.
        -12    1    3    3    0    0 -0.26994676112E+00 -0.68059567509E+01 -0.57319229851E+01  0.89021828591E+01  0.00000000000E+00 0.  1.
</event>
<event>
 7    1  0.5487071E-013  0.5052886E+02  0.7816164E-02  0.1300439E+00
        -11   -1    0    0    0    0  0.00000000000E+00  0.00000000000E+00  0.45593999997E+02  0.45594000000E+02  0.51100000000E-03 0.  1.
         11   -1    0    0    0    0 -0.00000000000E+00 -0.00000000000E+00 -0.45593999997E+02  0.45594000000E+02  0.51100000000E-03 0. -1.
    9900012    2    1    2    0    0  0.45114531854E+01  0.13328255119E+02 -0.38146692694E+02  0.50528858865E+02  0.29999997006E+02 0.  0.
        -12    1    1    2    0    0 -0.45114531854E+01 -0.13328255119E+02  0.38146692694E+02  0.40659141135E+02  0.00000000000E+00 0.  1.
         11    1    3    3    0    0  0.27341117966E+01  0.23873016517E+01 -0.29263929416E+02  0.29488169519E+02  0.51100000000E-03 0. -1.
        -11    1    3    3    0    0  0.49865524648E+01 -0.11539247148E+01 -0.65484863399E+01  0.83114331698E+01  0.51100000000E-03 0.  1.
        -12    1    3    3    0    0 -0.32092110760E+01  0.12094878182E+02 -0.23342769381E+01  0.12729256176E+02  0.00000000000E+00 0.  1.
</event>
<event>
 7    1  0.5487071E-013  0.5052886E+02  0.7816164E-02  0.1300439E+00
        -11   -1    0    0    0    0  0.00000000000E+00  0.00000000000E+00  0.45593999997E+02  0.45594000000E+02  0.51100000000E-03 0. -1.
         11   -1    0    0    0    0 -0.00000000000E+00 -0.00000000000E+00 -0.45593999997E+02  0.45594000000E+02  0.51100000000E-03 0.  1.
    9900012    2    1    2    0    0 -0.45973469680E+01  0.36007081709E+02  0.18317219336E+02  0.50528855192E+02  0.29999985841E+02 0.  0.
        -12    1    1    2    0    0  0.45973469680E+01 -0.36007081709E+02 -0.18317219336E+02  0.40659144808E+02  0.00000000000E+00 0.  1.
         11    1    3    3    0    0 -0.30963462976E+01  0.29742735151E+02 -0.63154080604E+00  0.29910140400E+02  0.51100000000E-03 0. -1.
        -11    1    3    3    0    0 -0.68745527929E+00 -0.37732161373E+00  0.36109890047E+00  0.86334178530E+00  0.51100000000E-03 0.  1.
         12    1    3    3    0    0 -0.81354539113E+00  0.66416681712E+01  0.18587661242E+02  0.19755373007E+02  0.00000000000E+00 0. -1.
</event>
<event>
 7    1  0.5487071E-013  0.5052886E+02  0.7816164E-02  0.1300439E+00
        -11   -1    0    0    0    0  0.00000000000E+00  0.00000000000E+00  0.45593999997E+02  0.45594000000E+02  0.51100000000E-03 0.  1.
         11   -1    0    0    0    0 -0.00000000000E+00 -0.00000000000E+00 -0.45593999997E+02  0.45594000000E+02  0.51100000000E-03 0. -1.
    9900012    2    1    2    0    0 -0.32961044662E+02  0.36894687191E+01 -0.23518571336E+02  0.50528857826E+02  0.29999993849E+02 0.  0.
        -12    1    1    2    0    0  0.32961044662E+02 -0.36894687191E+01  0.23518571336E+02  0.40659142174E+02  0.00000000000E+00 0.  1.
         11    1    3    3    0    0 -0.61027743726E+01 -0.55071457936E+01 -0.56515406145E+00  0.82396546777E+01  0.51100000000E-03 0. -1.
        -11    1    3    3    0    0 -0.13989690032E+02  0.13735612716E+01 -0.23315238073E+02  0.27224959585E+02  0.51100000000E-03 0.  1.
         12    1    3    3    0    0 -0.12868580257E+02  0.78230532411E+01  0.36182079838E+00  0.15064243564E+02  0.00000000000E+00 0. -1.
</event>
<event>
 7    1  0.5487071E-013  0.5052886E+02  0.7816164E-02  0.1300439E+00
        -11   -1    0    0    0    0  0.00000000000E+00  0.00000000000E+00  0.45593999997E+02  0.45594000000E+02  0.51100000000E-03 0. -1.
         11   -1    0    0    0    0 -0.00000000000E+00 -0.00000000000E+00 -0.45593999997E+02  0.45594000000E+02  0.51100000000E-03 0.  1.
    9900012    2    1    2    0    0  0.40593880363E+02  0.11615262814E+01 -0.19883864624E+01  0.50528856540E+02  0.29999989938E+02 0.  0.
        -12    1    1    2    0    0 -0.40593880363E+02 -0.11615262814E+01  0.19883864624E+01  0.40659143460E+02  0.00000000000E+00 0.  1.
         11    1    3    3    0    0  0.16760529460E+02  0.72971706273E+01  0.57340175312E+01  0.19158366430E+02  0.51100000000E-03 0. -1.
        -11    1    3    3    0    0  0.35306195565E+00 -0.54525564709E+01 -0.55366631457E+01  0.77787957849E+01  0.51100000000E-03 0.  1.
         12    1    3    3    0    0  0.23480288947E+02 -0.68308787509E+00 -0.21857408479E+01  0.23591694325E+02  0.00000000000E+00 0. -1.
</event>
<event>
 7    1  0.5487071E-013  0.5052886E+02  0.7816164E-02  0.1300439E+00
        -11   -1    0    0    0    0  0.00000000000E+00  0.00000000000E+00  0.45593999997E+02  0.45594000000E+02  0.51100000000E-03 0.  1.
         11   -1    0    0    0    0 -0.00000000000E+00 -0.00000000000E+00 -0.45593999997E+02  0.45594000000E+02  0.51100000000E-03 0. -1.
    9900012    2    1    2    0    0  0.20926518922E+02 -0.10830401577E+01 -0.34843553968E+02  0.50528862979E+02  0.30000009511E+02 0.  0.
        -12    1    1    2    0    0 -0.20926518922E+02  0.10830401577E+01  0.34843553968E+02  0.40659137021E+02  0.00000000000E+00 0.  1.
         11    1    3    3    0    0  0.15224552899E+02 -0.79881001460E+01 -0.23790047356E+02  0.29352395275E+02  0.51100000000E-03 0. -1.
        -11    1    3    3    0    0  0.82615900184E+01 -0.10932176175E+01 -0.94980961669E+01  0.12635775617E+02  0.51100000000E-03 0.  1.
        -12    1    3    3    0    0 -0.25596239958E+01  0.79982776059E+01 -0.15554104451E+01  0.85406920863E+01  0.00000000000E+00 0.  1.
</event>
<event>
 7    1  0.5487071E-013  0.5052886E+02  0.7816164E-02  0.1300439E+00
        -11   -1    0    0    0    0  0.00000000000E+00  0.00000000000E+00  0.45593999997E+02  0.45594000000E+02  0.51100000000E-03 0.  1.
         11   -1    0    0    0    0 -0.00000000000E+00 -0.00000000000E+00 -0.45593999997E+02  0.45594000000E+02  0.51100000000E-03 0. -1.
    9900012    2    1    2    0    0 -0.45445010706E+01  0.27689770230E+02 -0.29424309864E+02  0.50528857407E+02  0.29999992575E+02 0.  0.
        -12    1    1    2    0    0  0.45445010706E+01 -0.27689770230E+02  0.29424309864E+02  0.40659142593E+02  0.00000000000E+00 0.  1.
         11    1    3    3    0    0  0.16620979176E+01  0.64271953608E+01 -0.11766462808E+02  0.13510035417E+02  0.51100000000E-03 0. -1.
        -11    1    3    3    0    0 -0.70154450334E+01  0.10781919448E+02 -0.22128638964E+02  0.25595759779E+02  0.51100000000E-03 0.  1.
        -12    1    3    3    0    0  0.80884604525E+00  0.10480655422E+02  0.44707919080E+01  0.11423062211E+02  0.00000000000E+00 0.  1.
</event>
<event>
 7    1  0.5487071E-013  0.5052885E+02  0.7816164E-02  0.1300439E+00
        -11   -1    0    0    0    0  0.00000000000E+00  0.00000000000E+00  0.45593999997E+02  0.45594000000E+02  0.51100000000E-03 0. -1.
         11   -1    0    0    0    0 -0.00000000000E+00 -0.00000000000E+00 -0.45593999997E+02  0.45594000000E+02  0.51100000000E-03 0.  1.
    9900012    2    1    2    0    0  0.23568086465E+01 -0.16113274947E+02  0.37255525743E+02  0.50528851277E+02  0.29999973941E+02 0.  0.
        -12    1    1    2    0    0 -0.23568086465E+01  0.16113274947E+02 -0.37255525743E+02  0.40659148723E+02  0.00000000000E+00 0.  1.
         11    1    3    3    0    0 -0.16422400431E+01  0.15810001337E+01 -0.32023654607E+01  0.39308597771E+01  0.51100000000E-03 0. -1.
        -11    1    3    3    0    0  0.42578966885E+01  0.63109278946E+00  0.44315892576E+01  0.61779402658E+01  0.51100000000E-03 0.  1.
         12    1    3    3    0    0 -0.25884799890E+00 -0.18325367870E+02  0.36026301946E+02  0.40420051234E+02  0.00000000000E+00 0. -1.
</event>
<event>
 7    1  0.5487071E-013  0.5052887E+02  0.7816164E-02  0.1300439E+00
        -11   -1    0    0    0    0  0.00000000000E+00  0.00000000000E+00  0.45593999997E+02  0.45594000000E+02  0.51100000000E-03 0.  1.
         11   -1    0    0    0    0 -0.00000000000E+00 -0.00000000000E+00 -0.45593999997E+02  0.45594000000E+02  0.51100000000E-03 0. -1.
    9900012    2    1    2    0    0  0.14700894839E+02  0.66458958944E+01 -0.37321316275E+02  0.50528869539E+02  0.30000029452E+02 0.  0.
        -12    1    1    2    0    0 -0.14700894839E+02 -0.66458958944E+01  0.37321316275E+02  0.40659130461E+02  0.00000000000E+00 0.  1.
         11    1    3    3    0    0 -0.24238139739E+00  0.83423273054E+01 -0.50164495363E+01  0.97374503760E+01  0.51100000000E-03 0. -1.
        -11    1    3    3    0    0 -0.17033636075E+01  0.10276215371E+01  0.18383847289E+01  0.27087104451E+01  0.51100000000E-03 0.  1.
         12    1    3    3    0    0  0.16646639844E+02 -0.27240529481E+01 -0.34143251468E+02  0.38082708718E+02  0.00000000000E+00 0. -1.
</event>
<event>
 7    1  0.5487071E-013  0.5052884E+02  0.7816164E-02  0.1300439E+00
        -11   -1    0    0    0    0  0.00000000000E+00  0.00000000000E+00  0.45593999997E+02  0.45594000000E+02  0.51100000000E-03 0.  1.
         11   -1    0    0    0    0 -0.00000000000E+00 -0.00000000000E+00 -0.45593999997E+02  0.45594000000E+02  0.51100000000E-03 0. -1.
    9900012    2    1    2    0    0 -0.15721495308E+02  0.32950935077E+01 -0.37351629875E+02  0.50528839774E+02  0.29999938977E+02 0.  0.
        -12    1    1    2    0    0  0.15721495308E+02 -0.32950935077E+01  0.37351629875E+02  0.40659160226E+02  0.00000000000E+00 0.  1.
         11    1    3    3    0    0  0.31836403003E+01  0.75653966120E+01 -0.31767162680E+01  0.88012679750E+01  0.51100000000E-03 0. -1.
        -11    1    3    3    0    0 -0.94871526374E+01  0.38796824681E+01 -0.90001922271E+01  0.13640434803E+02  0.51100000000E-03 0.  1.
        -12    1    3    3    0    0 -0.94179829710E+01 -0.81499855724E+01 -0.25174721380E+02  0.28087136996E+02  0.00000000000E+00 0.  1.
</event>
<event>
 7    1  0.5487071E-013  0.5052885E+02  0.7816164E-02  0.1300439E+00
        -11   -1    0    0    0    0  0.00000000000E+00  0.00000000000E+00  0.45593999997E+02  0.45594000000E+02  0.51100000000E-03 0. -1.
         11   -1    0    0    0    0 -0.00000000000E+00 -0.00000000000E+00 -0.45593999997E+02  0.45594000000E+02  0.51100000000E-03 0.  1.
    9900012    2    1    2    0    0 -0.30129410150E+02 -0.13446825034E+02  0.23760642824E+02  0.50528848424E+02  0.29999965270E+02 0.  0.
        -12    1    1    2    0    0  0.30129410150E+02  0.13446825034E+02 -0.23760642824E+02  0.40659151576E+02  0.00000000000E+00 0.  1.
         11    1    3    3    0    0 -0.77807344523E+01 -0.57737984533E+01  0.22841033037E+02  0.24811073489E+02  0.51100000000E-03 0. -1.
        -11    1    3    3    0    0 -0.11350207931E+02 -0.82816439163E+01  0.33350618597E+01  0.14440757733E+02  0.51100000000E-03 0.  1.
        -12    1    3    3    0    0 -0.10998467766E+02  0.60861733585E+00 -0.24154520729E+01  0.11277017202E+02  0.00000000000E+00 0.  1.
</event>
<event>
 7    1  0.5487071E-013  0.5052888E+02  0.7816164E-02  0.1300439E+00
        -11   -1    0    0    0    0  0.00000000000E+00  0.00000000000E+00  0.45593999997E+02  0.45594000000E+02  0.51100000000E-03 0.  1.
         11   -1    0    0    0    0 -0.00000000000E+00 -0.00000000000E+00 -0.45593999997E+02  0.45594000000E+02  0.51100000000E-03 0. -1.
    9900012    2    1    2    0    0  0.22979601903E+01  0.40571260291E+02  0.13625036506E+01  0.50528878037E+02  0.30000055281E+02 0.  0.
        -12    1    1    2    0    0 -0.22979601903E+01 -0.40571260291E+02 -0.13625036506E+01  0.40659121963E+02  0.00000000000E+00 0.  1.
         11    1    3    3    0    0  0.56375363457E+00  0.62552889240E+01 -0.72314309888E+01  0.95781027396E+01  0.51100000000E-03 0. -1.
        -11    1    3    3    0    0 -0.17408343742E+01 -0.25041391345E+01  0.83311057427E+00  0.31615329531E+01  0.51100000000E-03 0.  1.
         12    1    3    3    0    0  0.34750409300E+01  0.36820110501E+02  0.77608240652E+01  0.37789242344E+02  0.00000000000E+00 0. -1.
</event>
<event>
 7    1  0.5487071E-013  0.5052886E+02  0.7816164E-02  0.1300439E+00
        -11   -1    0    0    0    0  0.00000000000E+00  0.00000000000E+00  0.45593999997E+02  0.45594000000E+02  0.51100000000E-03 0.  1.
         11   -1    0    0    0    0 -0.00000000000E+00 -0.00000000000E+00 -0.45593999997E+02  0.45594000000E+02  0.51100000000E-03 0. -1.
    9900012    2    1    2    0    0 -0.18914971769E+02  0.12945874036E+02 -0.33582642854E+02  0.50528859421E+02  0.29999998696E+02 0.  0.
        -12    1    1    2    0    0  0.18914971769E+02 -0.12945874036E+02  0.33582642854E+02  0.40659140579E+02  0.00000000000E+00 0.  1.
         11    1    3    3    0    0  0.10510428310E+01  0.91008976129E+00 -0.36415195288E+00  0.14372060785E+01  0.51100000000E-03 0. -1.
        -11    1    3    3    0    0  0.59787621546E+01  0.77472631806E+01 -0.77466975969E+01  0.12481065965E+02  0.51100000000E-03 0.  1.
         12    1    3    3    0    0 -0.25944776754E+02  0.42885210937E+01 -0.25471793305E+02  0.36610587378E+02  0.00000000000E+00 0. -1.
</event>
<event>
 7    1  0.5487071E-013  0.5052885E+02  0.7816164E-02  0.1300439E+00
        -11   -1    0    0    0    0  0.00000000000E+00  0.00000000000E+00  0.45593999997E+02  0.45594000000E+02  0.51100000000E-03 0.  1.
         11   -1    0    0    0    0 -0.00000000000E+00 -0.00000000000E+00 -0.45593999997E+02  0.45594000000E+02  0.51100000000E-03 0. -1.
    9900012    2    1    2    0    0  0.20185466354E+02  0.28690958832E+02 -0.20555832216E+02  0.50528850861E+02  0.29999972677E+02 0.  0.
        -12    1    1    2    0    0 -0.20185466354E+02 -0.28690958832E+02  0.20555832216E+02  0.40659149139E+02  0.00000000000E+00 0.  1.
         11    1    3    3    0    0 -0.16521537266E+01  0.42633056298E+01 -0.48115356513E+01  0.66374891650E+01  0.51100000000E-03 0. -1.
        -11    1    3    3    0    0 -0.69656345811E+00  0.17327556688E+02 -0.64243961888E+01  0.18493303871E+02  0.51100000000E-03 0.  1.
         12    1    3    3    0    0  0.22534183539E+02  0.71000965139E+01 -0.93199003757E+01  0.25398057825E+02  0.00000000000E+00 0. -1.
</event>
<event>
 7    1  0.5487071E-013  0.5052884E+02  0.7816164E-02  0.1300439E+00
        -11   -1    0    0    0    0  0.00000000000E+00  0.00000000000E+00  0.45593999997E+02  0.45594000000E+02  0.51100000000E-03 0. -1.
         11   -1    0    0    0    0 -0.00000000000E+00 -0.00000000000E+00 -0.45593999997E+02  0.45594000000E+02  0.51100000000E-03 0.  1.
    9900012    2    1    2    0    0  0.23200702019E+02  0.29042039542E+02  0.16475871718E+02  0.50528843789E+02  0.29999951181E+02 0.  0.
        -12    1    1    2    0    0 -0.23200702019E+02 -0.29042039542E+02 -0.16475871718E+02  0.40659156211E+02  0.00000000000E+00 0.  1.
         11    1    3    3    0    0  0.15360770580E+02  0.93706273909E+00  0.92482041353E+01  0.17954404456E+02  0.51100000000E-03 0. -1.
        -11    1    3    3    0    0  0.40460422661E+00  0.13705775540E+02  0.88000870085E+01  0.16292744377E+02  0.51100000000E-03 0.  1.
        -12    1    3    3    0    0  0.74353272126E+01  0.14399201263E+02 -0.15724194263E+01  0.16281694955E+02  0.00000000000E+00 0.  1.
</event>
<event>
 7    1  0.5487071E-013  0.5052886E+02  0.7816164E-02  0.1300439E+00
        -11   -1    0    0    0    0  0.00000000000E+00  0.00000000000E+00  0.45593999997E+02  0.45594000000E+02  0.51100000000E-03 0. -1.
         11   -1    0    0    0    0 -0.00000000000E+00 -0.00000000000E+00 -0.45593999997E+02  0.45594000000E+02  0.51100000000E-03 0.  1.
    9900012    2    1    2    0    0 -0.40215653086E+02  0.51877307316E+01 -0.29924149566E+01  0.50528857725E+02  0.29999993542E+02 0.  0.
        -12    1    1    2    0    0  0.40215653086E+02 -0.51877307316E+01  0.29924149566E+01  0.40659142275E+02  0.00000000000E+00 0.  1.
         11    1    3    3    0    0  0.26058318150E+01  0.47434649800E+00  0.33165189955E+01  0.42443683342E+01  0.51100000000E-03 0.  1.
        -11    1    3    3    0    0 -0.31364944195E+01  0.34683674912E+01 -0.45751958632E+01  0.65421393859E+01  0.51100000000E-03 0. -1.
        -12    1    3    3    0    0 -0.39684990481E+02  0.12450167424E+01 -0.17337380889E+01  0.39742350005E+02  0.00000000000E+00 0.  1.
</event>
<event>
 7    1  0.5487071E-013  0.5052887E+02  0.7816164E-02  0.1300439E+00
        -11   -1    0    0    0    0  0.00000000000E+00  0.00000000000E+00  0.45593999997E+02  0.45594000000E+02  0.51100000000E-03 0. -1.
         11   -1    0    0    0    0 -0.00000000000E+00 -0.00000000000E+00 -0.45593999997E+02  0.45594000000E+02  0.51100000000E-03 0.  1.
    9900012    2    1    2    0    0 -0.38302599837E+01  0.29999611158E+02 -0.27175675328E+02  0.50528869528E+02  0.30000029418E+02 0.  0.
        -12    1    1    2    0    0  0.38302599837E+01 -0.29999611158E+02  0.27175675328E+02  0.40659130472E+02  0.00000000000E+00 0.  1.
         11    1    3    3    0    0 -0.12208183578E+02  0.82728762873E+01 -0.27677536187E+01  0.15004688890E+02  0.51100000000E-03 0.  1.
        -11    1    3    3    0    0  0.14160237812E+01  0.92280233077E+01 -0.30584026308E+01  0.98242233500E+01  0.51100000000E-03 0. -1.
         12    1    3    3    0    0  0.69618998126E+01  0.12498711563E+02 -0.21349519079E+02  0.25699957288E+02  0.00000000000E+00 0. -1.
</event>
<event>
 7    1  0.5487071E-013  0.5052886E+02  0.7816164E-02  0.1300439E+00
        -11   -1    0    0    0    0  0.00000000000E+00  0.00000000000E+00  0.45593999997E+02  0.45594000000E+02  0.51100000000E-03 0.  1.
         11   -1    0    0    0    0 -0.00000000000E+00 -0.00000000000E+00 -0.45593999997E+02  0.45594000000E+02  0.51100000000E-03 0. -1.
    9900012    2    1    2    0    0  0.44492736448E+01 -0.26161408083E+01 -0.40330202877E+02  0.50528862124E+02  0.30000006912E+02 0.  0.
        -12    1    1    2    0    0 -0.44492736448E+01  0.26161408083E+01  0.40330202877E+02  0.40659137876E+02  0.00000000000E+00 0.  1.
         11    1    3    3    0    0 -0.30263491971E+01 -0.47761147538E+00 -0.17690902450E+02  0.17954245513E+02  0.51100000000E-03 0. -1.
        -11    1    3    3    0    0 -0.23261728810E+01 -0.20937608543E+01  0.34778359799E+01  0.46787026141E+01  0.51100000000E-03 0.  1.
         12    1    3    3    0    0  0.98017957229E+01 -0.44768478593E-01 -0.26117136407E+02  0.27895913997E+02  0.00000000000E+00 0. -1.
</event>
<event>
 7    1  0.5487071E-013  0.5052885E+02  0.7816164E-02  0.1300439E+00
        -11   -1    0    0    0    0  0.00000000000E+00  0.00000000000E+00  0.45593999997E+02  0.45594000000E+02  0.51100000000E-03 0.  1.
         11   -1    0    0    0    0 -0.00000000000E+00 -0.00000000000E+00 -0.45593999997E+02  0.45594000000E+02  0.51100000000E-03 0. -1.
    9900012    2    1    2    0    0  0.32457701062E+02 -0.23432611501E+02 -0.71117644711E+01  0.50528845633E+02  0.29999956786E+02 0.  0.
        -12    1    1    2    0    0 -0.32457701062E+02  0.23432611501E+02  0.71117644711E+01  0.40659154367E+02  0.00000000000E+00 0.  1.
         11    1    3    3    0    0  0.55743636843E+01 -0.11729343867E+02  0.35767308957E+01  0.13470116636E+02  0.51100000000E-03 0.  1.
        -11    1    3    3    0    0  0.68030863850E+01 -0.13597937318E+02 -0.31576622146E+01  0.15529221313E+02  0.51100000000E-03 0. -1.
        -12    1    3    3    0    0  0.20080250992E+02  0.18946696843E+01 -0.75308331521E+01  0.21529507684E+02  0.00000000000E+00 0.  1.
</event>
<event>
 7    1  0.5487071E-013  0.5052887E+02  0.7816164E-02  0.1300439E+00
        -11   -1    0    0    0    0  0.00000000000E+00  0.00000000000E+00  0.45593999997E+02  0.45594000000E+02  0.51100000000E-03 0.  1.
         11   -1    0    0    0    0 -0.00000000000E+00 -0.00000000000E+00 -0.45593999997E+02  0.45594000000E+02  0.51100000000E-03 0. -1.
    9900012    2    1    2    0    0  0.38226690962E+02 -0.37251705040E+01 -0.13341966726E+02  0.50528869743E+02  0.30000030070E+02 0.  0.
        -12    1    1    2    0    0 -0.38226690962E+02  0.37251705040E+01  0.13341966726E+02  0.40659130257E+02  0.00000000000E+00 0.  1.
         11    1    3    3    0    0  0.32309835030E+00 -0.14851764696E+00 -0.14452253199E+01  0.14883301118E+01  0.51100000000E-03 0. -1.
        -11    1    3    3    0    0  0.16108034384E+02 -0.12753834791E+02 -0.14647190327E+02  0.25232305846E+02  0.51100000000E-03 0.  1.
        -12    1    3    3    0    0  0.21795558227E+02  0.91771819336E+01  0.27504489206E+01  0.23808233785E+02  0.00000000000E+00 0.  1.
</event>
<event>
 7    1  0.5487071E-013  0.5052886E+02  0.7816164E-02  0.1300439E+00
        -11   -1    0    0    0    0  0.00000000000E+00  0.00000000000E+00  0.45593999997E+02  0.45594000000E+02  0.51100000000E-03 0.  1.
         11   -1    0    0    0    0 -0.00000000000E+00 -0.00000000000E+00 -0.45593999997E+02  0.45594000000E+02  0.51100000000E-03 0. -1.
    9900012    2    1    2    0    0 -0.27405111867E+02  0.11383894904E+02 -0.27794467176E+02  0.50528860496E+02  0.30000001964E+02 0.  0.
        -12    1    1    2    0    0  0.27405111867E+02 -0.11383894904E+02  0.27794467176E+02  0.40659139504E+02  0.00000000000E+00 0.  1.
         11    1    3    3    0    0 -0.38893689876E+01  0.43289391280E+01 -0.84610936653E+01  0.10269226425E+02  0.51100000000E-03 0. -1.
        -11    1    3    3    0    0  0.61902240340E+00  0.10777528211E+02 -0.73318832617E+01  0.13049705571E+02  0.51100000000E-03 0.  1.
        -12    1    3    3    0    0 -0.24134765283E+02 -0.37225724343E+01 -0.12001490249E+02  0.27209928500E+02  0.00000000000E+00 0.  1.
</event>
<event>
 7    1  0.5487071E-013  0.5052887E+02  0.7816164E-02  0.1300439E+00
        -11   -1    0    0    0    0  0.00000000000E+00  0.00000000000E+00  0.45593999997E+02  0.45594000000E+02  0.51100000000E-03 0.  1.
         11   -1    0    0    0    0 -0.00000000000E+00 -0.00000000000E+00 -0.45593999997E+02  0.45594000000E+02  0.51100000000E-03 0. -1.
    9900012    2    1    2    0    0 -0.12680701307E+02  0.31459349020E+02 -0.22420396255E+02  0.50528868251E+02  0.30000025535E+02 0.  0.
        -12    1    1    2    0    0  0.12680701307E+02 -0.31459349020E+02  0.22420396255E+02  0.40659131749E+02  0.00000000000E+00 0.  1.
         11    1    3    3    0    0  0.48703392308E+01  0.19916056970E+02 -0.64652004910E+01  0.21498101011E+02  0.51100000000E-03 0.  1.
        -11    1    3    3    0    0 -0.15835842811E+01  0.62820394463E+01 -0.10504045408E+01  0.65631630134E+01  0.51100000000E-03 0. -1.
         12    1    3    3    0    0 -0.15967456256E+02  0.52612526037E+01 -0.14904791223E+02  0.22467604226E+02  0.00000000000E+00 0. -1.
</event>
<event>
 7    1  0.5487071E-013  0.5052886E+02  0.7816164E-02  0.1300439E+00
        -11   -1    0    0    0    0  0.00000000000E+00  0.00000000000E+00  0.45593999997E+02  0.45594000000E+02  0.51100000000E-03 0.  1.
         11   -1    0    0    0    0 -0.00000000000E+00 -0.00000000000E+00 -0.45593999997E+02  0.45594000000E+02  0.51100000000E-03 0. -1.
    9900012    2    1    2    0    0 -0.36129301860E+02 -0.86530688417E+01 -0.16521618854E+02  0.50528856590E+02  0.29999990092E+02 0.  0.
        -12    1    1    2    0    0  0.36129301860E+02  0.86530688417E+01  0.16521618854E+02  0.40659143410E+02  0.00000000000E+00 0.  1.
         11    1    3    3    0    0 -0.97503540090E+01  0.70021413293E+00 -0.99738219505E+01  0.13965558624E+02  0.51100000000E-03 0. -1.
        -11    1    3    3    0    0 -0.27712091947E+02 -0.35691238386E+01 -0.10023814686E+02  0.29684601162E+02  0.51100000000E-03 0.  1.
        -12    1    3    3    0    0  0.13331440963E+01 -0.57841591360E+01  0.34760177822E+01  0.68786968034E+01  0.00000000000E+00 0.  1.
</event>
<event>
 7    1  0.5487071E-013  0.5052886E+02  0.7816164E-02  0.1300439E+00
        -11   -1    0    0    0    0  0.00000000000E+00  0.00000000000E+00  0.45593999997E+02  0.45594000000E+02  0.51100000000E-03 0.  1.
         11   -1    0    0    0    0 -0.00000000000E+00 -0.00000000000E+00 -0.45593999997E+02  0.45594000000E+02  0.51100000000E-03 0. -1.
    9900012    2    1    2    0    0  0.15161452073E+02 -0.16141596712E+02 -0.34099043953E+02  0.50528861152E+02  0.30000003956E+02 0.  0.
        -12    1    1    2    0    0 -0.15161452073E+02  0.16141596712E+02  0.34099043953E+02  0.40659138848E+02  0.00000000000E+00 0.  1.
         11    1    3    3    0    0  0.76101288829E+01 -0.82459932038E+00  0.82414813253E+00  0.76989120048E+01  0.51100000000E-03 0. -1.
        -11    1    3    3    0    0  0.37270837047E+01  0.23646058249E+01 -0.12213746287E+01  0.45797674497E+01  0.51100000000E-03 0.  1.
         12    1    3    3    0    0  0.38242394856E+01 -0.17681603216E+02 -0.33701817457E+02  0.38250181697E+02  0.00000000000E+00 0. -1.
</event>
<event>
 7    1  0.5487071E-013  0.5052886E+02  0.7816164E-02  0.1300439E+00
        -11   -1    0    0    0    0  0.00000000000E+00  0.00000000000E+00  0.45593999997E+02  0.45594000000E+02  0.51100000000E-03 0. -1.
         11   -1    0    0    0    0 -0.00000000000E+00 -0.00000000000E+00 -0.45593999997E+02  0.45594000000E+02  0.51100000000E-03 0.  1.
    9900012    2    1    2    0    0 -0.23150163233E+02  0.10360345821E+01  0.33409016469E+02  0.50528858263E+02  0.29999995177E+02 0.  0.
        -12    1    1    2    0    0  0.23150163233E+02 -0.10360345821E+01 -0.33409016469E+02  0.40659141737E+02  0.00000000000E+00 0.  1.
         11    1    3    3    0    0 -0.32069456302E+01 -0.13837763905E+01  0.20658321867E+02  0.20951505913E+02  0.51100000000E-03 0.  1.
        -11    1    3    3    0    0 -0.14338944747E+02  0.64641750260E+01  0.15552815317E+02  0.22119696195E+02  0.51100000000E-03 0. -1.
         12    1    3    3    0    0 -0.56042728552E+01 -0.40443640533E+01 -0.28021207150E+01  0.74576561554E+01  0.00000000000E+00 0. -1.
</event>
<event>
 7    1  0.5487071E-013  0.5052887E+02  0.7816164E-02  0.1300439E+00
        -11   -1    0    0    0    0  0.00000000000E+00  0.00000000000E+00  0.45593999997E+02  0.45594000000E+02  0.51100000000E-03 0. -1.
         11   -1    0    0    0    0 -0.00000000000E+00 -0.00000000000E+00 -0.45593999997E+02  0.45594000000E+02  0.51100000000E-03 0.  1.
    9900012    2    1    2    0    0  0.96182218333E+00  0.90648757510E+01  0.39624076309E+02  0.50528874362E+02  0.30000044110E+02 0.  0.
        -12    1    1    2    0    0 -0.96182218333E+00 -0.90648757510E+01 -0.39624076309E+02  0.40659125638E+02  0.00000000000E+00 0.  1.
         11    1    3    3    0    0 -0.46062458163E+01  0.22349659894E+01  0.15051827708E+02  0.15898744954E+02  0.51100000000E-03 0. -1.
        -11    1    3    3    0    0  0.55942720621E+01  0.14910619440E+02  0.19112128409E+02  0.24877618548E+02  0.51100000000E-03 0.  1.
        -12    1    3    3    0    0 -0.26204062495E-01 -0.80807096788E+01  0.54601201917E+01  0.97525108600E+01  0.00000000000E+00 0.  1.
</event>
<event>
 7    1  0.5487071E-013  0.5052886E+02  0.7816164E-02  0.1300439E+00
        -11   -1    0    0    0    0  0.00000000000E+00  0.00000000000E+00  0.45593999997E+02  0.45594000000E+02  0.51100000000E-03 0.  1.
         11   -1    0    0    0    0 -0.00000000000E+00 -0.00000000000E+00 -0.45593999997E+02  0.45594000000E+02  0.51100000000E-03 0. -1.
    9900012    2    1    2    0    0  0.39872838089E+02  0.14216394349E+00 -0.79562558024E+01  0.50528862844E+02  0.30000009101E+02 0.  0.
        -12    1    1    2    0    0 -0.39872838089E+02 -0.14216394349E+00  0.79562558024E+01  0.40659137156E+02  0.00000000000E+00 0.  1.
         11    1    3    3    0    0  0.49393980841E+01 -0.69758015468E+01 -0.89624462878E+01  0.12384865941E+02  0.51100000000E-03 0. -1.
        -11    1    3    3    0    0  0.12948027960E+02 -0.36608503384E+01  0.21765901208E+01  0.13630509824E+02  0.51100000000E-03 0.  1.
         12    1    3    3    0    0  0.21985412045E+02  0.10778815829E+02 -0.11703996353E+01  0.24513487079E+02  0.00000000000E+00 0. -1.
</event>
<event>
 7    1  0.5487071E-013  0.5052886E+02  0.7816164E-02  0.1300439E+00
        -11   -1    0    0    0    0  0.00000000000E+00  0.00000000000E+00  0.45593999997E+02  0.45594000000E+02  0.51100000000E-03 0.  1.
         11   -1    0    0    0    0 -0.00000000000E+00 -0.00000000000E+00 -0.45593999997E+02  0.45594000000E+02  0.51100000000E-03 0. -1.
    9900012    2    1    2    0    0  0.28467867273E+02 -0.25730385371E+02 -0.13442220230E+02  0.50528862243E+02  0.30000007274E+02 0.  0.
        -12    1    1    2    0    0 -0.28467867273E+02  0.25730385371E+02  0.13442220230E+02  0.40659137757E+02  0.00000000000E+00 0.  1.
         11    1    3    3    0    0  0.20021019051E+01  0.51061098137E+01 -0.10052575647E+01  0.55759584378E+01  0.51100000000E-03 0. -1.
        -11    1    3    3    0    0 -0.17150477410E+01 -0.55221668865E+00 -0.19817033518E+00  0.18126234490E+01  0.51100000000E-03 0.  1.
         12    1    3    3    0    0  0.28180813109E+02 -0.30284278496E+02 -0.12238792330E+02  0.43140280356E+02  0.00000000000E+00 0. -1.
</event>
<event>
 7    1  0.5487071E-013  0.5052887E+02  0.7816164E-02  0.1300439E+00
        -11   -1    0    0    0    0  0.00000000000E+00  0.00000000000E+00  0.45593999997E+02  0.45594000000E+02  0.51100000000E-03 0.  1.
         11   -1    0    0    0    0 -0.00000000000E+00 -0.00000000000E+00 -0.45593999997E+02  0.45594000000E+02  0.51100000000E-03 0. -1.
    9900012    2    1    2    0    0 -0.31067558921E+02  0.37680461177E+01  0.25957154099E+02  0.50528865261E+02  0.30000016447E+02 0.  0.
        -12    1    1    2    0    0  0.31067558921E+02 -0.37680461177E+01 -0.25957154099E+02  0.40659134739E+02  0.00000000000E+00 0.  1.
         11    1    3    3    0    0 -0.75847420818E+01  0.94172550292E+00 -0.30843633395E+01  0.82418721685E+01  0.51100000000E-03 0. -1.
        -11    1    3    3    0    0  0.13750416521E+01 -0.23154290011E+01  0.10532933217E+02  0.10871735529E+02  0.51100000000E-03 0.  1.
        -12    1    3    3    0    0 -0.24857858491E+02  0.51417496159E+01  0.18508584221E+02  0.31415257563E+02  0.00000000000E+00 0.  1.
</event>
<event>
 7    1  0.5487071E-013  0.5052885E+02  0.7816164E-02  0.1300439E+00
        -11   -1    0    0    0    0  0.00000000000E+00  0.00000000000E+00  0.45593999997E+02  0.45594000000E+02  0.51100000000E-03 0. -1.
         11   -1    0    0    0    0 -0.00000000000E+00 -0.00000000000E+00 -0.45593999997E+02  0.45594000000E+02  0.51100000000E-03 0.  1.
    9900012    2    1    2    0    0 -0.81196585434E+01 -0.50894278160E+01  0.39513734360E+02  0.50528851786E+02  0.29999975490E+02 0.  0.
        -12    1    1    2    0    0  0.81196585434E+01  0.50894278160E+01 -0.39513734360E+02  0.40659148214E+02  0.00000000000E+00 0.  1.
         11    1    3    3    0    0  0.95463416198E+00 -0.27503304992E+01 -0.28922796748E+01  0.41037697567E+01  0.51100000000E-03 0. -1.
        -11    1    3    3    0    0 -0.59792240467E+01 -0.94211277591E+01  0.24395766266E+02  0.26826520095E+02  0.51100000000E-03 0.  1.
         12    1    3    3    0    0 -0.30950686587E+01  0.70820304422E+01  0.18010247769E+02  0.19598561934E+02  0.00000000000E+00 0. -1.
</event>
<event>
 7    1  0.5487071E-013  0.5052887E+02  0.7816164E-02  0.1300439E+00
        -11   -1    0    0    0    0  0.00000000000E+00  0.00000000000E+00  0.45593999997E+02  0.45594000000E+02  0.51100000000E-03 0.  1.
         11   -1    0    0    0    0 -0.00000000000E+00 -0.00000000000E+00 -0.45593999997E+02  0.45594000000E+02  0.51100000000E-03 0. -1.
    9900012    2    1    2    0    0 -0.11527586335E+02 -0.54659873418E+00 -0.38986936132E+02  0.50528865653E+02  0.30000017639E+02 0.  0.
        -12    1    1    2    0    0  0.11527586335E+02  0.54659873418E+00  0.38986936132E+02  0.40659134347E+02  0.00000000000E+00 0.  1.
         11    1    3    3    0    0  0.29016405657E+01 -0.40097280764E+01 -0.56938097638E+01  0.75443294670E+01  0.51100000000E-03 0. -1.
        -11    1    3    3    0    0  0.20639352174E+01  0.67788754182E+00  0.25983224931E+01  0.33868333499E+01  0.51100000000E-03 0.  1.
        -12    1    3    3    0    0 -0.16493162118E+02  0.27852418004E+01 -0.35891448861E+02  0.39597702836E+02  0.00000000000E+00 0.  1.
</event>
<event>
 7    1  0.5487071E-013  0.5052879E+02  0.7816164E-02  0.1300439E+00
        -11   -1    0    0    0    0  0.00000000000E+00  0.00000000000E+00  0.45593999997E+02  0.45594000000E+02  0.51100000000E-03 0. -1.
         11   -1    0    0    0    0 -0.00000000000E+00 -0.00000000000E+00 -0.45593999997E+02  0.45594000000E+02  0.51100000000E-03 0.  1.
    9900012    2    1    2    0    0 -0.14039583993E+02  0.26067271317E+02 -0.27866803267E+02  0.50528790995E+02  0.29999790707E+02 0.  0.
        -12    1    1    2    0    0  0.14039583993E+02 -0.26067271317E+02  0.27866803267E+02  0.40659209005E+02  0.00000000000E+00 0.  1.
         11    1    3    3    0    0 -0.61779170594E+01 -0.37130203304E+01 -0.29713171536E+01  0.77962750757E+01  0.51100000000E-03 0. -1.
        -11    1    3    3    0    0 -0.23782069653E+01  0.78905133120E+00  0.16853784632E+01  0.30197634342E+01  0.51100000000E-03 0.  1.
         12    1    3    3    0    0 -0.54834599681E+01  0.28991240316E+02 -0.26580864577E+02  0.39712752485E+02  0.00000000000E+00 0. -1.
</event>
<event>
 7    1  0.5487071E-013  0.5052886E+02  0.7816164E-02  0.1300439E+00
        -11   -1    0    0    0    0  0.00000000000E+00  0.00000000000E+00  0.45593999997E+02  0.45594000000E+02  0.51100000000E-03 0. -1.
         11   -1    0    0    0    0 -0.00000000000E+00 -0.00000000000E+00 -0.45593999997E+02  0.45594000000E+02  0.51100000000E-03 0.  1.
    9900012    2    1    2    0    0  0.36009064925E+02 -0.18637571397E+02  0.30255135595E+01  0.50528861339E+02  0.30000004527E+02 0.  0.
        -12    1    1    2    0    0 -0.36009064925E+02  0.18637571397E+02 -0.30255135595E+01  0.40659138661E+02  0.00000000000E+00 0.  1.
         11    1    3    3    0    0  0.20639117431E+02 -0.13867998589E+02  0.11591969359E+02  0.27434801022E+02  0.51100000000E-03 0. -1.
        -11    1    3    3    0    0  0.44190126716E+01 -0.64017085779E+01  0.17361956408E+01  0.79701895381E+01  0.51100000000E-03 0.  1.
        -12    1    3    3    0    0  0.10950934822E+02  0.16321357699E+01 -0.10302651441E+02  0.15123870779E+02  0.00000000000E+00 0.  1.
</event>
<event>
 7    1  0.5487071E-013  0.5052886E+02  0.7816164E-02  0.1300439E+00
        -11   -1    0    0    0    0  0.00000000000E+00  0.00000000000E+00  0.45593999997E+02  0.45594000000E+02  0.51100000000E-03 0. -1.
         11   -1    0    0    0    0 -0.00000000000E+00 -0.00000000000E+00 -0.45593999997E+02  0.45594000000E+02  0.51100000000E-03 0.  1.
    9900012    2    1    2    0    0 -0.10816589659E+02  0.38935279353E+02  0.44956774323E+01  0.50528859506E+02  0.29999998955E+02 0.  0.
        -12    1    1    2    0    0  0.10816589659E+02 -0.38935279353E+02 -0.44956774323E+01  0.40659140494E+02  0.00000000000E+00 0.  1.
         11    1    3    3    0    0 -0.14648071293E+01  0.17450307416E+01 -0.32827337432E+00  0.23018592234E+01  0.51100000000E-03 0. -1.
        -11    1    3    3    0    0 -0.13070558661E+02  0.33484033417E+02  0.13241660170E+02  0.38306155666E+02  0.51100000000E-03 0.  1.
        -12    1    3    3    0    0  0.37187761313E+01  0.37062151940E+01 -0.84177093637E+01  0.99208446168E+01  0.00000000000E+00 0.  1.
</event>
<event>
 7    1  0.5487071E-013  0.5052886E+02  0.7816164E-02  0.1300439E+00
        -11   -1    0    0    0    0  0.00000000000E+00  0.00000000000E+00  0.45593999997E+02  0.45594000000E+02  0.51100000000E-03 0.  1.
         11   -1    0    0    0    0 -0.00000000000E+00 -0.00000000000E+00 -0.45593999997E+02  0.45594000000E+02  0.51100000000E-03 0. -1.
    9900012    2    1    2    0    0 -0.37528123248E+02 -0.41444172314E+00 -0.15640785788E+02  0.50528856176E+02  0.29999988832E+02 0.  0.
        -12    1    1    2    0    0  0.37528123248E+02  0.41444172314E+00  0.15640785788E+02  0.40659143824E+02  0.00000000000E+00 0.  1.
         11    1    3    3    0    0  0.19113463086E+01 -0.12214521241E+01  0.10398038662E+01  0.24952719981E+01  0.51100000000E-03 0. -1.
        -11    1    3    3    0    0  0.27905070437E+01  0.19183194899E-01 -0.72679883740E+00  0.28836668266E+01  0.51100000000E-03 0.  1.
         12    1    3    3    0    0 -0.42229976600E+02  0.78782720608E+00 -0.15953790817E+02  0.45149917351E+02  0.00000000000E+00 0. -1.
</event>
<event>
 7    1  0.5487071E-013  0.5052886E+02  0.7816164E-02  0.1300439E+00
        -11   -1    0    0    0    0  0.00000000000E+00  0.00000000000E+00  0.45593999997E+02  0.45594000000E+02  0.51100000000E-03 0.  1.
         11   -1    0    0    0    0 -0.00000000000E+00 -0.00000000000E+00 -0.45593999997E+02  0.45594000000E+02  0.51100000000E-03 0. -1.
    9900012    2    1    2    0    0 -0.19707295881E+02 -0.33773316135E+02 -0.11142313474E+02  0.50528861504E+02  0.30000005028E+02 0.  0.
        -12    1    1    2    0    0  0.19707295881E+02  0.33773316135E+02  0.11142313474E+02  0.40659138496E+02  0.00000000000E+00 0.  1.
         11    1    3    3    0    0  0.65201343541E+00  0.11921811986E+01  0.34461297063E+01  0.37043525404E+01  0.51100000000E-03 0. -1.
        -11    1    3    3    0    0 -0.62471767891E+00  0.19808179946E+01 -0.24554865835E+01  0.32161042783E+01  0.51100000000E-03 0.  1.
         12    1    3    3    0    0 -0.19734591637E+02 -0.36946315328E+02 -0.12132956597E+02  0.43608404685E+02  0.00000000000E+00 0. -1.
</event>
<event>
 7    1  0.5487071E-013  0.5052886E+02  0.7816164E-02  0.1300439E+00
        -11   -1    0    0    0    0  0.00000000000E+00  0.00000000000E+00  0.45593999997E+02  0.45594000000E+02  0.51100000000E-03 0. -1.
         11   -1    0    0    0    0 -0.00000000000E+00 -0.00000000000E+00 -0.45593999997E+02  0.45594000000E+02  0.51100000000E-03 0.  1.
    9900012    2    1    2    0    0  0.22278513643E+02 -0.52716424279E+01  0.33601241092E+02  0.50528858507E+02  0.29999995918E+02 0.  0.
        -12    1    1    2    0    0 -0.22278513643E+02  0.52716424279E+01 -0.33601241092E+02  0.40659141493E+02  0.00000000000E+00 0.  1.
         11    1    3    3    0    0  0.14477876057E+01 -0.42441617880E+01 -0.69234532735E+00  0.45374376632E+01  0.51100000000E-03 0. -1.
        -11    1    3    3    0    0  0.23292118106E+02  0.42241029584E+01  0.21642894685E+02  0.32074611491E+02  0.51100000000E-03 0.  1.
         12    1    3    3    0    0 -0.24613920692E+01 -0.52515835983E+01  0.12650691734E+02  0.13916809353E+02  0.00000000000E+00 0. -1.
</event>
<event>
 7    1  0.5487071E-013  0.5052886E+02  0.7816164E-02  0.1300439E+00
        -11   -1    0    0    0    0  0.00000000000E+00  0.00000000000E+00  0.45593999997E+02  0.45594000000E+02  0.51100000000E-03 0.  1.
         11   -1    0    0    0    0 -0.00000000000E+00 -0.00000000000E+00 -0.45593999997E+02  0.45594000000E+02  0.51100000000E-03 0. -1.
    9900012    2    1    2    0    0  0.24909728043E+02  0.27163514589E+02 -0.17170171641E+02  0.50528857483E+02  0.29999992806E+02 0.  0.
        -12    1    1    2    0    0 -0.24909728043E+02 -0.27163514589E+02  0.17170171641E+02  0.40659142517E+02  0.00000000000E+00 0.  1.
         11    1    3    3    0    0  0.95002388937E+01 -0.87885310469E+00 -0.28698876136E+01  0.99630907350E+01  0.51100000000E-03 0. -1.
        -11    1    3    3    0    0  0.12221919507E+02  0.11904270782E+02  0.22761824290E+01  0.17212436957E+02  0.51100000000E-03 0.  1.
         12    1    3    3    0    0  0.31875696421E+01  0.16138096912E+02 -0.16576466456E+02  0.23353329791E+02  0.00000000000E+00 0. -1.
</event>
<event>
 7    1  0.5487071E-013  0.5052886E+02  0.7816164E-02  0.1300439E+00
        -11   -1    0    0    0    0  0.00000000000E+00  0.00000000000E+00  0.45593999997E+02  0.45594000000E+02  0.51100000000E-03 0.  1.
         11   -1    0    0    0    0 -0.00000000000E+00 -0.00000000000E+00 -0.45593999997E+02  0.45594000000E+02  0.51100000000E-03 0. -1.
    9900012    2    1    2    0    0 -0.17137197105E+01 -0.13971615229E+01 -0.40598973577E+02  0.50528861408E+02  0.30000004736E+02 0.  0.
        -12    1    1    2    0    0  0.17137197105E+01  0.13971615229E+01  0.40598973577E+02  0.40659138592E+02  0.00000000000E+00 0.  1.
         11    1    3    3    0    0  0.18988447062E+01  0.57513595905E+01 -0.37825731695E+01  0.71408408750E+01  0.51100000000E-03 0. -1.
        -11    1    3    3    0    0  0.42215280432E+01  0.17339077026E+01  0.15454738240E+00  0.45663574209E+01  0.51100000000E-03 0.  1.
         12    1    3    3    0    0 -0.78340924599E+01 -0.88824288161E+01 -0.36970947789E+02  0.38821663112E+02  0.00000000000E+00 0. -1.
</event>
<event>
 7    1  0.5487071E-013  0.5052886E+02  0.7816164E-02  0.1300439E+00
        -11   -1    0    0    0    0  0.00000000000E+00  0.00000000000E+00  0.45593999997E+02  0.45594000000E+02  0.51100000000E-03 0. -1.
         11   -1    0    0    0    0 -0.00000000000E+00 -0.00000000000E+00 -0.45593999997E+02  0.45594000000E+02  0.51100000000E-03 0.  1.
    9900012    2    1    2    0    0  0.40139785024E+02  0.17605516072E+00  0.64755484065E+01  0.50528855095E+02  0.29999985548E+02 0.  0.
        -12    1    1    2    0    0 -0.40139785024E+02 -0.17605516072E+00 -0.64755484065E+01  0.40659144905E+02  0.00000000000E+00 0.  1.
         11    1    3    3    0    0  0.18678322446E+02  0.13255325127E+01 -0.49453243620E+00  0.18731826618E+02  0.51100000000E-03 0. -1.
        -11    1    3    3    0    0  0.33720424008E+01  0.92551001526E+01  0.17991577597E+00  0.98518992451E+01  0.51100000000E-03 0.  1.
        -12    1    3    3    0    0  0.18089420177E+02 -0.10404577505E+02  0.67901650667E+01  0.21945129232E+02  0.00000000000E+00 0.  1.
</event>
<event>
 7    1  0.5487071E-013  0.5052885E+02  0.7816164E-02  0.1300439E+00
        -11   -1    0    0    0    0  0.00000000000E+00  0.00000000000E+00  0.45593999997E+02  0.45594000000E+02  0.51100000000E-03 0.  1.
         11   -1    0    0    0    0 -0.00000000000E+00 -0.00000000000E+00 -0.45593999997E+02  0.45594000000E+02  0.51100000000E-03 0. -1.
    9900012    2    1    2    0    0  0.29395140570E+02 -0.23824860067E+02 -0.14881796525E+02  0.50528854484E+02  0.29999983688E+02 0.  0.
        -12    1    1    2    0    0 -0.29395140570E+02  0.23824860067E+02  0.14881796525E+02  0.40659145516E+02  0.00000000000E+00 0.  1.
         11    1    3    3    0    0  0.19218550728E+02 -0.12555647916E+02 -0.17628761796E+02  0.28944260733E+02  0.51100000000E-03 0. -1.
        -11    1    3    3    0    0  0.13148411715E+02 -0.95998098634E+01  0.55201427007E+01  0.17190376835E+02  0.51100000000E-03 0.  1.
        -12    1    3    3    0    0 -0.29718218730E+01 -0.16694022873E+01 -0.27731774292E+01  0.43942169149E+01  0.00000000000E+00 0.  1.
</event>
<event>
 7    1  0.5487071E-013  0.5052886E+02  0.7816164E-02  0.1300439E+00
        -11   -1    0    0    0    0  0.00000000000E+00  0.00000000000E+00  0.45593999997E+02  0.45594000000E+02  0.51100000000E-03 0. -1.
         11   -1    0    0    0    0 -0.00000000000E+00 -0.00000000000E+00 -0.45593999997E+02  0.45594000000E+02  0.51100000000E-03 0.  1.
    9900012    2    1    2    0    0  0.16638978911E+02 -0.35304739872E+01  0.36930278530E+02  0.50528864027E+02  0.30000012695E+02 0.  0.
        -12    1    1    2    0    0 -0.16638978911E+02  0.35304739872E+01 -0.36930278530E+02  0.40659135973E+02  0.00000000000E+00 0.  1.
         11    1    3    3    0    0  0.10383729148E+02  0.10124611963E+02  0.21854265384E+02  0.26228582008E+02  0.51100000000E-03 0. -1.
        -11    1    3    3    0    0  0.14329111806E+01  0.15391541914E+01  0.50449365405E+01  0.54656760822E+01  0.51100000000E-03 0.  1.
        -12    1    3    3    0    0  0.48223385824E+01 -0.15194240142E+02  0.10031076605E+02  0.18834605936E+02  0.00000000000E+00 0.  1.
</event>
<event>
 7    1  0.5487071E-013  0.5052886E+02  0.7816164E-02  0.1300439E+00
        -11   -1    0    0    0    0  0.00000000000E+00  0.00000000000E+00  0.45593999997E+02  0.45594000000E+02  0.51100000000E-03 0. -1.
         11   -1    0    0    0    0 -0.00000000000E+00 -0.00000000000E+00 -0.45593999997E+02  0.45594000000E+02  0.51100000000E-03 0.  1.
    9900012    2    1    2    0    0  0.23223212353E+02  0.23279819781E+02  0.23914389912E+02  0.50528860242E+02  0.30000001190E+02 0.  0.
        -12    1    1    2    0    0 -0.23223212353E+02 -0.23279819781E+02 -0.23914389912E+02  0.40659139758E+02  0.00000000000E+00 0.  1.
         11    1    3    3    0    0  0.60678999712E+01  0.14272789932E+02  0.73280492522E+01  0.17153199369E+02  0.51100000000E-03 0. -1.
        -11    1    3    3    0    0  0.21092237233E+01  0.11478439780E+02  0.13452281966E+02  0.17809191303E+02  0.51100000000E-03 0.  1.
        -12    1    3    3    0    0  0.15046088658E+02 -0.24714099313E+01  0.31340586941E+01  0.15566469569E+02  0.00000000000E+00 0.  1.
</event>
<event>
 7    1  0.5487071E-013  0.5052886E+02  0.7816164E-02  0.1300439E+00
        -11   -1    0    0    0    0  0.00000000000E+00  0.00000000000E+00  0.45593999997E+02  0.45594000000E+02  0.51100000000E-03 0.  1.
         11   -1    0    0    0    0 -0.00000000000E+00 -0.00000000000E+00 -0.45593999997E+02  0.45594000000E+02  0.51100000000E-03 0. -1.
    9900012    2    1    2    0    0 -0.34610266482E+02  0.37543244884E+01 -0.21004764174E+02  0.50528860606E+02  0.30000002297E+02 0.  0.
        -12    1    1    2    0    0  0.34610266482E+02 -0.37543244884E+01  0.21004764174E+02  0.40659139394E+02  0.00000000000E+00 0.  1.
         11    1    3    3    0    0 -0.10627659955E+02 -0.43792500200E+01 -0.11294844361E+02  0.16115163550E+02  0.51100000000E-03 0. -1.
        -11    1    3    3    0    0 -0.21191158079E+02  0.44985514172E+01 -0.15784590330E+02  0.26804019059E+02  0.51100000000E-03 0.  1.
        -12    1    3    3    0    0 -0.27914484478E+01  0.36350230912E+01  0.60746705173E+01  0.76096779961E+01  0.00000000000E+00 0.  1.
</event>
<event>
 7    1  0.5487071E-013  0.5052886E+02  0.7816164E-02  0.1300439E+00
        -11   -1    0    0    0    0  0.00000000000E+00  0.00000000000E+00  0.45593999997E+02  0.45594000000E+02  0.51100000000E-03 0.  1.
         11   -1    0    0    0    0 -0.00000000000E+00 -0.00000000000E+00 -0.45593999997E+02  0.45594000000E+02  0.51100000000E-03 0. -1.
    9900012    2    1    2    0    0  0.40524518928E+02  0.24621085713E+01 -0.22061564020E+01  0.50528859096E+02  0.29999997708E+02 0.  0.
        -12    1    1    2    0    0 -0.40524518928E+02 -0.24621085713E+01  0.22061564020E+01  0.40659140904E+02  0.00000000000E+00 0.  1.
         11    1    3    3    0    0  0.46424958012E+01  0.71677369890E+01  0.14331356150E+01  0.86592781893E+01  0.51100000000E-03 0. -1.
        -11    1    3    3    0    0  0.20942903028E+02  0.44381673434E+01 -0.94702969091E+01  0.23409165735E+02  0.51100000000E-03 0.  1.
        -12    1    3    3    0    0  0.14939120099E+02 -0.91437957611E+01  0.58310048921E+01  0.18460415172E+02  0.00000000000E+00 0.  1.
</event>
<event>
 7    1  0.5487071E-013  0.5052887E+02  0.7816164E-02  0.1300439E+00
        -11   -1    0    0    0    0  0.00000000000E+00  0.00000000000E+00  0.45593999997E+02  0.45594000000E+02  0.51100000000E-03 0. -1.
         11   -1    0    0    0    0 -0.00000000000E+00 -0.00000000000E+00 -0.45593999997E+02  0.45594000000E+02  0.51100000000E-03 0.  1.
    9900012    2    1    2    0    0  0.28711483914E+02  0.27379369457E+02  0.88986475792E+01  0.50528866842E+02  0.30000021254E+02 0.  0.
        -12    1    1    2    0    0 -0.28711483914E+02 -0.27379369457E+02 -0.88986475792E+01  0.40659133158E+02  0.00000000000E+00 0.  1.
         11    1    3    3    0    0 -0.49570111206E+01  0.37884914415E+01 -0.65273797239E+00  0.62730131335E+01  0.51100000000E-03 0. -1.
        -11    1    3    3    0    0  0.10626697209E+02  0.69768574786E+00  0.35446836461E+01  0.11224002913E+02  0.51100000000E-03 0.  1.
        -12    1    3    3    0    0  0.23041797825E+02  0.22893192268E+02  0.60067019055E+01  0.33031850796E+02  0.00000000000E+00 0.  1.
</event>
<event>
 7    1  0.5487071E-013  0.5052886E+02  0.7816164E-02  0.1300439E+00
        -11   -1    0    0    0    0  0.00000000000E+00  0.00000000000E+00  0.45593999997E+02  0.45594000000E+02  0.51100000000E-03 0.  1.
         11   -1    0    0    0    0 -0.00000000000E+00 -0.00000000000E+00 -0.45593999997E+02  0.45594000000E+02  0.51100000000E-03 0. -1.
    9900012    2    1    2    0    0 -0.19684329316E+02 -0.14801415239E+02 -0.32351371269E+02  0.50528856666E+02  0.29999990321E+02 0.  0.
        -12    1    1    2    0    0  0.19684329316E+02  0.14801415239E+02  0.32351371269E+02  0.40659143334E+02  0.00000000000E+00 0.  1.
         11    1    3    3    0    0  0.11802500895E+00  0.30183957592E+01 -0.19891294923E+01  0.36168051178E+01  0.51100000000E-03 0. -1.
        -11    1    3    3    0    0 -0.28116131575E+01 -0.91314485331E+01 -0.25482359760E+02  0.27214686845E+02  0.51100000000E-03 0.  1.
        -12    1    3    3    0    0 -0.16990741167E+02 -0.86883624654E+01 -0.48798820163E+01  0.19697364703E+02  0.00000000000E+00 0.  1.
</event>
<event>
 7    1  0.5487071E-013  0.5052886E+02  0.7816164E-02  0.1300439E+00
        -11   -1    0    0    0    0  0.00000000000E+00  0.00000000000E+00  0.45593999997E+02  0.45594000000E+02  0.51100000000E-03 0.  1.
         11   -1    0    0    0    0 -0.00000000000E+00 -0.00000000000E+00 -0.45593999997E+02  0.45594000000E+02  0.51100000000E-03 0. -1.
    9900012    2    1    2    0    0  0.38238666547E+01  0.32512531571E+02 -0.24113874675E+02  0.50528860594E+02  0.30000002262E+02 0.  0.
        -12    1    1    2    0    0 -0.38238666547E+01 -0.32512531571E+02  0.24113874675E+02  0.40659139406E+02  0.00000000000E+00 0.  1.
         11    1    3    3    0    0 -0.25041259000E+01  0.92178249640E+01  0.12558913067E+01  0.96341168160E+01  0.51100000000E-03 0. -1.
        -11    1    3    3    0    0  0.92390002636E-01  0.11034318291E+02  0.10746485538E+01  0.11086910563E+02  0.51100000000E-03 0.  1.
         12    1    3    3    0    0  0.62356025521E+01  0.12260388317E+02 -0.26444414535E+02  0.29807833215E+02  0.00000000000E+00 0. -1.
</event>
<event>
 7    1  0.5487071E-013  0.5052887E+02  0.7816164E-02  0.1300439E+00
        -11   -1    0    0    0    0  0.00000000000E+00  0.00000000000E+00  0.45593999997E+02  0.45594000000E+02  0.51100000000E-03 0.  1.
         11   -1    0    0    0    0 -0.00000000000E+00 -0.00000000000E+00 -0.45593999997E+02  0.45594000000E+02  0.51100000000E-03 0. -1.
    9900012    2    1    2    0    0 -0.67940866862E+01 -0.20091355510E+02 -0.34689232170E+02  0.50528868078E+02  0.30000025009E+02 0.  0.
        -12    1    1    2    0    0  0.67940866862E+01  0.20091355510E+02  0.34689232170E+02  0.40659131922E+02  0.00000000000E+00 0.  1.
         11    1    3    3    0    0 -0.71050845019E+01 -0.32566006068E+01 -0.27682738129E+02  0.28764938099E+02  0.51100000000E-03 0. -1.
        -11    1    3    3    0    0  0.50759543780E+00  0.16056058496E+01 -0.20792783561E+01  0.26756348809E+01  0.51100000000E-03 0.  1.
        -12    1    3    3    0    0 -0.19659762208E+00 -0.18440360753E+02 -0.49272156855E+01  0.19088295097E+02  0.00000000000E+00 0.  1.
</event>
<event>
 7    1  0.5487071E-013  0.5052886E+02  0.7816164E-02  0.1300439E+00
        -11   -1    0    0    0    0  0.00000000000E+00  0.00000000000E+00  0.45593999997E+02  0.45594000000E+02  0.51100000000E-03 0.  1.
         11   -1    0    0    0    0 -0.00000000000E+00 -0.00000000000E+00 -0.45593999997E+02  0.45594000000E+02  0.51100000000E-03 0. -1.
    9900012    2    1    2    0    0  0.24209510326E+02  0.16392212898E+02 -0.28255281833E+02  0.50528856067E+02  0.29999988501E+02 0.  0.
        -12    1    1    2    0    0 -0.24209510326E+02 -0.16392212898E+02  0.28255281833E+02  0.40659143933E+02  0.00000000000E+00 0.  1.
         11    1    3    3    0    0  0.46386034333E+01  0.12566322472E+02 -0.15722936623E+02  0.20655261766E+02  0.51100000000E-03 0. -1.
        -11    1    3    3    0    0  0.18866138570E+01 -0.57642777814E+01  0.19504779656E+00  0.60682991102E+01  0.51100000000E-03 0.  1.
         12    1    3    3    0    0  0.17684293035E+02  0.95901682070E+01 -0.12727393006E+02  0.23805295191E+02  0.00000000000E+00 0. -1.
</event>
<event>
 7    1  0.5487071E-013  0.5052886E+02  0.7816164E-02  0.1300439E+00
        -11   -1    0    0    0    0  0.00000000000E+00  0.00000000000E+00  0.45593999997E+02  0.45594000000E+02  0.51100000000E-03 0.  1.
         11   -1    0    0    0    0 -0.00000000000E+00 -0.00000000000E+00 -0.45593999997E+02  0.45594000000E+02  0.51100000000E-03 0. -1.
    9900012    2    1    2    0    0 -0.15025765186E+02 -0.23583052057E+02 -0.29516639374E+02  0.50528856334E+02  0.29999989312E+02 0.  0.
        -12    1    1    2    0    0  0.15025765186E+02  0.23583052057E+02  0.29516639374E+02  0.40659143666E+02  0.00000000000E+00 0.  1.
         11    1    3    3    0    0 -0.12102546398E+02 -0.12009440435E+02 -0.15742661706E+02  0.23206242409E+02  0.51100000000E-03 0. -1.
        -11    1    3    3    0    0 -0.80637158914E+01 -0.10783936075E+02 -0.96717960433E+00  0.13500082515E+02  0.51100000000E-03 0.  1.
         12    1    3    3    0    0  0.51404971038E+01 -0.78967554703E+00 -0.12806798064E+02  0.13822531410E+02  0.00000000000E+00 0. -1.
</event>
<event>
 7    1  0.5487071E-013  0.5052886E+02  0.7816164E-02  0.1300439E+00
        -11   -1    0    0    0    0  0.00000000000E+00  0.00000000000E+00  0.45593999997E+02  0.45594000000E+02  0.51100000000E-03 0.  1.
         11   -1    0    0    0    0 -0.00000000000E+00 -0.00000000000E+00 -0.45593999997E+02  0.45594000000E+02  0.51100000000E-03 0. -1.
    9900012    2    1    2    0    0  0.29581503577E+02  0.24012802342E+02  0.14194565597E+02  0.50528859297E+02  0.29999998320E+02 0.  0.
        -12    1    1    2    0    0 -0.29581503577E+02 -0.24012802342E+02 -0.14194565597E+02  0.40659140703E+02  0.00000000000E+00 0.  1.
         11    1    3    3    0    0  0.43060203911E+01  0.13320929754E+02 -0.27913786863E+01  0.14275180431E+02  0.51100000000E-03 0. -1.
        -11    1    3    3    0    0  0.17774053202E+02  0.10014911343E+02  0.33482059959E+01  0.20674281126E+02  0.51100000000E-03 0.  1.
        -12    1    3    3    0    0  0.75014299848E+01  0.67696124530E+00  0.13637738288E+02  0.15579397740E+02  0.00000000000E+00 0.  1.
</event>
<event>
 7    1  0.5487071E-013  0.5052888E+02  0.7816164E-02  0.1300439E+00
        -11   -1    0    0    0    0  0.00000000000E+00  0.00000000000E+00  0.45593999997E+02  0.45594000000E+02  0.51100000000E-03 0.  1.
         11   -1    0    0    0    0 -0.00000000000E+00 -0.00000000000E+00 -0.45593999997E+02  0.45594000000E+02  0.51100000000E-03 0. -1.
    9900012    2    1    2    0    0  0.27783719910E+02 -0.23636076975E+02 -0.17960083115E+02  0.50528882790E+02  0.30000069728E+02 0.  0.
        -12    1    1    2    0    0 -0.27783719910E+02  0.23636076975E+02  0.17960083115E+02  0.40659117210E+02  0.00000000000E+00 0.  1.
         11    1    3    3    0    0  0.10814908126E+02 -0.68178812896E-01 -0.10568949361E+02  0.15121824526E+02  0.51100000000E-03 0. -1.
        -11    1    3    3    0    0  0.62224774949E+00  0.31865961486E+01 -0.11080988562E+01  0.34306662053E+01  0.51100000000E-03 0.  1.
         12    1    3    3    0    0  0.16346564034E+02 -0.26754494311E+02 -0.62830348978E+01  0.31976392058E+02  0.00000000000E+00 0. -1.
</event>
<event>
 7    1  0.5487071E-013  0.5052888E+02  0.7816164E-02  0.1300439E+00
        -11   -1    0    0    0    0  0.00000000000E+00  0.00000000000E+00  0.45593999997E+02  0.45594000000E+02  0.51100000000E-03 0. -1.
         11   -1    0    0    0    0 -0.00000000000E+00 -0.00000000000E+00 -0.45593999997E+02  0.45594000000E+02  0.51100000000E-03 0.  1.
    9900012    2    1    2    0    0  0.10975157938E+02  0.36356749835E+02  0.14522283729E+02  0.50528879559E+02  0.30000059907E+02 0.  0.
        -12    1    1    2    0    0 -0.10975157938E+02 -0.36356749835E+02 -0.14522283729E+02  0.40659120441E+02  0.00000000000E+00 0.  1.
         11    1    3    3    0    0 -0.35756556533E+01  0.26841582803E+01  0.45111086031E+01  0.63513872591E+01  0.51100000000E-03 0. -1.
        -11    1    3    3    0    0 -0.27057293983E+01  0.85321741832E+01 -0.49319986269E+01  0.10219764116E+02  0.51100000000E-03 0.  1.
         12    1    3    3    0    0  0.17256542990E+02  0.25140417372E+02  0.14943173753E+02  0.33957728184E+02  0.00000000000E+00 0. -1.
</event>
<event>
 7    1  0.5487071E-013  0.5052887E+02  0.7816164E-02  0.1300439E+00
        -11   -1    0    0    0    0  0.00000000000E+00  0.00000000000E+00  0.45593999997E+02  0.45594000000E+02  0.51100000000E-03 0.  1.
         11   -1    0    0    0    0 -0.00000000000E+00 -0.00000000000E+00 -0.45593999997E+02  0.45594000000E+02  0.51100000000E-03 0. -1.
    9900012    2    1    2    0    0 -0.37320610671E+01 -0.37274100524E+02 -0.15807531421E+02  0.50528869422E+02  0.30000029096E+02 0.  0.
        -12    1    1    2    0    0  0.37320610671E+01  0.37274100524E+02  0.15807531421E+02  0.40659130578E+02  0.00000000000E+00 0.  1.
         11    1    3    3    0    0  0.17903557068E+00  0.19464139330E+01 -0.27571351745E+01  0.33797005142E+01  0.51100000000E-03 0. -1.
        -11    1    3    3    0    0 -0.73739349961E+01 -0.19962056419E+01 -0.42512453007E+01  0.87425877839E+01  0.51100000000E-03 0.  1.
        -12    1    3    3    0    0  0.34628383583E+01 -0.37224308816E+02 -0.87991509457E+01  0.38406581124E+02  0.00000000000E+00 0.  1.
</event>
<event>
 7    1  0.5487071E-013  0.5052885E+02  0.7816164E-02  0.1300439E+00
        -11   -1    0    0    0    0  0.00000000000E+00  0.00000000000E+00  0.45593999997E+02  0.45594000000E+02  0.51100000000E-03 0.  1.
         11   -1    0    0    0    0 -0.00000000000E+00 -0.00000000000E+00 -0.45593999997E+02  0.45594000000E+02  0.51100000000E-03 0. -1.
    9900012    2    1    2    0    0 -0.30551723837E+02 -0.23104118767E+02 -0.13636667269E+02  0.50528845710E+02  0.29999957020E+02 0.  0.
        -12    1    1    2    0    0  0.30551723837E+02  0.23104118767E+02  0.13636667269E+02  0.40659154290E+02  0.00000000000E+00 0.  1.
         11    1    3    3    0    0 -0.60402536386E+01 -0.73650737086E+01 -0.13307210565E+02  0.16364926766E+02  0.51100000000E-03 0. -1.
        -11    1    3    3    0    0  0.48588767310E+00  0.27454045784E+01  0.12038239498E+01  0.30368611251E+01  0.51100000000E-03 0.  1.
         12    1    3    3    0    0 -0.24997357871E+02 -0.18484449637E+02 -0.15332806530E+01  0.31127057819E+02  0.00000000000E+00 0. -1.
</event>
<event>
 7    1  0.5487071E-013  0.5052887E+02  0.7816164E-02  0.1300439E+00
        -11   -1    0    0    0    0  0.00000000000E+00  0.00000000000E+00  0.45593999997E+02  0.45594000000E+02  0.51100000000E-03 0.  1.
         11   -1    0    0    0    0 -0.00000000000E+00 -0.00000000000E+00 -0.45593999997E+02  0.45594000000E+02  0.51100000000E-03 0. -1.
    9900012    2    1    2    0    0  0.33889078295E+02 -0.45217936017E+01 -0.22005648905E+02  0.50528870289E+02  0.30000031731E+02 0.  0.
        -12    1    1    2    0    0 -0.33889078295E+02  0.45217936017E+01  0.22005648905E+02  0.40659129711E+02  0.00000000000E+00 0.  1.
         11    1    3    3    0    0  0.40491031795E+01  0.10747208401E+01 -0.44360620820E+01  0.61015496802E+01  0.51100000000E-03 0. -1.
        -11    1    3    3    0    0  0.10747246721E+02  0.67813845175E+01  0.37463212472E+01  0.13248600349E+02  0.51100000000E-03 0.  1.
        -12    1    3    3    0    0  0.19092728395E+02 -0.12377898959E+02 -0.21315908070E+02  0.31178720261E+02  0.00000000000E+00 0.  1.
</event>
<event>
 7    1  0.5487071E-013  0.5052895E+02  0.7816164E-02  0.1300438E+00
        -11   -1    0    0    0    0  0.00000000000E+00  0.00000000000E+00  0.45593999997E+02  0.45594000000E+02  0.51100000000E-03 0.  1.
         11   -1    0    0    0    0 -0.00000000000E+00 -0.00000000000E+00 -0.45593999997E+02  0.45594000000E+02  0.51100000000E-03 0. -1.
    9900012    2    1    2    0    0  0.37442983845E+02 -0.88602774283E+01 -0.13140666331E+02  0.50528946064E+02  0.30000262056E+02 0.  0.
        -12    1    1    2    0    0 -0.37442983845E+02  0.88602774283E+01  0.13140666331E+02  0.40659053936E+02  0.00000000000E+00 0.  1.
         11    1    3    3    0    0 -0.17245640286E+01 -0.13778397646E+01  0.75863621317E+00  0.23341149652E+01  0.51100000000E-03 0.  1.
        -11    1    3    3    0    0  0.32096170949E+02  0.18387214638E+01 -0.31433514933E+01  0.32302101248E+02  0.51100000000E-03 0. -1.
         12    1    3    3    0    0  0.70713769249E+01 -0.93211591275E+01 -0.10755951051E+02  0.15892729851E+02  0.00000000000E+00 0. -1.
</event>
<event>
 7    1  0.5487071E-013  0.5052886E+02  0.7816164E-02  0.1300439E+00
        -11   -1    0    0    0    0  0.00000000000E+00  0.00000000000E+00  0.45593999997E+02  0.45594000000E+02  0.51100000000E-03 0.  1.
         11   -1    0    0    0    0 -0.00000000000E+00 -0.00000000000E+00 -0.45593999997E+02  0.45594000000E+02  0.51100000000E-03 0. -1.
    9900012    2    1    2    0    0 -0.16683504491E+02 -0.39256075623E+01 -0.36870257141E+02  0.50528861070E+02  0.30000003709E+02 0.  0.
        -12    1    1    2    0    0  0.16683504491E+02  0.39256075623E+01  0.36870257141E+02  0.40659138930E+02  0.00000000000E+00 0.  1.
         11    1    3    3    0    0 -0.60315860410E+01 -0.30772583131E+01 -0.15587491059E+02  0.16994688189E+02  0.51100000000E-03 0. -1.
        -11    1    3    3    0    0 -0.92874587694E+01 -0.11046611460E+02 -0.17229824546E+02  0.22475572724E+02  0.51100000000E-03 0.  1.
        -12    1    3    3    0    0 -0.13644596809E+01  0.10198262210E+02 -0.40529415371E+01  0.11058600157E+02  0.00000000000E+00 0.  1.
</event>
<event>
 7    1  0.5487071E-013  0.5052886E+02  0.7816164E-02  0.1300439E+00
        -11   -1    0    0    0    0  0.00000000000E+00  0.00000000000E+00  0.45593999997E+02  0.45594000000E+02  0.51100000000E-03 0.  1.
         11   -1    0    0    0    0 -0.00000000000E+00 -0.00000000000E+00 -0.45593999997E+02  0.45594000000E+02  0.51100000000E-03 0. -1.
    9900012    2    1    2    0    0  0.29926530760E+02 -0.13177549981E+02 -0.24164451908E+02  0.50528858312E+02  0.29999995325E+02 0.  0.
        -12    1    1    2    0    0 -0.29926530760E+02  0.13177549981E+02  0.24164451908E+02  0.40659141688E+02  0.00000000000E+00 0.  1.
         11    1    3    3    0    0  0.14395443729E+02  0.23658314499E+01 -0.25590976266E+01  0.14811311203E+02  0.51100000000E-03 0. -1.
        -11    1    3    3    0    0  0.11097981724E+02  0.71420345735E+00 -0.54953784188E+01  0.12404614833E+02  0.51100000000E-03 0.  1.
         12    1    3    3    0    0  0.44331053067E+01 -0.16257584888E+02 -0.16109975862E+02  0.23312932277E+02  0.00000000000E+00 0. -1.
</event>
<event>
 7    1  0.5487071E-013  0.5052885E+02  0.7816164E-02  0.1300439E+00
        -11   -1    0    0    0    0  0.00000000000E+00  0.00000000000E+00  0.45593999997E+02  0.45594000000E+02  0.51100000000E-03 0.  1.
         11   -1    0    0    0    0 -0.00000000000E+00 -0.00000000000E+00 -0.45593999997E+02  0.45594000000E+02  0.51100000000E-03 0. -1.
    9900012    2    1    2    0    0  0.15880148497E+02  0.23334989286E+02 -0.29265428930E+02  0.50528853775E+02  0.29999981535E+02 0.  0.
        -12    1    1    2    0    0 -0.15880148497E+02 -0.23334989286E+02  0.29265428930E+02  0.40659146225E+02  0.00000000000E+00 0.  1.
         11    1    3    3    0    0  0.37795155125E+01  0.14462270757E+02 -0.33693991815E+01  0.15323017459E+02  0.51100000000E-03 0. -1.
        -11    1    3    3    0    0  0.22262429608E+01  0.10614430312E+02 -0.48239643088E+01  0.11869832370E+02  0.51100000000E-03 0.  1.
         12    1    3    3    0    0  0.98743900237E+01 -0.17417117830E+01 -0.21072065440E+02  0.23336003946E+02  0.00000000000E+00 0. -1.
</event>
<event>
 7    1  0.5487071E-013  0.5052886E+02  0.7816164E-02  0.1300439E+00
        -11   -1    0    0    0    0  0.00000000000E+00  0.00000000000E+00  0.45593999997E+02  0.45594000000E+02  0.51100000000E-03 0.  1.
         11   -1    0    0    0    0 -0.00000000000E+00 -0.00000000000E+00 -0.45593999997E+02  0.45594000000E+02  0.51100000000E-03 0. -1.
    9900012    2    1    2    0    0  0.28417111817E+02 -0.14195476022E+01 -0.29045104156E+02  0.50528862837E+02  0.30000009079E+02 0.  0.
        -12    1    1    2    0    0 -0.28417111817E+02  0.14195476022E+01  0.29045104156E+02  0.40659137163E+02  0.00000000000E+00 0.  1.
         11    1    3    3    0    0  0.54738713190E+01 -0.20866434387E+01 -0.18375672467E+02  0.19286852696E+02  0.51100000000E-03 0. -1.
        -11    1    3    3    0    0 -0.46828783419E+00 -0.47805605520E+01  0.31571120468E+00  0.48138058242E+01  0.51100000000E-03 0.  1.
        -12    1    3    3    0    0  0.23411528332E+02  0.54476563885E+01 -0.10985142894E+02  0.26428204316E+02  0.00000000000E+00 0.  1.
</event>
<event>
 7    1  0.5487071E-013  0.5052887E+02  0.7816164E-02  0.1300439E+00
        -11   -1    0    0    0    0  0.00000000000E+00  0.00000000000E+00  0.45593999997E+02  0.45594000000E+02  0.51100000000E-03 0.  1.
         11   -1    0    0    0    0 -0.00000000000E+00 -0.00000000000E+00 -0.45593999997E+02  0.45594000000E+02  0.51100000000E-03 0. -1.
    9900012    2    1    2    0    0  0.14236067893E+02 -0.13697777372E+02 -0.35536880170E+02  0.50528873273E+02  0.30000040800E+02 0.  0.
        -12    1    1    2    0    0 -0.14236067893E+02  0.13697777372E+02  0.35536880170E+02  0.40659126727E+02  0.00000000000E+00 0.  1.
         11    1    3    3    0    0  0.60365555655E+01  0.18650903579E+01 -0.12250756521E+02  0.13784034269E+02  0.51100000000E-03 0. -1.
        -11    1    3    3    0    0  0.13364645892E+02 -0.19887430160E+01 -0.14260951574E+02  0.19645447276E+02  0.51100000000E-03 0.  1.
        -12    1    3    3    0    0 -0.51651335647E+01 -0.13574124714E+02 -0.90251720754E+01  0.17099391728E+02  0.00000000000E+00 0.  1.
</event>
<event>
 7    1  0.5487071E-013  0.5052884E+02  0.7816164E-02  0.1300439E+00
        -11   -1    0    0    0    0  0.00000000000E+00  0.00000000000E+00  0.45593999997E+02  0.45594000000E+02  0.51100000000E-03 0.  1.
         11   -1    0    0    0    0 -0.00000000000E+00 -0.00000000000E+00 -0.45593999997E+02  0.45594000000E+02  0.51100000000E-03 0. -1.
    9900012    2    1    2    0    0  0.29706675663E+02 -0.22054569752E+01 -0.27673389471E+02  0.50528842308E+02  0.29999946679E+02 0.  0.
        -12    1    1    2    0    0 -0.29706675663E+02  0.22054569752E+01  0.27673389471E+02  0.40659157692E+02  0.00000000000E+00 0.  1.
         11    1    3    3    0    0  0.71806104287E+01 -0.94959625275E+01 -0.10025140370E+02  0.15563994030E+02  0.51100000000E-03 0. -1.
        -11    1    3    3    0    0  0.61547141341E+01 -0.57026199803E+01 -0.14339658930E+01  0.85121465657E+01  0.51100000000E-03 0.  1.
         12    1    3    3    0    0  0.16371351100E+02  0.12993125533E+02 -0.16214283208E+02  0.26452701712E+02  0.00000000000E+00 0. -1.
</event>
<event>
 7    1  0.5487071E-013  0.5052882E+02  0.7816164E-02  0.1300439E+00
        -11   -1    0    0    0    0  0.00000000000E+00  0.00000000000E+00  0.45593999997E+02  0.45594000000E+02  0.51100000000E-03 0. -1.
         11   -1    0    0    0    0 -0.00000000000E+00 -0.00000000000E+00 -0.45593999997E+02  0.45594000000E+02  0.51100000000E-03 0.  1.
    9900012    2    1    2    0    0 -0.99838712171E+01  0.36371621288E+02  0.15185392318E+02  0.50528823183E+02  0.29999888548E+02 0.  0.
        -12    1    1    2    0    0  0.99838712171E+01 -0.36371621288E+02 -0.15185392318E+02  0.40659176817E+02  0.00000000000E+00 0.  1.
         11    1    3    3    0    0 -0.96306488976E+01  0.90063273832E+00 -0.12019691753E+01  0.97470645672E+01  0.51100000000E-03 0. -1.
        -11    1    3    3    0    0 -0.40395250676E+01  0.59534053658E+01  0.91748966279E+00  0.72527640086E+01  0.51100000000E-03 0.  1.
        -12    1    3    3    0    0  0.36863027481E+01  0.29517583184E+02  0.15469871830E+02  0.33528994607E+02  0.00000000000E+00 0.  1.
</event>
<event>
 7    1  0.5487071E-013  0.5052888E+02  0.7816164E-02  0.1300439E+00
        -11   -1    0    0    0    0  0.00000000000E+00  0.00000000000E+00  0.45593999997E+02  0.45594000000E+02  0.51100000000E-03 0.  1.
         11   -1    0    0    0    0 -0.00000000000E+00 -0.00000000000E+00 -0.45593999997E+02  0.45594000000E+02  0.51100000000E-03 0. -1.
    9900012    2    1    2    0    0 -0.40433578571E+02  0.34165731860E+01 -0.25722881762E+01  0.50528881529E+02  0.30000065896E+02 0.  0.
        -12    1    1    2    0    0  0.40433578571E+02 -0.34165731860E+01  0.25722881762E+01  0.40659118471E+02  0.00000000000E+00 0.  1.
         11    1    3    3    0    0 -0.31462804487E+02  0.59779090051E+01  0.83327446395E+01  0.33091964217E+02  0.51100000000E-03 0. -1.
        -11    1    3    3    0    0 -0.50078887397E+01 -0.28435541597E+01  0.75890001186E-01  0.57593844673E+01  0.51100000000E-03 0.  1.
         12    1    3    3    0    0 -0.39628853443E+01  0.28221834055E+00 -0.10980922817E+02  0.11677532845E+02  0.00000000000E+00 0. -1.
</event>
<event>
 7    1  0.5487071E-013  0.5052886E+02  0.7816164E-02  0.1300439E+00
        -11   -1    0    0    0    0  0.00000000000E+00  0.00000000000E+00  0.45593999997E+02  0.45594000000E+02  0.51100000000E-03 0. -1.
         11   -1    0    0    0    0 -0.00000000000E+00 -0.00000000000E+00 -0.45593999997E+02  0.45594000000E+02  0.51100000000E-03 0.  1.
    9900012    2    1    2    0    0 -0.75814316703E+01 -0.83647600358E-01  0.39945971671E+02  0.50528858889E+02  0.29999997081E+02 0.  0.
        -12    1    1    2    0    0  0.75814316703E+01  0.83647600358E-01 -0.39945971671E+02  0.40659141111E+02  0.00000000000E+00 0.  1.
         11    1    3    3    0    0 -0.24340442504E+01  0.35306356705E+01  0.14042349454E+00  0.42906501453E+01  0.51100000000E-03 0. -1.
        -11    1    3    3    0    0  0.62839021650E+01 -0.17844336270E+00  0.20059484994E+01  0.65987194285E+01  0.51100000000E-03 0.  1.
         12    1    3    3    0    0 -0.11431289585E+02 -0.34358399081E+01  0.37799599677E+02  0.39639489316E+02  0.00000000000E+00 0. -1.
</event>
<event>
 7    1  0.5487071E-013  0.5052886E+02  0.7816164E-02  0.1300439E+00
        -11   -1    0    0    0    0  0.00000000000E+00  0.00000000000E+00  0.45593999997E+02  0.45594000000E+02  0.51100000000E-03 0.  1.
         11   -1    0    0    0    0 -0.00000000000E+00 -0.00000000000E+00 -0.45593999997E+02  0.45594000000E+02  0.51100000000E-03 0. -1.
    9900012    2    1    2    0    0  0.21307396653E+02  0.33149042391E+02 -0.10015065030E+02  0.50528859686E+02  0.29999999501E+02 0.  0.
        -12    1    1    2    0    0 -0.21307396653E+02 -0.33149042391E+02  0.10015065030E+02  0.40659140314E+02  0.00000000000E+00 0.  1.
         11    1    3    3    0    0  0.13050703368E+02  0.10011821521E+02  0.15284121539E+01  0.16519487660E+02  0.51100000000E-03 0. -1.
        -11    1    3    3    0    0  0.40071527397E+01  0.22463436201E+02 -0.12493329535E+01  0.22852222477E+02  0.51100000000E-03 0.  1.
        -12    1    3    3    0    0  0.42495405445E+01  0.67378466783E+00 -0.10294144230E+02  0.11157149548E+02  0.00000000000E+00 0.  1.
</event>
<event>
 7    1  0.5487071E-013  0.5052888E+02  0.7816164E-02  0.1300439E+00
        -11   -1    0    0    0    0  0.00000000000E+00  0.00000000000E+00  0.45593999997E+02  0.45594000000E+02  0.51100000000E-03 0. -1.
         11   -1    0    0    0    0 -0.00000000000E+00 -0.00000000000E+00 -0.45593999997E+02  0.45594000000E+02  0.51100000000E-03 0.  1.
    9900012    2    1    2    0    0 -0.25163891763E+02 -0.22802526426E+02  0.22360390591E+02  0.50528883833E+02  0.30000072900E+02 0.  0.
        -12    1    1    2    0    0  0.25163891763E+02  0.22802526426E+02 -0.22360390591E+02  0.40659116167E+02  0.00000000000E+00 0.  1.
         11    1    3    3    0    0 -0.32288226026E+01 -0.13254006134E+02  0.41073905276E+00  0.13647808646E+02  0.51100000000E-03 0. -1.
        -11    1    3    3    0    0  0.29512751392E+01 -0.19425592284E+01  0.17755238178E+01  0.39542440987E+01  0.51100000000E-03 0.  1.
         12    1    3    3    0    0 -0.24886344299E+02 -0.76059610639E+01  0.20174127720E+02  0.32926831089E+02  0.00000000000E+00 0. -1.
</event>
<event>
 7    1  0.5487071E-013  0.5052889E+02  0.7816164E-02  0.1300439E+00
        -11   -1    0    0    0    0  0.00000000000E+00  0.00000000000E+00  0.45593999997E+02  0.45594000000E+02  0.51100000000E-03 0. -1.
         11   -1    0    0    0    0 -0.00000000000E+00 -0.00000000000E+00 -0.45593999997E+02  0.45594000000E+02  0.51100000000E-03 0.  1.
    9900012    2    1    2    0    0 -0.23883396358E+01  0.39591982142E+02  0.89406000102E+01  0.50528886081E+02  0.30000079731E+02 0.  0.
        -12    1    1    2    0    0  0.23883396358E+01 -0.39591982142E+02 -0.89406000102E+01  0.40659113919E+02  0.00000000000E+00 0.  1.
         11    1    3    3    0    0  0.22867277205E+01  0.27927277797E+01 -0.31954150820E+01  0.48206980746E+01  0.51100000000E-03 0. -1.
        -11    1    3    3    0    0  0.59836970770E+01  0.13750764544E+02 -0.41261778995E+01  0.15553568741E+02  0.51100000000E-03 0.  1.
         12    1    3    3    0    0 -0.10658764433E+02  0.23048489818E+02  0.16262192992E+02  0.30154619266E+02  0.00000000000E+00 0. -1.
</event>
<event>
 7    1  0.5487071E-013  0.5052886E+02  0.7816164E-02  0.1300439E+00
        -11   -1    0    0    0    0  0.00000000000E+00  0.00000000000E+00  0.45593999997E+02  0.45594000000E+02  0.51100000000E-03 0.  1.
         11   -1    0    0    0    0 -0.00000000000E+00 -0.00000000000E+00 -0.45593999997E+02  0.45594000000E+02  0.51100000000E-03 0. -1.
    9900012    2    1    2    0    0  0.35796666486E+02  0.12806124124E+02 -0.14414139212E+02  0.50528861350E+02  0.30000004559E+02 0.  0.
        -12    1    1    2    0    0 -0.35796666486E+02 -0.12806124124E+02  0.14414139212E+02  0.40659138650E+02  0.00000000000E+00 0.  1.
         11    1    3    3    0    0  0.21652807861E-01 -0.55109024364E-01 -0.13068391621E-01  0.60637386447E-01  0.51100000000E-03 0. -1.
        -11    1    3    3    0    0 -0.13313034044E+01 -0.57374088018E+01 -0.54136387703E+01  0.79998570931E+01  0.51100000000E-03 0.  1.
         12    1    3    3    0    0  0.37106317082E+02  0.18598641950E+02 -0.89874320499E+01  0.42468366870E+02  0.00000000000E+00 0. -1.
</event>
<event>
 7    1  0.5487071E-013  0.5052886E+02  0.7816164E-02  0.1300439E+00
        -11   -1    0    0    0    0  0.00000000000E+00  0.00000000000E+00  0.45593999997E+02  0.45594000000E+02  0.51100000000E-03 0.  1.
         11   -1    0    0    0    0 -0.00000000000E+00 -0.00000000000E+00 -0.45593999997E+02  0.45594000000E+02  0.51100000000E-03 0. -1.
    9900012    2    1    2    0    0  0.12446361595E+02 -0.37629184486E+02  0.90718391537E+01  0.50528859482E+02  0.29999998881E+02 0.  0.
        -12    1    1    2    0    0 -0.12446361595E+02  0.37629184486E+02 -0.90718391537E+01  0.40659140518E+02  0.00000000000E+00 0.  1.
         11    1    3    3    0    0  0.53791930756E+01 -0.14486857285E+02 -0.41837793731E+01  0.16009645912E+02  0.51100000000E-03 0. -1.
        -11    1    3    3    0    0  0.43554171660E+01 -0.26800676174E+02  0.12545193678E+02  0.29910329098E+02  0.51100000000E-03 0.  1.
         12    1    3    3    0    0  0.27117513538E+01  0.36583489724E+01  0.71042484879E+00  0.46088844718E+01  0.00000000000E+00 0. -1.
</event>
<event>
 7    1  0.5487071E-013  0.5052885E+02  0.7816164E-02  0.1300439E+00
        -11   -1    0    0    0    0  0.00000000000E+00  0.00000000000E+00  0.45593999997E+02  0.45594000000E+02  0.51100000000E-03 0. -1.
         11   -1    0    0    0    0 -0.00000000000E+00 -0.00000000000E+00 -0.45593999997E+02  0.45594000000E+02  0.51100000000E-03 0.  1.
    9900012    2    1    2    0    0 -0.22548645110E+02  0.16704442680E+02  0.29422547484E+02  0.50528854633E+02  0.29999984142E+02 0.  0.
        -12    1    1    2    0    0  0.22548645110E+02 -0.16704442680E+02 -0.29422547484E+02  0.40659145367E+02  0.00000000000E+00 0.  1.
         11    1    3    3    0    0 -0.14459047226E+02  0.98964082260E+01  0.78125648746E+01  0.19184345510E+02  0.51100000000E-03 0. -1.
        -11    1    3    3    0    0 -0.12309154235E+02  0.87253625056E+01  0.82344788670E+01  0.17188771664E+02  0.51100000000E-03 0.  1.
        -12    1    3    3    0    0  0.42195563508E+01 -0.19173280520E+01  0.13375503742E+02  0.14155737459E+02  0.00000000000E+00 0.  1.
</event>
<event>
 7    1  0.5487071E-013  0.5052888E+02  0.7816164E-02  0.1300439E+00
        -11   -1    0    0    0    0  0.00000000000E+00  0.00000000000E+00  0.45593999997E+02  0.45594000000E+02  0.51100000000E-03 0. -1.
         11   -1    0    0    0    0 -0.00000000000E+00 -0.00000000000E+00 -0.45593999997E+02  0.45594000000E+02  0.51100000000E-03 0.  1.
    9900012    2    1    2    0    0  0.13088215080E+02 -0.29230756732E+02  0.25048464548E+02  0.50528879384E+02  0.30000059375E+02 0.  0.
        -12    1    1    2    0    0 -0.13088215080E+02  0.29230756732E+02 -0.25048464548E+02  0.40659120616E+02  0.00000000000E+00 0.  1.
         11    1    3    3    0    0  0.50272882158E+00 -0.41016318602E+01  0.22901661818E+01  0.47245086079E+01  0.51100000000E-03 0. -1.
        -11    1    3    3    0    0  0.51672771442E-01  0.19483160741E+01  0.14794373512E+02  0.14922201361E+02  0.51100000000E-03 0.  1.
        -12    1    3    3    0    0  0.12533813487E+02 -0.27077440946E+02  0.79639248541E+01  0.30882169415E+02  0.00000000000E+00 0.  1.
</event>
<event>
 7    1  0.5487071E-013  0.5052889E+02  0.7816164E-02  0.1300439E+00
        -11   -1    0    0    0    0  0.00000000000E+00  0.00000000000E+00  0.45593999997E+02  0.45594000000E+02  0.51100000000E-03 0. -1.
         11   -1    0    0    0    0 -0.00000000000E+00 -0.00000000000E+00 -0.45593999997E+02  0.45594000000E+02  0.51100000000E-03 0.  1.
    9900012    2    1    2    0    0  0.30573914636E+02 -0.26723400149E+02  0.20636455522E+01  0.50528892722E+02  0.30000099918E+02 0.  0.
        -12    1    1    2    0    0 -0.30573914636E+02  0.26723400149E+02 -0.20636455522E+01  0.40659107278E+02  0.00000000000E+00 0.  1.
         11    1    3    3    0    0  0.11231978020E+02 -0.24392561508E+01 -0.24337883971E+01  0.11748643626E+02  0.51100000000E-03 0. -1.
        -11    1    3    3    0    0  0.19446085980E+02 -0.67414374456E+01 -0.33365722818E+00  0.20584182427E+02  0.51100000000E-03 0.  1.
        -12    1    3    3    0    0 -0.10414936452E+00 -0.17542706552E+02  0.48310911774E+01  0.18196066670E+02  0.00000000000E+00 0.  1.
</event>
<event>
 7    1  0.5487071E-013  0.5052884E+02  0.7816164E-02  0.1300439E+00
        -11   -1    0    0    0    0  0.00000000000E+00  0.00000000000E+00  0.45593999997E+02  0.45594000000E+02  0.51100000000E-03 0.  1.
         11   -1    0    0    0    0 -0.00000000000E+00 -0.00000000000E+00 -0.45593999997E+02  0.45594000000E+02  0.51100000000E-03 0. -1.
    9900012    2    1    2    0    0  0.12410787601E+02  0.37478999327E+02 -0.97192551239E+01  0.50528844087E+02  0.29999952086E+02 0.  0.
        -12    1    1    2    0    0 -0.12410787601E+02 -0.37478999327E+02  0.97192551239E+01  0.40659155913E+02  0.00000000000E+00 0.  1.
         11    1    3    3    0    0 -0.12497677572E+00  0.43171916022E+01 -0.13052780326E+02  0.13748775837E+02  0.51100000000E-03 0. -1.
        -11    1    3    3    0    0  0.78130959355E+01  0.14000886649E+02 -0.24412043187E+01  0.16218161852E+02  0.51100000000E-03 0.  1.
        -12    1    3    3    0    0  0.47226684409E+01  0.19160921076E+02  0.57747295207E+01  0.20561906398E+02  0.00000000000E+00 0.  1.
</event>
<event>
 7    1  0.5487071E-013  0.5052886E+02  0.7816164E-02  0.1300439E+00
        -11   -1    0    0    0    0  0.00000000000E+00  0.00000000000E+00  0.45593999997E+02  0.45594000000E+02  0.51100000000E-03 0. -1.
         11   -1    0    0    0    0 -0.00000000000E+00 -0.00000000000E+00 -0.45593999997E+02  0.45594000000E+02  0.51100000000E-03 0.  1.
    9900012    2    1    2    0    0  0.12614780623E+02  0.67209071813E+01  0.38063929332E+02  0.50528855890E+02  0.29999987964E+02 0.  0.
        -12    1    1    2    0    0 -0.12614780623E+02 -0.67209071813E+01 -0.38063929332E+02  0.40659144110E+02  0.00000000000E+00 0.  1.
         11    1    3    3    0    0  0.70639998303E+01  0.52240895391E-01  0.15652834319E+02  0.17173061614E+02  0.51100000000E-03 0. -1.
        -11    1    3    3    0    0  0.61488395903E+01 -0.28096187482E+01  0.22869332722E+02  0.23847611311E+02  0.51100000000E-03 0.  1.
        -12    1    3    3    0    0 -0.59805879764E+00  0.94782850341E+01 -0.45823770849E+00  0.95081829658E+01  0.00000000000E+00 0.  1.
</event>
<event>
 7    1  0.5487071E-013  0.5052886E+02  0.7816164E-02  0.1300439E+00
        -11   -1    0    0    0    0  0.00000000000E+00  0.00000000000E+00  0.45593999997E+02  0.45594000000E+02  0.51100000000E-03 0.  1.
         11   -1    0    0    0    0 -0.00000000000E+00 -0.00000000000E+00 -0.45593999997E+02  0.45594000000E+02  0.51100000000E-03 0. -1.
    9900012    2    1    2    0    0  0.40300466754E+02 -0.33415235334E+01 -0.42275617337E+01  0.50528859842E+02  0.29999999977E+02 0.  0.
        -12    1    1    2    0    0 -0.40300466754E+02  0.33415235334E+01  0.42275617337E+01  0.40659140158E+02  0.00000000000E+00 0.  1.
         11    1    3    3    0    0  0.18683371902E+02 -0.79262792249E+01 -0.88826476294E+01  0.22153909748E+02  0.51100000000E-03 0. -1.
        -11    1    3    3    0    0  0.51114559138E+01  0.65404738809E+01 -0.44551250685E+01  0.94208768054E+01  0.51100000000E-03 0.  1.
         12    1    3    3    0    0  0.16505638939E+02 -0.19557181894E+01  0.91102109642E+01  0.18954073289E+02  0.00000000000E+00 0. -1.
</event>
<event>
 7    1  0.5487071E-013  0.5052886E+02  0.7816164E-02  0.1300439E+00
        -11   -1    0    0    0    0  0.00000000000E+00  0.00000000000E+00  0.45593999997E+02  0.45594000000E+02  0.51100000000E-03 0.  1.
         11   -1    0    0    0    0 -0.00000000000E+00 -0.00000000000E+00 -0.45593999997E+02  0.45594000000E+02  0.51100000000E-03 0. -1.
    9900012    2    1    2    0    0  0.23554676808E+02 -0.23043915701E+02 -0.23818496737E+02  0.50528860349E+02  0.30000001516E+02 0.  0.
        -12    1    1    2    0    0 -0.23554676808E+02  0.23043915701E+02  0.23818496737E+02  0.40659139651E+02  0.00000000000E+00 0.  1.
         11    1    3    3    0    0  0.11445548343E+02 -0.66430180908E+01 -0.16771219797E+02  0.21363615798E+02  0.51100000000E-03 0. -1.
        -11    1    3    3    0    0  0.11073010191E+01 -0.30932656510E+01  0.64571017568E+01  0.72448996745E+01  0.51100000000E-03 0.  1.
         12    1    3    3    0    0  0.11001827446E+02 -0.13307631959E+02 -0.13504378697E+02  0.21920344876E+02  0.00000000000E+00 0. -1.
</event>
<event>
 7    1  0.5487071E-013  0.5052888E+02  0.7816164E-02  0.1300439E+00
        -11   -1    0    0    0    0  0.00000000000E+00  0.00000000000E+00  0.45593999997E+02  0.45594000000E+02  0.51100000000E-03 0.  1.
         11   -1    0    0    0    0 -0.00000000000E+00 -0.00000000000E+00 -0.45593999997E+02  0.45594000000E+02  0.51100000000E-03 0. -1.
    9900012    2    1    2    0    0 -0.10379658421E+02  0.29598302360E+02 -0.25872137950E+02  0.50528876379E+02  0.30000050242E+02 0.  0.
        -12    1    1    2    0    0  0.10379658421E+02 -0.29598302360E+02  0.25872137950E+02  0.40659123621E+02  0.00000000000E+00 0.  1.
         11    1    3    3    0    0 -0.38957010274E+01  0.10669443917E+02 -0.36000179676E+01  0.11915269599E+02  0.51100000000E-03 0. -1.
        -11    1    3    3    0    0 -0.53812137652E+00  0.15170150138E+02  0.80898476784E-01  0.15179906938E+02  0.51100000000E-03 0.  1.
         12    1    3    3    0    0 -0.59458360175E+01  0.37587083051E+01 -0.22353018459E+02  0.23433699842E+02  0.00000000000E+00 0. -1.
</event>
<event>
 7    1  0.5487071E-013  0.5052889E+02  0.7816164E-02  0.1300439E+00
        -11   -1    0    0    0    0  0.00000000000E+00  0.00000000000E+00  0.45593999997E+02  0.45594000000E+02  0.51100000000E-03 0.  1.
         11   -1    0    0    0    0 -0.00000000000E+00 -0.00000000000E+00 -0.45593999997E+02  0.45594000000E+02  0.51100000000E-03 0. -1.
    9900012    2    1    2    0    0  0.71337278234E+01  0.31718944979E+02 -0.24416827713E+02  0.50528892548E+02  0.30000099388E+02 0.  0.
        -12    1    1    2    0    0 -0.71337278234E+01 -0.31718944979E+02  0.24416827713E+02  0.40659107452E+02  0.00000000000E+00 0.  1.
         11    1    3    3    0    0 -0.67083324565E+01  0.66928626519E+01 -0.79703343926E+01  0.12382340870E+02  0.51100000000E-03 0.  1.
        -11    1    3    3    0    0  0.38742991429E+01  0.22770357487E+02 -0.15640751495E+02  0.27895026107E+02  0.51100000000E-03 0. -1.
        -12    1    3    3    0    0  0.99677611370E+01  0.22557248401E+01 -0.80574182579E+00  0.10251525571E+02  0.00000000000E+00 0.  1.
</event>
<event>
 7    1  0.5487071E-013  0.5052879E+02  0.7816164E-02  0.1300439E+00
        -11   -1    0    0    0    0  0.00000000000E+00  0.00000000000E+00  0.45593999997E+02  0.45594000000E+02  0.51100000000E-03 0.  1.
         11   -1    0    0    0    0 -0.00000000000E+00 -0.00000000000E+00 -0.45593999997E+02  0.45594000000E+02  0.51100000000E-03 0. -1.
    9900012    2    1    2    0    0 -0.33051119167E+02 -0.25228510376E+01 -0.23546336036E+02  0.50528791987E+02  0.29999793722E+02 0.  0.
        -12    1    1    2    0    0  0.33051119167E+02  0.25228510376E+01  0.23546336036E+02  0.40659208013E+02  0.00000000000E+00 0.  1.
         11    1    3    3    0    0 -0.25499850544E+02 -0.73508296660E+01 -0.17538240707E+02  0.31809856364E+02  0.51100000000E-03 0. -1.
        -11    1    3    3    0    0 -0.32160840587E+01 -0.50966732232E+01  0.56038286879E+00  0.60525452363E+01  0.51100000000E-03 0.  1.
        -12    1    3    3    0    0 -0.43351845645E+01  0.99246518516E+01 -0.65684781985E+01  0.12666390387E+02  0.00000000000E+00 0.  1.
</event>
<event>
 7    1  0.5487071E-013  0.5052886E+02  0.7816164E-02  0.1300439E+00
        -11   -1    0    0    0    0  0.00000000000E+00  0.00000000000E+00  0.45593999997E+02  0.45594000000E+02  0.51100000000E-03 0.  1.
         11   -1    0    0    0    0 -0.00000000000E+00 -0.00000000000E+00 -0.45593999997E+02  0.45594000000E+02  0.51100000000E-03 0. -1.
    9900012    2    1    2    0    0  0.40552315355E+02  0.24351422183E+01 -0.16568995213E+01  0.50528861860E+02  0.30000006110E+02 0.  0.
        -12    1    1    2    0    0 -0.40552315355E+02 -0.24351422183E+01  0.16568995213E+01  0.40659138140E+02  0.00000000000E+00 0.  1.
         11    1    3    3    0    0  0.40139037947E+01  0.66638458730E+01 -0.47299363813E+01  0.91044255131E+01  0.51100000000E-03 0. -1.
        -11    1    3    3    0    0  0.24838310529E+01 -0.57563217926E+01 -0.27427709660E+01  0.68430585349E+01  0.51100000000E-03 0.  1.
         12    1    3    3    0    0  0.34054580507E+02  0.15276181380E+01  0.58158078259E+01  0.34581377812E+02  0.00000000000E+00 0. -1.
</event>
<event>
 7    1  0.5487071E-013  0.5052886E+02  0.7816164E-02  0.1300439E+00
        -11   -1    0    0    0    0  0.00000000000E+00  0.00000000000E+00  0.45593999997E+02  0.45594000000E+02  0.51100000000E-03 0. -1.
         11   -1    0    0    0    0 -0.00000000000E+00 -0.00000000000E+00 -0.45593999997E+02  0.45594000000E+02  0.51100000000E-03 0.  1.
    9900012    2    1    2    0    0 -0.36576262574E+02  0.16138572938E+02  0.74087281965E+01  0.50528858668E+02  0.29999996407E+02 0.  0.
        -12    1    1    2    0    0  0.36576262574E+02 -0.16138572938E+02 -0.74087281965E+01  0.40659141332E+02  0.00000000000E+00 0.  1.
         11    1    3    3    0    0 -0.20078142304E+02 -0.27078843964E+01 -0.59166868641E+01  0.21106198615E+02  0.51100000000E-03 0. -1.
        -11    1    3    3    0    0 -0.18195167520E+01 -0.47649830146E+00  0.37758864862E+00  0.19184017543E+01  0.51100000000E-03 0.  1.
         12    1    3    3    0    0 -0.14678603518E+02  0.19322955636E+02  0.12947826412E+02  0.27504258299E+02  0.00000000000E+00 0. -1.
</event>
<event>
 7    1  0.5487071E-013  0.5052885E+02  0.7816164E-02  0.1300439E+00
        -11   -1    0    0    0    0  0.00000000000E+00  0.00000000000E+00  0.45593999997E+02  0.45594000000E+02  0.51100000000E-03 0. -1.
         11   -1    0    0    0    0 -0.00000000000E+00 -0.00000000000E+00 -0.45593999997E+02  0.45594000000E+02  0.51100000000E-03 0.  1.
    9900012    2    1    2    0    0  0.20024232640E+01 -0.38365542875E+02  0.13313214389E+02  0.50528852734E+02  0.29999978370E+02 0.  0.
        -12    1    1    2    0    0 -0.20024232640E+01  0.38365542875E+02 -0.13313214389E+02  0.40659147266E+02  0.00000000000E+00 0.  1.
         11    1    3    3    0    0  0.21854434295E+01 -0.36354601218E+01  0.10786016878E+01  0.43767699440E+01  0.51100000000E-03 0.  1.
        -11    1    3    3    0    0  0.88868733859E+01 -0.30405965688E+02  0.15915177553E+02  0.35451264361E+02  0.51100000000E-03 0. -1.
         12    1    3    3    0    0 -0.90698935514E+01 -0.43241170656E+01 -0.36805648514E+01  0.10700818429E+02  0.00000000000E+00 0. -1.
</event>
<event>
 7    1  0.5487071E-013  0.5052887E+02  0.7816164E-02  0.1300439E+00
        -11   -1    0    0    0    0  0.00000000000E+00  0.00000000000E+00  0.45593999997E+02  0.45594000000E+02  0.51100000000E-03 0.  1.
         11   -1    0    0    0    0 -0.00000000000E+00 -0.00000000000E+00 -0.45593999997E+02  0.45594000000E+02  0.51100000000E-03 0. -1.
    9900012    2    1    2    0    0 -0.20999939801E+02  0.14575264360E+02 -0.31618495826E+02  0.50528867187E+02  0.30000022303E+02 0.  0.
        -12    1    1    2    0    0  0.20999939801E+02 -0.14575264360E+02  0.31618495826E+02  0.40659132813E+02  0.00000000000E+00 0.  1.
         11    1    3    3    0    0 -0.13184156160E+02  0.28221710025E+01  0.16879132939E+01  0.13588071032E+02  0.51100000000E-03 0. -1.
        -11    1    3    3    0    0 -0.43276348930E+01  0.14918641197E+01 -0.14828855015E+02  0.15519311313E+02  0.51100000000E-03 0.  1.
        -12    1    3    3    0    0 -0.34881487472E+01  0.10261229238E+02 -0.18477554104E+02  0.21421484842E+02  0.00000000000E+00 0.  1.
</event>
<event>
 7    1  0.5487071E-013  0.5052885E+02  0.7816164E-02  0.1300439E+00
        -11   -1    0    0    0    0  0.00000000000E+00  0.00000000000E+00  0.45593999997E+02  0.45594000000E+02  0.51100000000E-03 0.  1.
         11   -1    0    0    0    0 -0.00000000000E+00 -0.00000000000E+00 -0.45593999997E+02  0.45594000000E+02  0.51100000000E-03 0. -1.
    9900012    2    1    2    0    0  0.26834024823E+02  0.17606655728E+02 -0.24962123073E+02  0.50528846019E+02  0.29999957959E+02 0.  0.
        -12    1    1    2    0    0 -0.26834024823E+02 -0.17606655728E+02  0.24962123073E+02  0.40659153981E+02  0.00000000000E+00 0.  1.
         11    1    3    3    0    0  0.14456068820E+02  0.20327692701E+01 -0.92310849517E+01  0.17272029594E+02  0.51100000000E-03 0. -1.
        -11    1    3    3    0    0  0.22021293399E+00  0.26133330181E+01 -0.15256315563E+02  0.15480089406E+02  0.51100000000E-03 0.  1.
        -12    1    3    3    0    0  0.12157743069E+02  0.12960553440E+02 -0.47472255818E+00  0.17776727019E+02  0.00000000000E+00 0.  1.
</event>
<event>
 7    1  0.5487071E-013  0.5052878E+02  0.7816164E-02  0.1300439E+00
        -11   -1    0    0    0    0  0.00000000000E+00  0.00000000000E+00  0.45593999997E+02  0.45594000000E+02  0.51100000000E-03 0.  1.
         11   -1    0    0    0    0 -0.00000000000E+00 -0.00000000000E+00 -0.45593999997E+02  0.45594000000E+02  0.51100000000E-03 0. -1.
    9900012    2    1    2    0    0  0.13330188054E+02 -0.95684994986E+01 -0.37201103101E+02  0.50528780035E+02  0.29999757395E+02 0.  0.
        -12    1    1    2    0    0 -0.13330188054E+02  0.95684994986E+01  0.37201103101E+02  0.40659219965E+02  0.00000000000E+00 0.  1.
         11    1    3    3    0    0  0.22924468751E+01  0.57484879816E+01 -0.39553528016E+01  0.73447425275E+01  0.51100000000E-03 0. -1.
        -11    1    3    3    0    0 -0.32621245360E+01 -0.10155198752E+01  0.86876482989E+00  0.35252644859E+01  0.51100000000E-03 0.  1.
         12    1    3    3    0    0  0.14299865714E+02 -0.14301467605E+02 -0.34114515129E+02  0.39658773022E+02  0.00000000000E+00 0. -1.
</event>
<event>
 7    1  0.5487071E-013  0.5052887E+02  0.7816164E-02  0.1300439E+00
        -11   -1    0    0    0    0  0.00000000000E+00  0.00000000000E+00  0.45593999997E+02  0.45594000000E+02  0.51100000000E-03 0.  1.
         11   -1    0    0    0    0 -0.00000000000E+00 -0.00000000000E+00 -0.45593999997E+02  0.45594000000E+02  0.51100000000E-03 0. -1.
    9900012    2    1    2    0    0 -0.17435455206E+02  0.29837676221E+02 -0.21421557359E+02  0.50528866461E+02  0.30000020094E+02 0.  0.
        -12    1    1    2    0    0  0.17435455206E+02 -0.29837676221E+02  0.21421557359E+02  0.40659133539E+02  0.00000000000E+00 0.  1.
         11    1    3    3    0    0 -0.17573331279E+02  0.15629766902E+02 -0.13760874679E+02  0.27248362480E+02  0.51100000000E-03 0. -1.
        -11    1    3    3    0    0  0.22115802560E+01  0.13976029257E+02 -0.11943324402E+02  0.18516573091E+02  0.51100000000E-03 0.  1.
        -12    1    3    3    0    0 -0.20737041836E+01  0.23188006211E+00  0.42826417218E+01  0.47639308897E+01  0.00000000000E+00 0.  1.
</event>
<event>
 7    1  0.5487071E-013  0.5052886E+02  0.7816164E-02  0.1300439E+00
        -11   -1    0    0    0    0  0.00000000000E+00  0.00000000000E+00  0.45593999997E+02  0.45594000000E+02  0.51100000000E-03 0. -1.
         11   -1    0    0    0    0 -0.00000000000E+00 -0.00000000000E+00 -0.45593999997E+02  0.45594000000E+02  0.51100000000E-03 0.  1.
    9900012    2    1    2    0    0  0.20442524748E+02  0.34456064380E+02 -0.69316772432E+01  0.50528864003E+02  0.30000012624E+02 0.  0.
        -12    1    1    2    0    0 -0.20442524748E+02 -0.34456064380E+02  0.69316772432E+01  0.40659135997E+02  0.00000000000E+00 0.  1.
         11    1    3    3    0    0  0.56228628460E+01  0.13401148591E+02  0.39376133750E+01  0.15056964152E+02  0.51100000000E-03 0. -1.
        -11    1    3    3    0    0 -0.35412662883E-01  0.16881291496E+02 -0.51430152570E+00  0.16889161109E+02  0.51100000000E-03 0.  1.
        -12    1    3    3    0    0  0.14855074564E+02  0.41736242930E+01 -0.10354989092E+02  0.18582738742E+02  0.00000000000E+00 0.  1.
</event>
<event>
 7    1  0.5487071E-013  0.5052885E+02  0.7816164E-02  0.1300439E+00
        -11   -1    0    0    0    0  0.00000000000E+00  0.00000000000E+00  0.45593999997E+02  0.45594000000E+02  0.51100000000E-03 0.  1.
         11   -1    0    0    0    0 -0.00000000000E+00 -0.00000000000E+00 -0.45593999997E+02  0.45594000000E+02  0.51100000000E-03 0. -1.
    9900012    2    1    2    0    0  0.62500764898E+01  0.27354782170E+02 -0.29424796667E+02  0.50528853150E+02  0.29999979634E+02 0.  0.
        -12    1    1    2    0    0 -0.62500764898E+01 -0.27354782170E+02  0.29424796667E+02  0.40659146850E+02  0.00000000000E+00 0.  1.
         11    1    3    3    0    0 -0.73979241717E+01  0.91923397233E+01 -0.97856996455E+01  0.15329328408E+02  0.51100000000E-03 0. -1.
        -11    1    3    3    0    0 -0.44605939565E+01  0.18220331940E+01 -0.33914601539E+01  0.58922581106E+01  0.51100000000E-03 0.  1.
        -12    1    3    3    0    0  0.18108594618E+02  0.16340409253E+02 -0.16247636867E+02  0.29307266631E+02  0.00000000000E+00 0.  1.
</event>
<event>
 7    1  0.5487071E-013  0.5052890E+02  0.7816164E-02  0.1300439E+00
        -11   -1    0    0    0    0  0.00000000000E+00  0.00000000000E+00  0.45593999997E+02  0.45594000000E+02  0.51100000000E-03 0.  1.
         11   -1    0    0    0    0 -0.00000000000E+00 -0.00000000000E+00 -0.45593999997E+02  0.45594000000E+02  0.51100000000E-03 0. -1.
    9900012    2    1    2    0    0 -0.10654168359E+02  0.12209958484E+02 -0.37290323413E+02  0.50528897577E+02  0.30000114675E+02 0.  0.
        -12    1    1    2    0    0  0.10654168359E+02 -0.12209958484E+02  0.37290323413E+02  0.40659102423E+02  0.00000000000E+00 0.  1.
         11    1    3    3    0    0 -0.18726833353E+01  0.49805058035E+01 -0.19273957627E+01  0.56592610489E+01  0.51100000000E-03 0. -1.
        -11    1    3    3    0    0  0.69841173925E+01  0.92082150400E+01 -0.12460647286E+02  0.16995200823E+02  0.51100000000E-03 0.  1.
         12    1    3    3    0    0 -0.15765602416E+02 -0.19787623590E+01 -0.22902280364E+02  0.27874435705E+02  0.00000000000E+00 0. -1.
</event>
<event>
 7    1  0.5487071E-013  0.5052886E+02  0.7816164E-02  0.1300439E+00
        -11   -1    0    0    0    0  0.00000000000E+00  0.00000000000E+00  0.45593999997E+02  0.45594000000E+02  0.51100000000E-03 0.  1.
         11   -1    0    0    0    0 -0.00000000000E+00 -0.00000000000E+00 -0.45593999997E+02  0.45594000000E+02  0.51100000000E-03 0. -1.
    9900012    2    1    2    0    0 -0.43626210101E+01  0.22953216322E+02 -0.33275866694E+02  0.50528857045E+02  0.29999991473E+02 0.  0.
        -12    1    1    2    0    0  0.43626210101E+01 -0.22953216322E+02  0.33275866694E+02  0.40659142955E+02  0.00000000000E+00 0.  1.
         11    1    3    3    0    0 -0.59424748809E+01  0.22238372443E+02 -0.16643497580E+02  0.28405355632E+02  0.51100000000E-03 0. -1.
        -11    1    3    3    0    0 -0.27552105276E+01  0.28802639414E+01  0.76956302501E+00  0.40594744653E+01  0.51100000000E-03 0.  1.
        -12    1    3    3    0    0  0.43350643985E+01 -0.21654200618E+01 -0.17401932139E+02  0.18064026948E+02  0.00000000000E+00 0.  1.
</event>
<event>
 7    1  0.5487071E-013  0.5052886E+02  0.7816164E-02  0.1300439E+00
        -11   -1    0    0    0    0  0.00000000000E+00  0.00000000000E+00  0.45593999997E+02  0.45594000000E+02  0.51100000000E-03 0.  1.
         11   -1    0    0    0    0 -0.00000000000E+00 -0.00000000000E+00 -0.45593999997E+02  0.45594000000E+02  0.51100000000E-03 0. -1.
    9900012    2    1    2    0    0 -0.44692744383E+01 -0.40292194820E+02  0.31193859076E+01  0.50528856553E+02  0.29999989978E+02 0.  0.
        -12    1    1    2    0    0  0.44692744383E+01  0.40292194820E+02 -0.31193859076E+01  0.40659143447E+02  0.00000000000E+00 0.  1.
         11    1    3    3    0    0  0.75207751315E+00  0.14895433677E+00  0.48529730365E-01  0.76822091619E+00  0.51100000000E-03 0.  1.
        -11    1    3    3    0    0  0.30240904466E+01 -0.41192574084E+02  0.36269608616E+01  0.41462370024E+02  0.51100000000E-03 0. -1.
         12    1    3    3    0    0 -0.82454423981E+01  0.75142492691E+00 -0.55610468436E+00  0.82982656128E+01  0.00000000000E+00 0. -1.
</event>
<event>
 7    1  0.5487071E-013  0.5052887E+02  0.7816164E-02  0.1300439E+00
        -11   -1    0    0    0    0  0.00000000000E+00  0.00000000000E+00  0.45593999997E+02  0.45594000000E+02  0.51100000000E-03 0.  1.
         11   -1    0    0    0    0 -0.00000000000E+00 -0.00000000000E+00 -0.45593999997E+02  0.45594000000E+02  0.51100000000E-03 0. -1.
    9900012    2    1    2    0    0  0.17137296184E+01  0.16815681944E+02 -0.36979191436E+02  0.50528872763E+02  0.30000039249E+02 0.  0.
        -12    1    1    2    0    0 -0.17137296184E+01 -0.16815681944E+02  0.36979191436E+02  0.40659127237E+02  0.00000000000E+00 0.  1.
         11    1    3    3    0    0  0.36666504373E+01  0.47874056018E+01 -0.23956708661E+02  0.24703997004E+02  0.51100000000E-03 0. -1.
        -11    1    3    3    0    0  0.67284819400E+01  0.11830303909E+02 -0.76209051137E+01  0.15598293330E+02  0.51100000000E-03 0.  1.
        -12    1    3    3    0    0 -0.86814027590E+01  0.19797243323E+00 -0.54015776613E+01  0.10226582429E+02  0.00000000000E+00 0.  1.
</event>
<event>
 7    1  0.5487071E-013  0.5052880E+02  0.7816164E-02  0.1300439E+00
        -11   -1    0    0    0    0  0.00000000000E+00  0.00000000000E+00  0.45593999997E+02  0.45594000000E+02  0.51100000000E-03 0.  1.
         11   -1    0    0    0    0 -0.00000000000E+00 -0.00000000000E+00 -0.45593999997E+02  0.45594000000E+02  0.51100000000E-03 0. -1.
    9900012    2    1    2    0    0 -0.22162041551E+02 -0.27028325901E+02 -0.20772187731E+02  0.50528803379E+02  0.29999828351E+02 0.  0.
        -12    1    1    2    0    0  0.22162041551E+02  0.27028325901E+02  0.20772187731E+02  0.40659196621E+02  0.00000000000E+00 0.  1.
         11    1    3    3    0    0 -0.21300586790E+02 -0.59401991888E+01 -0.33881709088E+01  0.22371425220E+02  0.51100000000E-03 0.  1.
        -11    1    3    3    0    0  0.12059800712E+01 -0.10906867924E+02 -0.51929238670E+01  0.12140041779E+02  0.51100000000E-03 0. -1.
        -12    1    3    3    0    0 -0.20674348329E+01 -0.10181258788E+02 -0.12191092955E+02  0.16017336381E+02  0.00000000000E+00 0.  1.
</event>
<event>
 7    1  0.5487071E-013  0.5052886E+02  0.7816164E-02  0.1300439E+00
        -11   -1    0    0    0    0  0.00000000000E+00  0.00000000000E+00  0.45593999997E+02  0.45594000000E+02  0.51100000000E-03 0. -1.
         11   -1    0    0    0    0 -0.00000000000E+00 -0.00000000000E+00 -0.45593999997E+02  0.45594000000E+02  0.51100000000E-03 0.  1.
    9900012    2    1    2    0    0  0.15501898062E+02 -0.37104522772E+02  0.60092529979E+01  0.50528861110E+02  0.30000003831E+02 0.  0.
        -12    1    1    2    0    0 -0.15501898062E+02  0.37104522772E+02 -0.60092529979E+01  0.40659138890E+02  0.00000000000E+00 0.  1.
         11    1    3    3    0    0 -0.38433412935E+01 -0.21051050378E+01  0.17240951048E+01  0.47090597479E+01  0.51100000000E-03 0. -1.
        -11    1    3    3    0    0  0.27240190607E+01  0.24162361691E+01 -0.23649886695E+01  0.43418485390E+01  0.51100000000E-03 0.  1.
         12    1    3    3    0    0  0.16621220295E+02 -0.37415653903E+02  0.66501465626E+01  0.41477952823E+02  0.00000000000E+00 0. -1.
</event>
<event>
 7    1  0.5487071E-013  0.5052889E+02  0.7816164E-02  0.1300439E+00
        -11   -1    0    0    0    0  0.00000000000E+00  0.00000000000E+00  0.45593999997E+02  0.45594000000E+02  0.51100000000E-03 0.  1.
         11   -1    0    0    0    0 -0.00000000000E+00 -0.00000000000E+00 -0.45593999997E+02  0.45594000000E+02  0.51100000000E-03 0. -1.
    9900012    2    1    2    0    0  0.28381216918E+02  0.45574990130E+01 -0.28755852516E+02  0.50528888783E+02  0.30000087946E+02 0.  0.
        -12    1    1    2    0    0 -0.28381216918E+02 -0.45574990130E+01  0.28755852516E+02  0.40659111217E+02  0.00000000000E+00 0.  1.
         11    1    3    3    0    0  0.99059559914E+01  0.12792723386E+02 -0.13539924019E+02  0.21097660496E+02  0.51100000000E-03 0. -1.
        -11    1    3    3    0    0  0.10347698633E+02 -0.19732843347E+00  0.62717062157E-01  0.10349770007E+02  0.51100000000E-03 0.  1.
         12    1    3    3    0    0  0.81275622940E+01 -0.80378959392E+01 -0.15278645559E+02  0.19081458280E+02  0.00000000000E+00 0. -1.
</event>
<event>
 7    1  0.5487071E-013  0.5052886E+02  0.7816164E-02  0.1300439E+00
        -11   -1    0    0    0    0  0.00000000000E+00  0.00000000000E+00  0.45593999997E+02  0.45594000000E+02  0.51100000000E-03 0.  1.
         11   -1    0    0    0    0 -0.00000000000E+00 -0.00000000000E+00 -0.45593999997E+02  0.45594000000E+02  0.51100000000E-03 0. -1.
    9900012    2    1    2    0    0  0.21108534118E+01  0.99600115406E+01 -0.39363791590E+02  0.50528860556E+02  0.30000002145E+02 0.  0.
        -12    1    1    2    0    0 -0.21108534118E+01 -0.99600115406E+01  0.39363791590E+02  0.40659139444E+02  0.00000000000E+00 0.  1.
         11    1    3    3    0    0 -0.98267358590E+00  0.40978670412E+01 -0.10122710517E+02  0.10964826954E+02  0.51100000000E-03 0. -1.
        -11    1    3    3    0    0  0.15409554056E+01  0.11370117164E+02 -0.31413140936E+02  0.33443078980E+02  0.51100000000E-03 0.  1.
        -12    1    3    3    0    0  0.15525715921E+01 -0.55079726651E+01  0.21720598634E+01  0.61209546214E+01  0.00000000000E+00 0.  1.
</event>
<event>
 7    1  0.5487071E-013  0.5052886E+02  0.7816164E-02  0.1300439E+00
        -11   -1    0    0    0    0  0.00000000000E+00  0.00000000000E+00  0.45593999997E+02  0.45594000000E+02  0.51100000000E-03 0.  1.
         11   -1    0    0    0    0 -0.00000000000E+00 -0.00000000000E+00 -0.45593999997E+02  0.45594000000E+02  0.51100000000E-03 0. -1.
    9900012    2    1    2    0    0 -0.56982389245E+00 -0.13522350740E+02 -0.38340407245E+02  0.50528862078E+02  0.30000006773E+02 0.  0.
        -12    1    1    2    0    0  0.56982389245E+00  0.13522350740E+02  0.38340407245E+02  0.40659137922E+02  0.00000000000E+00 0.  1.
         11    1    3    3    0    0 -0.83705859649E-01  0.17845346374E+01  0.10551453569E+01  0.20748259031E+01  0.51100000000E-03 0. -1.
        -11    1    3    3    0    0 -0.46117143664E+01  0.14105327167E+01  0.64737850707E+00  0.48658618080E+01  0.51100000000E-03 0.  1.
         12    1    3    3    0    0  0.41255963336E+01 -0.16717418094E+02 -0.40042931109E+02  0.43588174367E+02  0.00000000000E+00 0. -1.
</event>
<event>
 7    1  0.5487071E-013  0.5052885E+02  0.7816164E-02  0.1300439E+00
        -11   -1    0    0    0    0  0.00000000000E+00  0.00000000000E+00  0.45593999997E+02  0.45594000000E+02  0.51100000000E-03 0.  1.
         11   -1    0    0    0    0 -0.00000000000E+00 -0.00000000000E+00 -0.45593999997E+02  0.45594000000E+02  0.51100000000E-03 0. -1.
    9900012    2    1    2    0    0 -0.31518080628E+02 -0.16827345836E+02 -0.19406628354E+02  0.50528853447E+02  0.29999980537E+02 0.  0.
        -12    1    1    2    0    0  0.31518080628E+02  0.16827345836E+02  0.19406628354E+02  0.40659146553E+02  0.00000000000E+00 0.  1.
         11    1    3    3    0    0 -0.65151705803E+01  0.28773454998E+01 -0.28954176913E+01  0.76883033684E+01  0.51100000000E-03 0. -1.
        -11    1    3    3    0    0 -0.78206633133E+01 -0.76226895597E+01 -0.18768625661E+02  0.21714729569E+02  0.51100000000E-03 0.  1.
        -12    1    3    3    0    0 -0.17182246734E+02 -0.12082001776E+02  0.22574149981E+01  0.21125820510E+02  0.00000000000E+00 0.  1.
</event>
<event>
 7    1  0.5487071E-013  0.5052884E+02  0.7816164E-02  0.1300439E+00
        -11   -1    0    0    0    0  0.00000000000E+00  0.00000000000E+00  0.45593999997E+02  0.45594000000E+02  0.51100000000E-03 0.  1.
         11   -1    0    0    0    0 -0.00000000000E+00 -0.00000000000E+00 -0.45593999997E+02  0.45594000000E+02  0.51100000000E-03 0. -1.
    9900012    2    1    2    0    0 -0.76768306560E+01 -0.97088555588E+01 -0.38729463660E+02  0.50528844074E+02  0.29999952049E+02 0.  0.
        -12    1    1    2    0    0  0.76768306560E+01  0.97088555588E+01  0.38729463660E+02  0.40659155926E+02  0.00000000000E+00 0.  1.
         11    1    3    3    0    0  0.60480924287E+01  0.14008043492E+01 -0.46023941525E+01  0.77281114800E+01  0.51100000000E-03 0. -1.
        -11    1    3    3    0    0 -0.62348148254E+01 -0.77020042122E+01 -0.26382578389E+01  0.10254471682E+02  0.51100000000E-03 0.  1.
        -12    1    3    3    0    0 -0.74901082593E+01 -0.34076556959E+01 -0.31488811669E+02  0.32546260912E+02  0.00000000000E+00 0.  1.
</event>
<event>
 7    1  0.5487071E-013  0.5052886E+02  0.7816164E-02  0.1300439E+00
        -11   -1    0    0    0    0  0.00000000000E+00  0.00000000000E+00  0.45593999997E+02  0.45594000000E+02  0.51100000000E-03 0.  1.
         11   -1    0    0    0    0 -0.00000000000E+00 -0.00000000000E+00 -0.45593999997E+02  0.45594000000E+02  0.51100000000E-03 0. -1.
    9900012    2    1    2    0    0 -0.26602230127E+02  0.55991997951E+01 -0.30234685804E+02  0.50528856972E+02  0.29999991253E+02 0.  0.
        -12    1    1    2    0    0  0.26602230127E+02 -0.55991997951E+01  0.30234685804E+02  0.40659143028E+02  0.00000000000E+00 0.  1.
         11    1    3    3    0    0  0.29344319393E+01  0.43580837671E+01 -0.79568606974E+01  0.95349576479E+01  0.51100000000E-03 0. -1.
        -11    1    3    3    0    0 -0.99812739239E+00  0.54714985312E+01 -0.35871026289E+01  0.66182218155E+01  0.51100000000E-03 0.  1.
        -12    1    3    3    0    0 -0.28538534674E+02 -0.42303825032E+01 -0.18690722478E+02  0.34375677509E+02  0.00000000000E+00 0.  1.
</event>
<event>
 7    1  0.5487071E-013  0.5052886E+02  0.7816164E-02  0.1300439E+00
        -11   -1    0    0    0    0  0.00000000000E+00  0.00000000000E+00  0.45593999997E+02  0.45594000000E+02  0.51100000000E-03 0. -1.
         11   -1    0    0    0    0 -0.00000000000E+00 -0.00000000000E+00 -0.45593999997E+02  0.45594000000E+02  0.51100000000E-03 0.  1.
    9900012    2    1    2    0    0  0.11907544074E+02 -0.36193151022E+02 -0.14192664466E+02  0.50528861896E+02  0.30000006218E+02 0.  0.
        -12    1    1    2    0    0 -0.11907544074E+02  0.36193151022E+02  0.14192664466E+02  0.40659138104E+02  0.00000000000E+00 0.  1.
         11    1    3    3    0    0  0.11703064299E+02 -0.30660433367E+02 -0.15275788772E+02  0.36199083015E+02  0.51100000000E-03 0. -1.
        -11    1    3    3    0    0  0.66274948934E+01 -0.37828536706E+01  0.51437476310E+00  0.76484150066E+01  0.51100000000E-03 0.  1.
        -12    1    3    3    0    0 -0.64230151184E+01 -0.17498639836E+01  0.56874954273E+00  0.66813638738E+01  0.00000000000E+00 0.  1.
</event>
<event>
 7    1  0.5487071E-013  0.5052886E+02  0.7816164E-02  0.1300439E+00
        -11   -1    0    0    0    0  0.00000000000E+00  0.00000000000E+00  0.45593999997E+02  0.45594000000E+02  0.51100000000E-03 0.  1.
         11   -1    0    0    0    0 -0.00000000000E+00 -0.00000000000E+00 -0.45593999997E+02  0.45594000000E+02  0.51100000000E-03 0. -1.
    9900012    2    1    2    0    0  0.44146360833E+01  0.39056458416E+02 -0.10405265669E+02  0.50528861920E+02  0.30000006293E+02 0.  0.
        -12    1    1    2    0    0 -0.44146360833E+01 -0.39056458416E+02  0.10405265669E+02  0.40659138080E+02  0.00000000000E+00 0.  1.
         11    1    3    3    0    0 -0.34511315978E+00  0.10369827889E+02 -0.16875903455E+02  0.19810314263E+02  0.51100000000E-03 0.  1.
        -11    1    3    3    0    0 -0.15553467494E+01  0.43825122869E+01 -0.44757993082E+00  0.46718139423E+01  0.51100000000E-03 0. -1.
        -12    1    3    3    0    0  0.63150959925E+01  0.24304118240E+02  0.69182177169E+01  0.26046733715E+02  0.00000000000E+00 0.  1.
</event>
<event>
 7    1  0.5487071E-013  0.5052885E+02  0.7816164E-02  0.1300439E+00
        -11   -1    0    0    0    0  0.00000000000E+00  0.00000000000E+00  0.45593999997E+02  0.45594000000E+02  0.51100000000E-03 0.  1.
         11   -1    0    0    0    0 -0.00000000000E+00 -0.00000000000E+00 -0.45593999997E+02  0.45594000000E+02  0.51100000000E-03 0. -1.
    9900012    2    1    2    0    0  0.35246088649E+02 -0.19384782259E+02 -0.59253687334E+01  0.50528849210E+02  0.29999967659E+02 0.  0.
        -12    1    1    2    0    0 -0.35246088649E+02  0.19384782259E+02  0.59253687334E+01  0.40659150790E+02  0.00000000000E+00 0.  1.
         11    1    3    3    0    0  0.17481849018E+02 -0.73525785384E+01 -0.13171174783E+01  0.19010793118E+02  0.51100000000E-03 0. -1.
        -11    1    3    3    0    0  0.19299897535E+02 -0.83241317731E+00 -0.57513768070E+01  0.20155825262E+02  0.51100000000E-03 0.  1.
        -12    1    3    3    0    0 -0.15356579034E+01 -0.11199790544E+02  0.11431255519E+01  0.11362230830E+02  0.00000000000E+00 0.  1.
</event>
<event>
 7    1  0.5487071E-013  0.5052887E+02  0.7816164E-02  0.1300439E+00
        -11   -1    0    0    0    0  0.00000000000E+00  0.00000000000E+00  0.45593999997E+02  0.45594000000E+02  0.51100000000E-03 0. -1.
         11   -1    0    0    0    0 -0.00000000000E+00 -0.00000000000E+00 -0.45593999997E+02  0.45594000000E+02  0.51100000000E-03 0.  1.
    9900012    2    1    2    0    0 -0.34424360528E+02  0.21633778902E+02 -0.32884019653E+00  0.50528866669E+02  0.30000020727E+02 0.  0.
        -12    1    1    2    0    0  0.34424360528E+02 -0.21633778902E+02  0.32884019653E+00  0.40659133331E+02  0.00000000000E+00 0.  1.
         11    1    3    3    0    0 -0.25235730467E+02  0.11631109068E+02  0.11127339683E+01  0.27809404299E+02  0.51100000000E-03 0. -1.
        -11    1    3    3    0    0 -0.24995087046E+01  0.58383849243E+01 -0.95139827598E+01  0.11438975064E+02  0.51100000000E-03 0.  1.
         12    1    3    3    0    0 -0.66891213570E+01  0.41642849095E+01  0.80724085949E+01  0.11280487306E+02  0.00000000000E+00 0. -1.
</event>
<event>
 7    1  0.5487071E-013  0.5052886E+02  0.7816164E-02  0.1300439E+00
        -11   -1    0    0    0    0  0.00000000000E+00  0.00000000000E+00  0.45593999997E+02  0.45594000000E+02  0.51100000000E-03 0. -1.
         11   -1    0    0    0    0 -0.00000000000E+00 -0.00000000000E+00 -0.45593999997E+02  0.45594000000E+02  0.51100000000E-03 0.  1.
    9900012    2    1    2    0    0  0.35518169092E+02 -0.15280443713E+02 -0.12575104653E+02  0.50528861387E+02  0.30000004672E+02 0.  0.
        -12    1    1    2    0    0 -0.35518169092E+02  0.15280443713E+02  0.12575104653E+02  0.40659138613E+02  0.00000000000E+00 0.  1.
         11    1    3    3    0    0 -0.54910533488E-01  0.57255792999E+00  0.22298722883E+01  0.23028609236E+01  0.51100000000E-03 0. -1.
        -11    1    3    3    0    0  0.12665962369E+01 -0.79689852970E+01 -0.97631409724E+01  0.12666014156E+02  0.51100000000E-03 0.  1.
         12    1    3    3    0    0  0.34306483389E+02 -0.78840163463E+01 -0.50418359691E+01  0.35559986307E+02  0.00000000000E+00 0. -1.
</event>
<event>
 7    1  0.5487071E-013  0.5052887E+02  0.7816164E-02  0.1300439E+00
        -11   -1    0    0    0    0  0.00000000000E+00  0.00000000000E+00  0.45593999997E+02  0.45594000000E+02  0.51100000000E-03 0. -1.
         11   -1    0    0    0    0 -0.00000000000E+00 -0.00000000000E+00 -0.45593999997E+02  0.45594000000E+02  0.51100000000E-03 0.  1.
    9900012    2    1    2    0    0  0.18020269878E+02 -0.34586360765E+02  0.11498641814E+02  0.50528865220E+02  0.30000016324E+02 0.  0.
        -12    1    1    2    0    0 -0.18020269878E+02  0.34586360765E+02 -0.11498641814E+02  0.40659134780E+02  0.00000000000E+00 0.  1.
         11    1    3    3    0    0  0.40254803568E+01 -0.17863475308E+02  0.51443166928E+00  0.18318648486E+02  0.51100000000E-03 0. -1.
        -11    1    3    3    0    0 -0.40320879208E+00 -0.15655912382E+02  0.39564859990E+01  0.16153140610E+02  0.51100000000E-03 0.  1.
        -12    1    3    3    0    0  0.14397998313E+02 -0.10669730757E+01  0.70277241462E+01  0.16057076124E+02  0.00000000000E+00 0.  1.
</event>
<event>
 7    1  0.5487071E-013  0.5052886E+02  0.7816164E-02  0.1300439E+00
        -11   -1    0    0    0    0  0.00000000000E+00  0.00000000000E+00  0.45593999997E+02  0.45594000000E+02  0.51100000000E-03 0. -1.
         11   -1    0    0    0    0 -0.00000000000E+00 -0.00000000000E+00 -0.45593999997E+02  0.45594000000E+02  0.51100000000E-03 0.  1.
    9900012    2    1    2    0    0 -0.40143274542E+02 -0.61423695351E+01  0.19884992962E+01  0.50528864201E+02  0.30000013225E+02 0.  0.
        -12    1    1    2    0    0  0.40143274542E+02  0.61423695351E+01 -0.19884992962E+01  0.40659135799E+02  0.00000000000E+00 0.  1.
         11    1    3    3    0    0 -0.39592838683E+01 -0.11724283880E+01  0.86177126245E+00  0.42181947614E+01  0.51100000000E-03 0. -1.
        -11    1    3    3    0    0 -0.23719971306E+02 -0.13135850370E+02 -0.86829690856E+01  0.28470714007E+02  0.51100000000E-03 0.  1.
         12    1    3    3    0    0 -0.12464019368E+02  0.81659092229E+01  0.98096971193E+01  0.17839955432E+02  0.00000000000E+00 0. -1.
</event>
<event>
 7    1  0.5487071E-013  0.5052890E+02  0.7816164E-02  0.1300439E+00
        -11   -1    0    0    0    0  0.00000000000E+00  0.00000000000E+00  0.45593999997E+02  0.45594000000E+02  0.51100000000E-03 0.  1.
         11   -1    0    0    0    0 -0.00000000000E+00 -0.00000000000E+00 -0.45593999997E+02  0.45594000000E+02  0.51100000000E-03 0. -1.
    9900012    2    1    2    0    0 -0.18575051222E+02  0.31738463737E+02 -0.17343583695E+02  0.50528898882E+02  0.30000118642E+02 0.  0.
        -12    1    1    2    0    0  0.18575051222E+02 -0.31738463737E+02  0.17343583695E+02  0.40659101118E+02  0.00000000000E+00 0.  1.
         11    1    3    3    0    0 -0.11944760387E+02  0.11429047327E+02 -0.70205376615E+01  0.17960745330E+02  0.51100000000E-03 0. -1.
        -11    1    3    3    0    0 -0.11130728406E+02  0.22891044176E+02 -0.10071103799E+02  0.27373712761E+02  0.51100000000E-03 0.  1.
        -12    1    3    3    0    0  0.45004375710E+01 -0.25816277647E+01 -0.25194223501E+00  0.51944407914E+01  0.00000000000E+00 0.  1.
</event>
<event>
 7    1  0.5487071E-013  0.5052886E+02  0.7816164E-02  0.1300439E+00
        -11   -1    0    0    0    0  0.00000000000E+00  0.00000000000E+00  0.45593999997E+02  0.45594000000E+02  0.51100000000E-03 0. -1.
         11   -1    0    0    0    0 -0.00000000000E+00 -0.00000000000E+00 -0.45593999997E+02  0.45594000000E+02  0.51100000000E-03 0.  1.
    9900012    2    1    2    0    0 -0.30609418258E+02  0.41381405491E+01  0.26440587465E+02  0.50528863772E+02  0.30000011921E+02 0.  0.
        -12    1    1    2    0    0  0.30609418258E+02 -0.41381405491E+01 -0.26440587465E+02  0.40659136228E+02  0.00000000000E+00 0.  1.
         11    1    3    3    0    0 -0.20706304314E+02  0.18059150219E+01  0.13436296375E+02  0.24749675310E+02  0.51100000000E-03 0. -1.
        -11    1    3    3    0    0 -0.12720052686E+02  0.54607686136E+01  0.15582106469E+02  0.20842787156E+02  0.51100000000E-03 0.  1.
        -12    1    3    3    0    0  0.28169387420E+01 -0.31285430863E+01 -0.25778153787E+01  0.49364013051E+01  0.00000000000E+00 0.  1.
</event>
<event>
 7    1  0.5487071E-013  0.5052887E+02  0.7816164E-02  0.1300439E+00
        -11   -1    0    0    0    0  0.00000000000E+00  0.00000000000E+00  0.45593999997E+02  0.45594000000E+02  0.51100000000E-03 0. -1.
         11   -1    0    0    0    0 -0.00000000000E+00 -0.00000000000E+00 -0.45593999997E+02  0.45594000000E+02  0.51100000000E-03 0.  1.
    9900012    2    1    2    0    0  0.35429625071E+02  0.18028685580E+02 -0.85365766078E+01  0.50528868472E+02  0.30000026207E+02 0.  0.
        -12    1    1    2    0    0 -0.35429625071E+02 -0.18028685580E+02  0.85365766078E+01  0.40659131528E+02  0.00000000000E+00 0.  1.
         11    1    3    3    0    0  0.20410640697E+02  0.80338121664E+01 -0.49049807935E+01  0.22476548410E+02  0.51100000000E-03 0. -1.
        -11    1    3    3    0    0  0.71974536519E+01 -0.42068489682E+01 -0.76869032719E+01  0.11339726605E+02  0.51100000000E-03 0.  1.
        -12    1    3    3    0    0  0.78215307222E+01  0.14201722382E+02  0.40553074576E+01  0.16712593456E+02  0.00000000000E+00 0.  1.
</event>
<event>
 7    1  0.5487071E-013  0.5052884E+02  0.7816164E-02  0.1300439E+00
        -11   -1    0    0    0    0  0.00000000000E+00  0.00000000000E+00  0.45593999997E+02  0.45594000000E+02  0.51100000000E-03 0.  1.
         11   -1    0    0    0    0 -0.00000000000E+00 -0.00000000000E+00 -0.45593999997E+02  0.45594000000E+02  0.51100000000E-03 0. -1.
    9900012    2    1    2    0    0 -0.14479111891E+02  0.17744597436E+02 -0.33595408456E+02  0.50528844960E+02  0.29999954739E+02 0.  0.
        -12    1    1    2    0    0  0.14479111891E+02 -0.17744597436E+02  0.33595408456E+02  0.40659155040E+02  0.00000000000E+00 0.  1.
         11    1    3    3    0    0 -0.14659541328E+02  0.10808239542E+02 -0.17468414946E+02  0.25236198504E+02  0.51100000000E-03 0. -1.
        -11    1    3    3    0    0 -0.49627124564E+01  0.47659452112E+00  0.20014467711E+01  0.53722850540E+01  0.51100000000E-03 0.  1.
        -12    1    3    3    0    0  0.51431418930E+01  0.64597633722E+01 -0.18128440281E+02  0.19920361402E+02  0.00000000000E+00 0.  1.
</event>
<event>
 7    1  0.5487071E-013  0.5052886E+02  0.7816164E-02  0.1300439E+00
        -11   -1    0    0    0    0  0.00000000000E+00  0.00000000000E+00  0.45593999997E+02  0.45594000000E+02  0.51100000000E-03 0.  1.
         11   -1    0    0    0    0 -0.00000000000E+00 -0.00000000000E+00 -0.45593999997E+02  0.45594000000E+02  0.51100000000E-03 0. -1.
    9900012    2    1    2    0    0  0.13183221471E+02  0.38462160386E+02  0.17540953364E+00  0.50528857382E+02  0.29999992498E+02 0.  0.
        -12    1    1    2    0    0 -0.13183221471E+02 -0.38462160386E+02 -0.17540953364E+00  0.40659142618E+02  0.00000000000E+00 0.  1.
         11    1    3    3    0    0  0.37828755608E+01  0.14345990566E+02 -0.94002286096E+01  0.17563652553E+02  0.51100000000E-03 0.  1.
        -11    1    3    3    0    0  0.22655555287E+01  0.72758602970E+01 -0.53893656840E+01  0.93336031441E+01  0.51100000000E-03 0. -1.
        -12    1    3    3    0    0  0.71347903816E+01  0.16840309523E+02  0.14965003827E+02  0.23631601684E+02  0.00000000000E+00 0.  1.
</event>
<event>
 7    1  0.5487071E-013  0.5052886E+02  0.7816164E-02  0.1300439E+00
        -11   -1    0    0    0    0  0.00000000000E+00  0.00000000000E+00  0.45593999997E+02  0.45594000000E+02  0.51100000000E-03 0.  1.
         11   -1    0    0    0    0 -0.00000000000E+00 -0.00000000000E+00 -0.45593999997E+02  0.45594000000E+02  0.51100000000E-03 0. -1.
    9900012    2    1    2    0    0  0.10192082087E+02  0.21293852626E+02 -0.33103763246E+02  0.50528857879E+02  0.29999994010E+02 0.  0.
        -12    1    1    2    0    0 -0.10192082087E+02 -0.21293852626E+02  0.33103763246E+02  0.40659142121E+02  0.00000000000E+00 0.  1.
         11    1    3    3    0    0 -0.40441951899E+01  0.71915635886E+01 -0.19933032091E+02  0.21573128429E+02  0.51100000000E-03 0. -1.
        -11    1    3    3    0    0  0.10621290712E+01  0.23368906113E+01 -0.10839761484E+02  0.11139551390E+02  0.51100000000E-03 0.  1.
         12    1    3    3    0    0  0.13174148206E+02  0.11765398426E+02 -0.23309696708E+01  0.17816178060E+02  0.00000000000E+00 0. -1.
</event>
<event>
 7    1  0.5487071E-013  0.5052886E+02  0.7816164E-02  0.1300439E+00
        -11   -1    0    0    0    0  0.00000000000E+00  0.00000000000E+00  0.45593999997E+02  0.45594000000E+02  0.51100000000E-03 0.  1.
         11   -1    0    0    0    0 -0.00000000000E+00 -0.00000000000E+00 -0.45593999997E+02  0.45594000000E+02  0.51100000000E-03 0. -1.
    9900012    2    1    2    0    0  0.23596251251E+02  0.28985834152E+02  0.16006364634E+02  0.50528863715E+02  0.30000011749E+02 0.  0.
        -12    1    1    2    0    0 -0.23596251251E+02 -0.28985834152E+02 -0.16006364634E+02  0.40659136285E+02  0.00000000000E+00 0.  1.
         11    1    3    3    0    0  0.14148515138E+02  0.18602627765E+02 -0.10649376907E+01  0.23395989676E+02  0.51100000000E-03 0. -1.
        -11    1    3    3    0    0  0.76420571796E+01  0.13013929255E+02  0.71286046339E+01  0.16690727871E+02  0.51100000000E-03 0.  1.
        -12    1    3    3    0    0  0.18056789334E+01 -0.26307228673E+01  0.99426976911E+01  0.10442146168E+02  0.00000000000E+00 0.  1.
</event>
<event>
 7    1  0.5487071E-013  0.5052885E+02  0.7816164E-02  0.1300439E+00
        -11   -1    0    0    0    0  0.00000000000E+00  0.00000000000E+00  0.45593999997E+02  0.45594000000E+02  0.51100000000E-03 0.  1.
         11   -1    0    0    0    0 -0.00000000000E+00 -0.00000000000E+00 -0.45593999997E+02  0.45594000000E+02  0.51100000000E-03 0. -1.
    9900012    2    1    2    0    0  0.19176825299E+02 -0.13164671940E+02 -0.33348270319E+02  0.50528851594E+02  0.29999974904E+02 0.  0.
        -12    1    1    2    0    0 -0.19176825299E+02  0.13164671940E+02  0.33348270319E+02  0.40659148406E+02  0.00000000000E+00 0.  1.
         11    1    3    3    0    0  0.11351876048E+01  0.11529652702E+01 -0.20306612594E+01  0.25964524305E+01  0.51100000000E-03 0. -1.
        -11    1    3    3    0    0 -0.51064206643E+01 -0.74593792458E+01 -0.88006891313E+00  0.90825322618E+01  0.51100000000E-03 0.  1.
        -12    1    3    3    0    0  0.23148058359E+02 -0.68582579645E+01 -0.30437540146E+02  0.38849866901E+02  0.00000000000E+00 0.  1.
</event>
<event>
 7    1  0.5487071E-013  0.5052886E+02  0.7816164E-02  0.1300439E+00
        -11   -1    0    0    0    0  0.00000000000E+00  0.00000000000E+00  0.45593999997E+02  0.45594000000E+02  0.51100000000E-03 0.  1.
         11   -1    0    0    0    0 -0.00000000000E+00 -0.00000000000E+00 -0.45593999997E+02  0.45594000000E+02  0.51100000000E-03 0. -1.
    9900012    2    1    2    0    0 -0.32447544712E+02 -0.61854023785E+01 -0.23707870768E+02  0.50528862075E+02  0.30000006764E+02 0.  0.
        -12    1    1    2    0    0  0.32447544712E+02  0.61854023785E+01  0.23707870768E+02  0.40659137925E+02  0.00000000000E+00 0.  1.
         11    1    3    3    0    0  0.23823319420E+01 -0.24867553438E+01 -0.22432010537E+01  0.41099159176E+01  0.51100000000E-03 0.  1.
        -11    1    3    3    0    0 -0.98181969154E+01 -0.86326404924E+01 -0.15424159429E+02  0.20219400755E+02  0.51100000000E-03 0. -1.
        -12    1    3    3    0    0 -0.25011679739E+02  0.49339934577E+01 -0.60405102851E+01  0.26199545402E+02  0.00000000000E+00 0.  1.
</event>
<event>
 7    1  0.5487071E-013  0.5052884E+02  0.7816164E-02  0.1300439E+00
        -11   -1    0    0    0    0  0.00000000000E+00  0.00000000000E+00  0.45593999997E+02  0.45594000000E+02  0.51100000000E-03 0. -1.
         11   -1    0    0    0    0 -0.00000000000E+00 -0.00000000000E+00 -0.45593999997E+02  0.45594000000E+02  0.51100000000E-03 0.  1.
    9900012    2    1    2    0    0  0.38156535819E+02 -0.13751328662E+02  0.28542306497E+01  0.50528844840E+02  0.29999954376E+02 0.  0.
        -12    1    1    2    0    0 -0.38156535819E+02  0.13751328662E+02 -0.28542306497E+01  0.40659155160E+02  0.00000000000E+00 0.  1.
         11    1    3    3    0    0  0.93574373177E+01 -0.82906776224E+01  0.59906325658E+00  0.12516223298E+02  0.51100000000E-03 0. -1.
        -11    1    3    3    0    0  0.31620119891E+00 -0.86512165659E+01 -0.23823578558E+01  0.89788173209E+01  0.51100000000E-03 0.  1.
         12    1    3    3    0    0  0.28482897303E+02  0.31905655261E+01  0.46375252490E+01  0.29033804221E+02  0.00000000000E+00 0. -1.
</event>
<event>
 7    1  0.5487071E-013  0.5052885E+02  0.7816164E-02  0.1300439E+00
        -11   -1    0    0    0    0  0.00000000000E+00  0.00000000000E+00  0.45593999997E+02  0.45594000000E+02  0.51100000000E-03 0. -1.
         11   -1    0    0    0    0 -0.00000000000E+00 -0.00000000000E+00 -0.45593999997E+02  0.45594000000E+02  0.51100000000E-03 0.  1.
    9900012    2    1    2    0    0 -0.19563218984E+02  0.12170752969E+02  0.33501038039E+02  0.50528852019E+02  0.29999976198E+02 0.  0.
        -12    1    1    2    0    0  0.19563218984E+02 -0.12170752969E+02 -0.33501038039E+02  0.40659147981E+02  0.00000000000E+00 0.  1.
         11    1    3    3    0    0  0.45501779078E+01  0.59550665575E+01  0.92992594008E+01  0.11943331292E+02  0.51100000000E-03 0. -1.
        -11    1    3    3    0    0 -0.84518604924E+01  0.56740800630E+01  0.52618363464E+00  0.10193429247E+02  0.51100000000E-03 0.  1.
        -12    1    3    3    0    0 -0.15661536399E+02  0.54160634861E+00  0.23675595003E+02  0.28392091479E+02  0.00000000000E+00 0.  1.
</event>
<event>
 7    1  0.5487071E-013  0.5052888E+02  0.7816164E-02  0.1300439E+00
        -11   -1    0    0    0    0  0.00000000000E+00  0.00000000000E+00  0.45593999997E+02  0.45594000000E+02  0.51100000000E-03 0. -1.
         11   -1    0    0    0    0 -0.00000000000E+00 -0.00000000000E+00 -0.45593999997E+02  0.45594000000E+02  0.51100000000E-03 0.  1.
    9900012    2    1    2    0    0  0.28325700487E+02  0.13235937568E+02  0.25992853258E+02  0.50528883287E+02  0.30000071239E+02 0.  0.
        -12    1    1    2    0    0 -0.28325700487E+02 -0.13235937568E+02 -0.25992853258E+02  0.40659116713E+02  0.00000000000E+00 0.  1.
         11    1    3    3    0    0 -0.27002032647E+01 -0.48645576256E+00  0.33645533500E+01  0.43414233134E+01  0.51100000000E-03 0. -1.
        -11    1    3    3    0    0  0.28239220628E+01  0.59011629138E+01 -0.30821299434E+01  0.72317207358E+01  0.51100000000E-03 0.  1.
         12    1    3    3    0    0  0.28201981689E+02  0.78212304167E+01  0.25710429852E+02  0.38955739238E+02  0.00000000000E+00 0. -1.
</event>
<event>
 7    1  0.5487071E-013  0.5052885E+02  0.7816164E-02  0.1300439E+00
        -11   -1    0    0    0    0  0.00000000000E+00  0.00000000000E+00  0.45593999997E+02  0.45594000000E+02  0.51100000000E-03 0. -1.
         11   -1    0    0    0    0 -0.00000000000E+00 -0.00000000000E+00 -0.45593999997E+02  0.45594000000E+02  0.51100000000E-03 0.  1.
    9900012    2    1    2    0    0  0.30792509641E+02  0.19844623649E+02  0.17640250931E+02  0.50528853542E+02  0.29999980827E+02 0.  0.
        -12    1    1    2    0    0 -0.30792509641E+02 -0.19844623649E+02 -0.17640250931E+02  0.40659146458E+02  0.00000000000E+00 0.  1.
         11    1    3    3    0    0  0.23959762548E+02  0.14046992159E+02  0.14091190016E+02  0.31144017826E+02  0.51100000000E-03 0. -1.
        -11    1    3    3    0    0  0.10488742221E+02  0.16438408882E+01  0.71344475275E+01  0.12791257484E+02  0.51100000000E-03 0.  1.
        -12    1    3    3    0    0 -0.36559951273E+01  0.41537906026E+01 -0.35853866124E+01  0.65935782320E+01  0.00000000000E+00 0.  1.
</event>
<event>
 7    1  0.5487071E-013  0.5052891E+02  0.7816164E-02  0.1300439E+00
        -11   -1    0    0    0    0  0.00000000000E+00  0.00000000000E+00  0.45593999997E+02  0.45594000000E+02  0.51100000000E-03 0.  1.
         11   -1    0    0    0    0 -0.00000000000E+00 -0.00000000000E+00 -0.45593999997E+02  0.45594000000E+02  0.51100000000E-03 0. -1.
    9900012    2    1    2    0    0 -0.12699020718E+02  0.13316853779E+01 -0.38602115212E+02  0.50528907389E+02  0.30000144498E+02 0.  0.
        -12    1    1    2    0    0  0.12699020718E+02 -0.13316853779E+01  0.38602115212E+02  0.40659092611E+02  0.00000000000E+00 0.  1.
         11    1    3    3    0    0  0.14016721359E+01  0.25072475317E+01 -0.22631838226E+00  0.28813530212E+01  0.51100000000E-03 0. -1.
        -11    1    3    3    0    0 -0.10565941215E+02 -0.11396347685E+02 -0.13744924751E+02  0.20747019328E+02  0.51100000000E-03 0.  1.
         12    1    3    3    0    0 -0.35347516383E+01  0.10220785532E+02 -0.24630872079E+02  0.26900535039E+02  0.00000000000E+00 0. -1.
</event>
<event>
 7    1  0.5487071E-013  0.5052895E+02  0.7816164E-02  0.1300438E+00
        -11   -1    0    0    0    0  0.00000000000E+00  0.00000000000E+00  0.45593999997E+02  0.45594000000E+02  0.51100000000E-03 0. -1.
         11   -1    0    0    0    0 -0.00000000000E+00 -0.00000000000E+00 -0.45593999997E+02  0.45594000000E+02  0.51100000000E-03 0.  1.
    9900012    2    1    2    0    0 -0.14138007649E+02  0.37608322721E+02  0.62361456006E+01  0.50528945533E+02  0.30000260442E+02 0.  0.
        -12    1    1    2    0    0  0.14138007649E+02 -0.37608322721E+02 -0.62361456006E+01  0.40659054467E+02  0.00000000000E+00 0.  1.
         11    1    3    3    0    0  0.53723942986E+01  0.59172782512E+01  0.33297576022E+00  0.79992296829E+01  0.51100000000E-03 0. -1.
        -11    1    3    3    0    0 -0.16942784924E+02  0.89737388615E+01  0.40272515198E+01  0.19590934261E+02  0.51100000000E-03 0.  1.
         12    1    3    3    0    0 -0.25676170237E+01  0.22717305608E+02  0.18759183205E+01  0.22938781590E+02  0.00000000000E+00 0. -1.
</event>
<event>
 7    1  0.5487071E-013  0.5052886E+02  0.7816164E-02  0.1300439E+00
        -11   -1    0    0    0    0  0.00000000000E+00  0.00000000000E+00  0.45593999997E+02  0.45594000000E+02  0.51100000000E-03 0. -1.
         11   -1    0    0    0    0 -0.00000000000E+00 -0.00000000000E+00 -0.45593999997E+02  0.45594000000E+02  0.51100000000E-03 0.  1.
    9900012    2    1    2    0    0 -0.59310602194E+01  0.39357953456E+02  0.83029788777E+01  0.50528862850E+02  0.30000009119E+02 0.  0.
        -12    1    1    2    0    0  0.59310602194E+01 -0.39357953456E+02 -0.83029788777E+01  0.40659137150E+02  0.00000000000E+00 0.  1.
         11    1    3    3    0    0 -0.10276016694E+02  0.33420064273E+02  0.70127790679E+01  0.35660570462E+02  0.51100000000E-03 0. -1.
        -11    1    3    3    0    0 -0.43342098804E+01  0.34997266539E+01 -0.76169086651E+00  0.56226003927E+01  0.51100000000E-03 0.  1.
         12    1    3    3    0    0  0.86791663550E+01  0.24381625283E+01  0.20518906763E+01  0.92456919957E+01  0.00000000000E+00 0. -1.
</event>
<event>
 7    1  0.5487071E-013  0.5052886E+02  0.7816164E-02  0.1300439E+00
        -11   -1    0    0    0    0  0.00000000000E+00  0.00000000000E+00  0.45593999997E+02  0.45594000000E+02  0.51100000000E-03 0.  1.
         11   -1    0    0    0    0 -0.00000000000E+00 -0.00000000000E+00 -0.45593999997E+02  0.45594000000E+02  0.51100000000E-03 0. -1.
    9900012    2    1    2    0    0  0.11697219227E+02 -0.15481103659E+02 -0.35730606914E+02  0.50528858610E+02  0.29999996230E+02 0.  0.
        -12    1    1    2    0    0 -0.11697219227E+02  0.15481103659E+02  0.35730606914E+02  0.40659141390E+02  0.00000000000E+00 0.  1.
         11    1    3    3    0    0 -0.26976760055E+01 -0.15960077867E+02 -0.29927448949E+02  0.34024311047E+02  0.51100000000E-03 0. -1.
        -11    1    3    3    0    0 -0.95515784060E-01 -0.60618596374E+00  0.37008723355E+00  0.71662368730E+00  0.51100000000E-03 0.  1.
         12    1    3    3    0    0  0.14490411016E+02  0.10851601720E+01 -0.61732451987E+01  0.15787923876E+02  0.00000000000E+00 0. -1.
</event>
<event>
 7    1  0.5487071E-013  0.5052886E+02  0.7816164E-02  0.1300439E+00
        -11   -1    0    0    0    0  0.00000000000E+00  0.00000000000E+00  0.45593999997E+02  0.45594000000E+02  0.51100000000E-03 0.  1.
         11   -1    0    0    0    0 -0.00000000000E+00 -0.00000000000E+00 -0.45593999997E+02  0.45594000000E+02  0.51100000000E-03 0. -1.
    9900012    2    1    2    0    0  0.71313982179E+01 -0.29792734044E+02 -0.26733905167E+02  0.50528861693E+02  0.30000005602E+02 0.  0.
        -12    1    1    2    0    0 -0.71313982179E+01  0.29792734044E+02  0.26733905167E+02  0.40659138307E+02  0.00000000000E+00 0.  1.
         11    1    3    3    0    0  0.97656068263E+01 -0.14867555814E+02 -0.93817573736E+01  0.20110411837E+02  0.51100000000E-03 0. -1.
        -11    1    3    3    0    0  0.13593179941E+01  0.34354498673E+01  0.13251032154E+01  0.39250426740E+01  0.51100000000E-03 0.  1.
         12    1    3    3    0    0 -0.39935266025E+01 -0.18360628097E+02 -0.18677251009E+02  0.26493407182E+02  0.00000000000E+00 0. -1.
</event>
<event>
 7    1  0.5487071E-013  0.5052884E+02  0.7816164E-02  0.1300439E+00
        -11   -1    0    0    0    0  0.00000000000E+00  0.00000000000E+00  0.45593999997E+02  0.45594000000E+02  0.51100000000E-03 0. -1.
         11   -1    0    0    0    0 -0.00000000000E+00 -0.00000000000E+00 -0.45593999997E+02  0.45594000000E+02  0.51100000000E-03 0.  1.
    9900012    2    1    2    0    0  0.20501580446E+02  0.30286834667E+02  0.17764001830E+02  0.50528844623E+02  0.29999953716E+02 0.  0.
        -12    1    1    2    0    0 -0.20501580446E+02 -0.30286834667E+02 -0.17764001830E+02  0.40659155377E+02  0.00000000000E+00 0.  1.
         11    1    3    3    0    0  0.17979361140E+02  0.46325063550E+01  0.66118842661E+01  0.19708743134E+02  0.51100000000E-03 0. -1.
        -11    1    3    3    0    0  0.45162827983E+01  0.37624587002E+01 -0.57307577954E+00  0.59060411355E+01  0.51100000000E-03 0.  1.
        -12    1    3    3    0    0 -0.19940634918E+01  0.21891869612E+02  0.11725193344E+02  0.24914060353E+02  0.00000000000E+00 0.  1.
</event>
<event>
 7    1  0.5487071E-013  0.5052890E+02  0.7816164E-02  0.1300439E+00
        -11   -1    0    0    0    0  0.00000000000E+00  0.00000000000E+00  0.45593999997E+02  0.45594000000E+02  0.51100000000E-03 0.  1.
         11   -1    0    0    0    0 -0.00000000000E+00 -0.00000000000E+00 -0.45593999997E+02  0.45594000000E+02  0.51100000000E-03 0. -1.
    9900012    2    1    2    0    0  0.39881208125E+02 -0.68762367061E+01  0.39202892475E+01  0.50528904332E+02  0.30000135208E+02 0.  0.
        -12    1    1    2    0    0 -0.39881208125E+02  0.68762367061E+01 -0.39202892475E+01  0.40659095668E+02  0.00000000000E+00 0.  1.
         11    1    3    3    0    0  0.20993578595E+02 -0.84597983286E+01  0.94423523011E+01  0.24524611051E+02  0.51100000000E-03 0. -1.
        -11    1    3    3    0    0  0.76773238791E+01  0.30588576489E+00  0.60968855291E+01  0.98085106648E+01  0.51100000000E-03 0.  1.
        -12    1    3    3    0    0  0.11210305651E+02  0.12776758576E+01 -0.11618948583E+02  0.16195782616E+02  0.00000000000E+00 0.  1.
</event>
<event>
 7    1  0.5487071E-013  0.5052886E+02  0.7816164E-02  0.1300439E+00
        -11   -1    0    0    0    0  0.00000000000E+00  0.00000000000E+00  0.45593999997E+02  0.45594000000E+02  0.51100000000E-03 0. -1.
         11   -1    0    0    0    0 -0.00000000000E+00 -0.00000000000E+00 -0.45593999997E+02  0.45594000000E+02  0.51100000000E-03 0.  1.
    9900012    2    1    2    0    0  0.10375119375E+02 -0.27363191601E+02  0.28227259249E+02  0.50528861773E+02  0.30000005846E+02 0.  0.
        -12    1    1    2    0    0 -0.10375119375E+02  0.27363191601E+02 -0.28227259249E+02  0.40659138227E+02  0.00000000000E+00 0.  1.
         11    1    3    3    0    0 -0.48016407595E+00 -0.78192581648E+01  0.77683198487E+01  0.11032594859E+02  0.51100000000E-03 0.  1.
        -11    1    3    3    0    0  0.11182867619E+02  0.20207832512E+01  0.11422342968E+02  0.16112417952E+02  0.51100000000E-03 0. -1.
         12    1    3    3    0    0 -0.32758416734E+00 -0.21564716688E+02  0.90365964316E+01  0.23383848962E+02  0.00000000000E+00 0. -1.
</event>
<event>
 7    1  0.5487071E-013  0.5052886E+02  0.7816164E-02  0.1300439E+00
        -11   -1    0    0    0    0  0.00000000000E+00  0.00000000000E+00  0.45593999997E+02  0.45594000000E+02  0.51100000000E-03 0.  1.
         11   -1    0    0    0    0 -0.00000000000E+00 -0.00000000000E+00 -0.45593999997E+02  0.45594000000E+02  0.51100000000E-03 0. -1.
    9900012    2    1    2    0    0 -0.34060471286E+02  0.20895608317E+02 -0.75115599837E+01  0.50528859766E+02  0.29999999746E+02 0.  0.
        -12    1    1    2    0    0  0.34060471286E+02 -0.20895608317E+02  0.75115599837E+01  0.40659140234E+02  0.00000000000E+00 0.  1.
         11    1    3    3    0    0 -0.63799847542E+01  0.68455101343E+01 -0.57511538066E+01  0.10983669006E+02  0.51100000000E-03 0. -1.
        -11    1    3    3    0    0 -0.76900482235E+01  0.17596255297E+02 -0.79302393337E+00  0.19219623550E+02  0.51100000000E-03 0.  1.
        -12    1    3    3    0    0 -0.19990438308E+02 -0.35461571146E+01 -0.96738224366E+00  0.20325567211E+02  0.00000000000E+00 0.  1.
</event>
<event>
 7    1  0.5487071E-013  0.5052886E+02  0.7816164E-02  0.1300439E+00
        -11   -1    0    0    0    0  0.00000000000E+00  0.00000000000E+00  0.45593999997E+02  0.45594000000E+02  0.51100000000E-03 0. -1.
         11   -1    0    0    0    0 -0.00000000000E+00 -0.00000000000E+00 -0.45593999997E+02  0.45594000000E+02  0.51100000000E-03 0.  1.
    9900012    2    1    2    0    0 -0.37936775613E+02 -0.14543447487E+02  0.15668648358E+01  0.50528857435E+02  0.29999992658E+02 0.  0.
        -12    1    1    2    0    0  0.37936775613E+02  0.14543447487E+02 -0.15668648358E+01  0.40659142565E+02  0.00000000000E+00 0.  1.
         11    1    3    3    0    0 -0.21324560286E+02 -0.21692593759E+02 -0.31259134950E+01  0.30579025996E+02  0.51100000000E-03 0. -1.
        -11    1    3    3    0    0  0.19044734477E+00  0.14210652840E+01  0.11720835958E+01  0.18518847019E+01  0.51100000000E-03 0.  1.
         12    1    3    3    0    0 -0.16802662672E+02  0.57280809885E+01  0.35206947350E+01  0.18097946737E+02  0.00000000000E+00 0. -1.
</event>
<event>
 7    1  0.5487071E-013  0.5052887E+02  0.7816164E-02  0.1300439E+00
        -11   -1    0    0    0    0  0.00000000000E+00  0.00000000000E+00  0.45593999997E+02  0.45594000000E+02  0.51100000000E-03 0.  1.
         11   -1    0    0    0    0 -0.00000000000E+00 -0.00000000000E+00 -0.45593999997E+02  0.45594000000E+02  0.51100000000E-03 0. -1.
    9900012    2    1    2    0    0 -0.17545951123E+02 -0.12099922080E+02 -0.34625081781E+02  0.50528870600E+02  0.30000032677E+02 0.  0.
        -12    1    1    2    0    0  0.17545951123E+02  0.12099922080E+02  0.34625081781E+02  0.40659129400E+02  0.00000000000E+00 0.  1.
         11    1    3    3    0    0 -0.11380693793E+02  0.27793042571E+01 -0.14936913710E+02  0.18983048090E+02  0.51100000000E-03 0. -1.
        -11    1    3    3    0    0 -0.12091490780E+02 -0.14125703297E+02 -0.15957439935E+02  0.24502643377E+02  0.51100000000E-03 0.  1.
        -12    1    3    3    0    0  0.59262334498E+01 -0.75352304020E+00 -0.37307281364E+01  0.70431791331E+01  0.00000000000E+00 0.  1.
</event>
<event>
 7    1  0.5487071E-013  0.5052886E+02  0.7816164E-02  0.1300439E+00
        -11   -1    0    0    0    0  0.00000000000E+00  0.00000000000E+00  0.45593999997E+02  0.45594000000E+02  0.51100000000E-03 0.  1.
         11   -1    0    0    0    0 -0.00000000000E+00 -0.00000000000E+00 -0.45593999997E+02  0.45594000000E+02  0.51100000000E-03 0. -1.
    9900012    2    1    2    0    0  0.16208223057E+02  0.31676487222E+02 -0.19673818259E+02  0.50528862499E+02  0.30000008053E+02 0.  0.
        -12    1    1    2    0    0 -0.16208223057E+02 -0.31676487222E+02  0.19673818259E+02  0.40659137501E+02  0.00000000000E+00 0.  1.
         11    1    3    3    0    0  0.11961290635E+01 -0.20977593939E+01  0.14343744598E+01  0.28086917886E+01  0.51100000000E-03 0. -1.
        -11    1    3    3    0    0  0.13198990486E+02  0.52323677800E+01 -0.69340692589E+01  0.15801023359E+02  0.51100000000E-03 0.  1.
         12    1    3    3    0    0  0.18131035078E+01  0.28541878836E+02 -0.14174123460E+02  0.31919147352E+02  0.00000000000E+00 0. -1.
</event>
<event>
 7    1  0.5487071E-013  0.5052886E+02  0.7816164E-02  0.1300439E+00
        -11   -1    0    0    0    0  0.00000000000E+00  0.00000000000E+00  0.45593999997E+02  0.45594000000E+02  0.51100000000E-03 0.  1.
         11   -1    0    0    0    0 -0.00000000000E+00 -0.00000000000E+00 -0.45593999997E+02  0.45594000000E+02  0.51100000000E-03 0. -1.
    9900012    2    1    2    0    0 -0.13964433434E+02  0.67962046303E+01 -0.37576213145E+02  0.50528860894E+02  0.30000003175E+02 0.  0.
        -12    1    1    2    0    0  0.13964433434E+02 -0.67962046303E+01  0.37576213145E+02  0.40659139106E+02  0.00000000000E+00 0.  1.
         11    1    3    3    0    0 -0.10415491465E+02  0.73029430853E+01 -0.17318784855E+02  0.21488502723E+02  0.51100000000E-03 0. -1.
        -11    1    3    3    0    0  0.13420356641E+01 -0.24151559045E+01 -0.22966773915E+02  0.23132374328E+02  0.51100000000E-03 0.  1.
        -12    1    3    3    0    0 -0.48909776330E+01  0.19084174496E+01  0.27093456253E+01  0.59079838427E+01  0.00000000000E+00 0.  1.
</event>
<event>
 7    1  0.5487071E-013  0.5052886E+02  0.7816164E-02  0.1300439E+00
        -11   -1    0    0    0    0  0.00000000000E+00  0.00000000000E+00  0.45593999997E+02  0.45594000000E+02  0.51100000000E-03 0.  1.
         11   -1    0    0    0    0 -0.00000000000E+00 -0.00000000000E+00 -0.45593999997E+02  0.45594000000E+02  0.51100000000E-03 0. -1.
    9900012    2    1    2    0    0 -0.53317656556E+01  0.36514714190E+02 -0.17070843732E+02  0.50528858554E+02  0.29999996062E+02 0.  0.
        -12    1    1    2    0    0  0.53317656556E+01 -0.36514714190E+02  0.17070843732E+02  0.40659141446E+02  0.00000000000E+00 0.  1.
         11    1    3    3    0    0 -0.88179718228E+01  0.24360056024E+01 -0.54819536291E+01  0.10665015997E+02  0.51100000000E-03 0. -1.
        -11    1    3    3    0    0  0.10615669548E+01  0.69154240625E+01  0.43865826359E+01  0.82578521327E+01  0.51100000000E-03 0.  1.
         12    1    3    3    0    0  0.24246392124E+01  0.27163284525E+02 -0.15975472739E+02  0.31605990425E+02  0.00000000000E+00 0. -1.
</event>
<event>
 7    1  0.5487071E-013  0.5052886E+02  0.7816164E-02  0.1300439E+00
        -11   -1    0    0    0    0  0.00000000000E+00  0.00000000000E+00  0.45593999997E+02  0.45594000000E+02  0.51100000000E-03 0. -1.
         11   -1    0    0    0    0 -0.00000000000E+00 -0.00000000000E+00 -0.45593999997E+02  0.45594000000E+02  0.51100000000E-03 0.  1.
    9900012    2    1    2    0    0 -0.17721355731E+02 -0.82649840798E+01  0.35648415294E+02  0.50528856825E+02  0.29999990804E+02 0.  0.
        -12    1    1    2    0    0  0.17721355731E+02  0.82649840798E+01 -0.35648415294E+02  0.40659143175E+02  0.00000000000E+00 0.  1.
         11    1    3    3    0    0 -0.83002810590E+01 -0.12733393205E+02  0.21202079926E+02  0.26087586352E+02  0.51100000000E-03 0. -1.
        -11    1    3    3    0    0 -0.79352407097E-01 -0.45479224149E+01  0.95274374251E+01  0.10557554605E+02  0.51100000000E-03 0.  1.
        -12    1    3    3    0    0 -0.93417222650E+01  0.90163315405E+01  0.49188979424E+01  0.13883715868E+02  0.00000000000E+00 0.  1.
</event>
<event>
 7    1  0.5487071E-013  0.5052886E+02  0.7816164E-02  0.1300439E+00
        -11   -1    0    0    0    0  0.00000000000E+00  0.00000000000E+00  0.45593999997E+02  0.45594000000E+02  0.51100000000E-03 0. -1.
         11   -1    0    0    0    0 -0.00000000000E+00 -0.00000000000E+00 -0.45593999997E+02  0.45594000000E+02  0.51100000000E-03 0.  1.
    9900012    2    1    2    0    0  0.25245699650E+02  0.31241049336E+02  0.63100540085E+01  0.50528864544E+02  0.30000014269E+02 0.  0.
        -12    1    1    2    0    0 -0.25245699650E+02 -0.31241049336E+02 -0.63100540085E+01  0.40659135456E+02  0.00000000000E+00 0.  1.
         11    1    3    3    0    0  0.89577924321E+01  0.29616433553E+02 -0.29173140602E+01  0.31078704980E+02  0.51100000000E-03 0. -1.
        -11    1    3    3    0    0 -0.94058069419E-01 -0.48341694423E+00  0.71620489798E+00  0.86918846023E+00  0.51100000000E-03 0.  1.
         12    1    3    3    0    0  0.16381965287E+02  0.21080327272E+01  0.85111631707E+01  0.18580971104E+02  0.00000000000E+00 0. -1.
</event>
<event>
 7    1  0.5487071E-013  0.5052886E+02  0.7816164E-02  0.1300439E+00
        -11   -1    0    0    0    0  0.00000000000E+00  0.00000000000E+00  0.45593999997E+02  0.45594000000E+02  0.51100000000E-03 0. -1.
         11   -1    0    0    0    0 -0.00000000000E+00 -0.00000000000E+00 -0.45593999997E+02  0.45594000000E+02  0.51100000000E-03 0.  1.
    9900012    2    1    2    0    0 -0.30769198304E+02  0.25715816920E+02 -0.67170651698E+01  0.50528858732E+02  0.29999996602E+02 0.  0.
        -12    1    1    2    0    0  0.30769198304E+02 -0.25715816920E+02  0.67170651698E+01  0.40659141268E+02  0.00000000000E+00 0.  1.
         11    1    3    3    0    0  0.20848257387E+01  0.37673404352E+00  0.12703819102E+01  0.24702828500E+01  0.51100000000E-03 0. -1.
        -11    1    3    3    0    0 -0.34033262570E+02  0.22167246555E+02 -0.13850468923E+01  0.40639489861E+02  0.51100000000E-03 0.  1.
         12    1    3    3    0    0  0.11792385266E+01  0.31718363211E+01 -0.66024001877E+01  0.74190860211E+01  0.00000000000E+00 0. -1.
</event>
<event>
 7    1  0.5487071E-013  0.5052885E+02  0.7816164E-02  0.1300439E+00
        -11   -1    0    0    0    0  0.00000000000E+00  0.00000000000E+00  0.45593999997E+02  0.45594000000E+02  0.51100000000E-03 0.  1.
         11   -1    0    0    0    0 -0.00000000000E+00 -0.00000000000E+00 -0.45593999997E+02  0.45594000000E+02  0.51100000000E-03 0. -1.
    9900012    2    1    2    0    0  0.98958491969E+01 -0.19188432337E+02 -0.34453487918E+02  0.50528848550E+02  0.29999965653E+02 0.  0.
        -12    1    1    2    0    0 -0.98958491969E+01  0.19188432337E+02  0.34453487918E+02  0.40659151450E+02  0.00000000000E+00 0.  1.
         11    1    3    3    0    0  0.42320949720E+01  0.52832689548E+01 -0.79896046260E+01  0.10471740115E+02  0.51100000000E-03 0. -1.
        -11    1    3    3    0    0  0.23567542299E+01 -0.37292820235E+01 -0.15987557282E+02  0.16585048177E+02  0.51100000000E-03 0.  1.
        -12    1    3    3    0    0  0.33069999951E+01 -0.20742419269E+02 -0.10476326010E+02  0.23472060258E+02  0.00000000000E+00 0.  1.
</event>
<event>
 7    1  0.5487071E-013  0.5052886E+02  0.7816164E-02  0.1300439E+00
        -11   -1    0    0    0    0  0.00000000000E+00  0.00000000000E+00  0.45593999997E+02  0.45594000000E+02  0.51100000000E-03 0. -1.
         11   -1    0    0    0    0 -0.00000000000E+00 -0.00000000000E+00 -0.45593999997E+02  0.45594000000E+02  0.51100000000E-03 0.  1.
    9900012    2    1    2    0    0 -0.16314384871E+02 -0.32034772501E+02 -0.18994215553E+02  0.50528855550E+02  0.29999986930E+02 0.  0.
        -12    1    1    2    0    0  0.16314384871E+02  0.32034772501E+02  0.18994215553E+02  0.40659144450E+02  0.00000000000E+00 0.  1.
         11    1    3    3    0    0 -0.39702449044E+01 -0.65214842041E+01  0.73262553592E+01  0.10581428007E+02  0.51100000000E-03 0. -1.
        -11    1    3    3    0    0 -0.51695404249E+00 -0.34748556296E+01  0.16718240580E+00  0.35170745438E+01  0.51100000000E-03 0.  1.
        -12    1    3    3    0    0 -0.11827185924E+02 -0.22038432667E+02 -0.26487653318E+02  0.36430352999E+02  0.00000000000E+00 0.  1.
</event>
<event>
 7    1  0.5487071E-013  0.5052886E+02  0.7816164E-02  0.1300439E+00
        -11   -1    0    0    0    0  0.00000000000E+00  0.00000000000E+00  0.45593999997E+02  0.45594000000E+02  0.51100000000E-03 0.  1.
         11   -1    0    0    0    0 -0.00000000000E+00 -0.00000000000E+00 -0.45593999997E+02  0.45594000000E+02  0.51100000000E-03 0. -1.
    9900012    2    1    2    0    0  0.13671670951E+01 -0.54011982597E+01 -0.40275594414E+02  0.50528860881E+02  0.30000003135E+02 0.  0.
        -12    1    1    2    0    0 -0.13671670951E+01  0.54011982597E+01  0.40275594414E+02  0.40659139119E+02  0.00000000000E+00 0.  1.
         11    1    3    3    0    0  0.71544296066E+00  0.75159045918E+01 -0.19115332171E+02  0.20552289525E+02  0.51100000000E-03 0. -1.
        -11    1    3    3    0    0  0.27366720529E+01 -0.28804842706E+01  0.21458801140E+01  0.45156799359E+01  0.51100000000E-03 0.  1.
        -12    1    3    3    0    0 -0.20849479185E+01 -0.10036618581E+02 -0.23306142356E+02  0.25460891420E+02  0.00000000000E+00 0.  1.
</event>
<event>
 7    1  0.5487071E-013  0.5052886E+02  0.7816164E-02  0.1300439E+00
        -11   -1    0    0    0    0  0.00000000000E+00  0.00000000000E+00  0.45593999997E+02  0.45594000000E+02  0.51100000000E-03 0.  1.
         11   -1    0    0    0    0 -0.00000000000E+00 -0.00000000000E+00 -0.45593999997E+02  0.45594000000E+02  0.51100000000E-03 0. -1.
    9900012    2    1    2    0    0  0.25904230868E+02 -0.22484729383E+02 -0.21830570264E+02  0.50528855514E+02  0.29999986820E+02 0.  0.
        -12    1    1    2    0    0 -0.25904230868E+02  0.22484729383E+02  0.21830570264E+02  0.40659144486E+02  0.00000000000E+00 0.  1.
         11    1    3    3    0    0  0.22752570672E+02 -0.15061004119E+02 -0.13733005311E+02  0.30546828843E+02  0.51100000000E-03 0. -1.
        -11    1    3    3    0    0  0.80106921412E+01 -0.90921823775E+01 -0.85412789819E+01  0.14825397663E+02  0.51100000000E-03 0.  1.
        -12    1    3    3    0    0 -0.48590319451E+01  0.16684571128E+01  0.44371402881E+00  0.51566290074E+01  0.00000000000E+00 0.  1.
</event>
<event>
 7    1  0.5487071E-013  0.5052886E+02  0.7816164E-02  0.1300439E+00
        -11   -1    0    0    0    0  0.00000000000E+00  0.00000000000E+00  0.45593999997E+02  0.45594000000E+02  0.51100000000E-03 0.  1.
         11   -1    0    0    0    0 -0.00000000000E+00 -0.00000000000E+00 -0.45593999997E+02  0.45594000000E+02  0.51100000000E-03 0. -1.
    9900012    2    1    2    0    0 -0.21621549195E+02  0.34301638734E+02 -0.30119089452E+01  0.50528863205E+02  0.30000010198E+02 0.  0.
        -12    1    1    2    0    0  0.21621549195E+02 -0.34301638734E+02  0.30119089452E+01  0.40659136795E+02  0.00000000000E+00 0.  1.
         11    1    3    3    0    0 -0.17517078410E+02  0.31161851749E+02  0.65479595807E+01  0.36342603311E+02  0.51100000000E-03 0. -1.
        -11    1    3    3    0    0 -0.68664665312E+01  0.11141981641E+01 -0.54548898411E+01  0.88400013356E+01  0.51100000000E-03 0.  1.
        -12    1    3    3    0    0  0.27619957462E+01  0.20255888201E+01 -0.41049786848E+01  0.53462585584E+01  0.00000000000E+00 0.  1.
</event>
<event>
 7    1  0.5487071E-013  0.5052888E+02  0.7816164E-02  0.1300439E+00
        -11   -1    0    0    0    0  0.00000000000E+00  0.00000000000E+00  0.45593999997E+02  0.45594000000E+02  0.51100000000E-03 0. -1.
         11   -1    0    0    0    0 -0.00000000000E+00 -0.00000000000E+00 -0.45593999997E+02  0.45594000000E+02  0.51100000000E-03 0.  1.
    9900012    2    1    2    0    0  0.26814364262E+02 -0.29453275070E+02 -0.81644732047E+01  0.50528878443E+02  0.30000056515E+02 0.  0.
        -12    1    1    2    0    0 -0.26814364262E+02  0.29453275070E+02  0.81644732047E+01  0.40659121557E+02  0.00000000000E+00 0.  1.
         11    1    3    3    0    0  0.58313744483E+01 -0.13043335790E+01  0.42174312233E+01  0.73138868207E+01  0.51100000000E-03 0. -1.
        -11    1    3    3    0    0  0.17060777547E+02 -0.79622142589E+01  0.70362915401E+00  0.18840437379E+02  0.51100000000E-03 0.  1.
         12    1    3    3    0    0  0.39222122668E+01 -0.20186727232E+02 -0.13085533582E+02  0.24374554243E+02  0.00000000000E+00 0. -1.
</event>
<event>
 7    1  0.5487071E-013  0.5052886E+02  0.7816164E-02  0.1300439E+00
        -11   -1    0    0    0    0  0.00000000000E+00  0.00000000000E+00  0.45593999997E+02  0.45594000000E+02  0.51100000000E-03 0.  1.
         11   -1    0    0    0    0 -0.00000000000E+00 -0.00000000000E+00 -0.45593999997E+02  0.45594000000E+02  0.51100000000E-03 0. -1.
    9900012    2    1    2    0    0  0.14503501883E+02  0.37884798070E+02  0.27488156986E+01  0.50528862289E+02  0.30000007412E+02 0.  0.
        -12    1    1    2    0    0 -0.14503501883E+02 -0.37884798070E+02 -0.27488156986E+01  0.40659137711E+02  0.00000000000E+00 0.  1.
         11    1    3    3    0    0  0.12925421362E+01  0.22045637889E+02 -0.67898328107E+01  0.23103736602E+02  0.51100000000E-03 0. -1.
        -11    1    3    3    0    0  0.41849204337E+00  0.61250532119E+01 -0.32009581042E+01  0.69236944968E+01  0.51100000000E-03 0.  1.
        -12    1    3    3    0    0  0.12792467704E+02  0.97141069688E+01  0.12739606614E+02  0.20501431190E+02  0.00000000000E+00 0.  1.
</event>
<event>
 7    1  0.5487071E-013  0.5052885E+02  0.7816164E-02  0.1300439E+00
        -11   -1    0    0    0    0  0.00000000000E+00  0.00000000000E+00  0.45593999997E+02  0.45594000000E+02  0.51100000000E-03 0. -1.
         11   -1    0    0    0    0 -0.00000000000E+00 -0.00000000000E+00 -0.45593999997E+02  0.45594000000E+02  0.51100000000E-03 0.  1.
    9900012    2    1    2    0    0  0.27574639289E+02  0.75449675135E+01  0.28911569778E+02  0.50528854242E+02  0.29999982954E+02 0.  0.
        -12    1    1    2    0    0 -0.27574639289E+02 -0.75449675135E+01 -0.28911569778E+02  0.40659145758E+02  0.00000000000E+00 0.  1.
         11    1    3    3    0    0  0.62468319886E+01  0.27365466962E+00  0.21331335754E+02  0.22228892956E+02  0.51100000000E-03 0. -1.
        -11    1    3    3    0    0 -0.21289701621E+01  0.21765857555E-01  0.23993329953E+01  0.32077697528E+01  0.51100000000E-03 0.  1.
        -12    1    3    3    0    0  0.23456777463E+02  0.72495469863E+01  0.51809010296E+01  0.25092191533E+02  0.00000000000E+00 0.  1.
</event>
<event>
 7    1  0.5487071E-013  0.5052886E+02  0.7816164E-02  0.1300439E+00
        -11   -1    0    0    0    0  0.00000000000E+00  0.00000000000E+00  0.45593999997E+02  0.45594000000E+02  0.51100000000E-03 0.  1.
         11   -1    0    0    0    0 -0.00000000000E+00 -0.00000000000E+00 -0.45593999997E+02  0.45594000000E+02  0.51100000000E-03 0. -1.
    9900012    2    1    2    0    0 -0.73391704780E+01  0.92005272969E+01 -0.38918538297E+02  0.50528858973E+02  0.29999997334E+02 0.  0.
        -12    1    1    2    0    0  0.73391704780E+01 -0.92005272969E+01  0.38918538297E+02  0.40659141027E+02  0.00000000000E+00 0.  1.
         11    1    3    3    0    0 -0.91376536798E+01 -0.11012226362E+01 -0.23082422871E+01  0.94888033378E+01  0.51100000000E-03 0. -1.
        -11    1    3    3    0    0  0.81076052499E+01  0.24471733285E+01 -0.16357587675E+02  0.18419896715E+02  0.51100000000E-03 0.  1.
         12    1    3    3    0    0 -0.63091220480E+01  0.78545766046E+01 -0.20252708335E+02  0.22620158920E+02  0.00000000000E+00 0. -1.
</event>
<event>
 7    1  0.5487071E-013  0.5052885E+02  0.7816164E-02  0.1300439E+00
        -11   -1    0    0    0    0  0.00000000000E+00  0.00000000000E+00  0.45593999997E+02  0.45594000000E+02  0.51100000000E-03 0.  1.
         11   -1    0    0    0    0 -0.00000000000E+00 -0.00000000000E+00 -0.45593999997E+02  0.45594000000E+02  0.51100000000E-03 0. -1.
    9900012    2    1    2    0    0 -0.25962302620E+02  0.31224949042E+02 -0.20316563346E+01  0.50528853090E+02  0.29999979451E+02 0.  0.
        -12    1    1    2    0    0  0.25962302620E+02 -0.31224949042E+02  0.20316563346E+01  0.40659146910E+02  0.00000000000E+00 0.  1.
         11    1    3    3    0    0  0.97633964134E+00  0.14159966614E+02  0.71194464177E+00  0.14211430577E+02  0.51100000000E-03 0. -1.
        -11    1    3    3    0    0 -0.46241276988E+01  0.12349082779E+02  0.91628515240E+00  0.13218244256E+02  0.51100000000E-03 0.  1.
        -12    1    3    3    0    0 -0.22314514563E+02  0.47158996488E+01 -0.36598861288E+01  0.23099178257E+02  0.00000000000E+00 0.  1.
</event>
<event>
 7    1  0.5487071E-013  0.5052886E+02  0.7816164E-02  0.1300439E+00
        -11   -1    0    0    0    0  0.00000000000E+00  0.00000000000E+00  0.45593999997E+02  0.45594000000E+02  0.51100000000E-03 0. -1.
         11   -1    0    0    0    0 -0.00000000000E+00 -0.00000000000E+00 -0.45593999997E+02  0.45594000000E+02  0.51100000000E-03 0.  1.
    9900012    2    1    2    0    0 -0.27004886990E+02  0.30079813736E+02  0.43711263142E+01  0.50528857596E+02  0.29999993150E+02 0.  0.
        -12    1    1    2    0    0  0.27004886990E+02 -0.30079813736E+02 -0.43711263142E+01  0.40659142404E+02  0.00000000000E+00 0.  1.
         11    1    3    3    0    0 -0.20260809803E+02  0.25663816029E+02 -0.14696699575E+00  0.32697912267E+02  0.51100000000E-03 0. -1.
        -11    1    3    3    0    0 -0.19068961684E+01 -0.16466775423E+01 -0.49724516203E+01  0.55743228560E+01  0.51100000000E-03 0.  1.
         12    1    3    3    0    0 -0.48371810183E+01  0.60626752495E+01  0.94905449303E+01  0.12256622474E+02  0.00000000000E+00 0. -1.
</event>
<event>
 7    1  0.5487071E-013  0.5052885E+02  0.7816164E-02  0.1300439E+00
        -11   -1    0    0    0    0  0.00000000000E+00  0.00000000000E+00  0.45593999997E+02  0.45594000000E+02  0.51100000000E-03 0.  1.
         11   -1    0    0    0    0 -0.00000000000E+00 -0.00000000000E+00 -0.45593999997E+02  0.45594000000E+02  0.51100000000E-03 0. -1.
    9900012    2    1    2    0    0  0.20804063891E+02  0.21033298355E+02 -0.27891887545E+02  0.50528854597E+02  0.29999984032E+02 0.  0.
        -12    1    1    2    0    0 -0.20804063891E+02 -0.21033298355E+02  0.27891887545E+02  0.40659145403E+02  0.00000000000E+00 0.  1.
         11    1    3    3    0    0  0.20661980519E+02  0.16546423252E+01 -0.20101365653E+02  0.28874213090E+02  0.51100000000E-03 0. -1.
        -11    1    3    3    0    0  0.17867450450E+00  0.11169192880E+02 -0.74713519261E+01  0.13438894822E+02  0.51100000000E-03 0.  1.
        -12    1    3    3    0    0 -0.36591132502E-01  0.82094631498E+01 -0.31916996643E+00  0.82157466846E+01  0.00000000000E+00 0.  1.
</event>
<event>
 7    1  0.5487071E-013  0.5052888E+02  0.7816164E-02  0.1300439E+00
        -11   -1    0    0    0    0  0.00000000000E+00  0.00000000000E+00  0.45593999997E+02  0.45594000000E+02  0.51100000000E-03 0.  1.
         11   -1    0    0    0    0 -0.00000000000E+00 -0.00000000000E+00 -0.45593999997E+02  0.45594000000E+02  0.51100000000E-03 0. -1.
    9900012    2    1    2    0    0 -0.14081097049E+02 -0.17775330467E+02 -0.33747952706E+02  0.50528880738E+02  0.30000063492E+02 0.  0.
        -12    1    1    2    0    0  0.14081097049E+02  0.17775330467E+02  0.33747952706E+02  0.40659119262E+02  0.00000000000E+00 0.  1.
         11    1    3    3    0    0 -0.40734376903E+01  0.53118677320E+00 -0.12742628497E+01  0.43010231429E+01  0.51100000000E-03 0. -1.
        -11    1    3    3    0    0 -0.11390357212E+02  0.25307305534E+01 -0.85106007464E+01  0.14442131418E+02  0.51100000000E-03 0.  1.
         12    1    3    3    0    0  0.13826978533E+01 -0.20837247794E+02 -0.23963089110E+02  0.31785726178E+02  0.00000000000E+00 0. -1.
</event>
<event>
 7    1  0.5487071E-013  0.5052886E+02  0.7816164E-02  0.1300439E+00
        -11   -1    0    0    0    0  0.00000000000E+00  0.00000000000E+00  0.45593999997E+02  0.45594000000E+02  0.51100000000E-03 0. -1.
         11   -1    0    0    0    0 -0.00000000000E+00 -0.00000000000E+00 -0.45593999997E+02  0.45594000000E+02  0.51100000000E-03 0.  1.
    9900012    2    1    2    0    0 -0.52211602043E+01  0.17639907695E+02  0.36259328989E+02  0.50528858395E+02  0.29999995577E+02 0.  0.
        -12    1    1    2    0    0  0.52211602043E+01 -0.17639907695E+02 -0.36259328989E+02  0.40659141605E+02  0.00000000000E+00 0.  1.
         11    1    3    3    0    0  0.40537809810E+01 -0.95240730156E+00  0.11797972460E+02  0.12511289875E+02  0.51100000000E-03 0. -1.
        -11    1    3    3    0    0 -0.90592179341E+00 -0.43416613716E+01  0.20843620491E+01  0.49005390698E+01  0.51100000000E-03 0.  1.
         12    1    3    3    0    0 -0.83690193919E+01  0.22933976368E+02  0.22376994480E+02  0.33117029450E+02  0.00000000000E+00 0. -1.
</event>
<event>
 7    1  0.5487071E-013  0.5052886E+02  0.7816164E-02  0.1300439E+00
        -11   -1    0    0    0    0  0.00000000000E+00  0.00000000000E+00  0.45593999997E+02  0.45594000000E+02  0.51100000000E-03 0.  1.
         11   -1    0    0    0    0 -0.00000000000E+00 -0.00000000000E+00 -0.45593999997E+02  0.45594000000E+02  0.51100000000E-03 0. -1.
    9900012    2    1    2    0    0  0.22503502834E+02  0.25566303729E+02 -0.22206357765E+02  0.50528857716E+02  0.29999993512E+02 0.  0.
        -12    1    1    2    0    0 -0.22503502834E+02 -0.25566303729E+02  0.22206357765E+02  0.40659142284E+02  0.00000000000E+00 0.  1.
         11    1    3    3    0    0  0.21829336901E+02  0.28567827911E+02 -0.11016337262E+02  0.37603197045E+02  0.51100000000E-03 0. -1.
        -11    1    3    3    0    0 -0.24425754833E+01 -0.73764350174E+00 -0.35801324379E+01  0.43963213555E+01  0.51100000000E-03 0.  1.
        -12    1    3    3    0    0  0.31167414153E+01 -0.22638806802E+01 -0.76098880650E+01  0.85293393148E+01  0.00000000000E+00 0.  1.
</event>
<event>
 7    1  0.5487071E-013  0.5052875E+02  0.7816164E-02  0.1300439E+00
        -11   -1    0    0    0    0  0.00000000000E+00  0.00000000000E+00  0.45593999997E+02  0.45594000000E+02  0.51100000000E-03 0.  1.
         11   -1    0    0    0    0 -0.00000000000E+00 -0.00000000000E+00 -0.45593999997E+02  0.45594000000E+02  0.51100000000E-03 0. -1.
    9900012    2    1    2    0    0 -0.24241133941E+02 -0.30965270920E+02 -0.10329283653E+02  0.50528749163E+02  0.29999663553E+02 0.  0.
        -12    1    1    2    0    0  0.24241133941E+02  0.30965270920E+02  0.10329283653E+02  0.40659250837E+02  0.00000000000E+00 0.  1.
         11    1    3    3    0    0 -0.12969285656E+02 -0.26303250906E+02 -0.28274134662E+01  0.29462818023E+02  0.51100000000E-03 0. -1.
        -11    1    3    3    0    0 -0.91463240526E+01 -0.67275696534E+01  0.16250874343E+01  0.11469801504E+02  0.51100000000E-03 0.  1.
         12    1    3    3    0    0 -0.21255242327E+01  0.20655496398E+01 -0.91269576207E+01  0.95961296359E+01  0.00000000000E+00 0. -1.
</event>
<event>
 7    1  0.5487071E-013  0.5052879E+02  0.7816164E-02  0.1300439E+00
        -11   -1    0    0    0    0  0.00000000000E+00  0.00000000000E+00  0.45593999997E+02  0.45594000000E+02  0.51100000000E-03 0. -1.
         11   -1    0    0    0    0 -0.00000000000E+00 -0.00000000000E+00 -0.45593999997E+02  0.45594000000E+02  0.51100000000E-03 0.  1.
    9900012    2    1    2    0    0 -0.84392521636E+01 -0.28180528930E+02  0.28067915229E+02  0.50528793747E+02  0.29999799073E+02 0.  0.
        -12    1    1    2    0    0  0.84392521636E+01  0.28180528930E+02 -0.28067915229E+02  0.40659206253E+02  0.00000000000E+00 0.  1.
         11    1    3    3    0    0  0.49568904662E+01 -0.49277666168E+01  0.18557989091E+02  0.19830597729E+02  0.51100000000E-03 0. -1.
        -11    1    3    3    0    0  0.58713267955E+00  0.34058087399E+00  0.22179587225E+01  0.23194959088E+01  0.51100000000E-03 0.  1.
        -12    1    3    3    0    0 -0.13983275309E+02 -0.23593343187E+02  0.72919674151E+01  0.28378700109E+02  0.00000000000E+00 0.  1.
</event>
<event>
 7    1  0.5487071E-013  0.5052886E+02  0.7816164E-02  0.1300439E+00
        -11   -1    0    0    0    0  0.00000000000E+00  0.00000000000E+00  0.45593999997E+02  0.45594000000E+02  0.51100000000E-03 0. -1.
         11   -1    0    0    0    0 -0.00000000000E+00 -0.00000000000E+00 -0.45593999997E+02  0.45594000000E+02  0.51100000000E-03 0.  1.
    9900012    2    1    2    0    0  0.63144490900E+01 -0.32145096307E+02  0.24082897027E+02  0.50528863104E+02  0.30000009891E+02 0.  0.
        -12    1    1    2    0    0 -0.63144490900E+01  0.32145096307E+02 -0.24082897027E+02  0.40659136896E+02  0.00000000000E+00 0.  1.
         11    1    3    3    0    0 -0.74940503232E+00 -0.35833601697E+01 -0.32295276916E+01  0.48817955078E+01  0.51100000000E-03 0. -1.
        -11    1    3    3    0    0 -0.44632289677E+01 -0.12051971156E+02  0.15436641771E+01  0.12944238909E+02  0.51100000000E-03 0.  1.
         12    1    3    3    0    0  0.11527083090E+02 -0.16509764981E+02  0.25768760542E+02  0.32702828687E+02  0.00000000000E+00 0. -1.
</event>
<event>
 7    1  0.5487071E-013  0.5052885E+02  0.7816164E-02  0.1300439E+00
        -11   -1    0    0    0    0  0.00000000000E+00  0.00000000000E+00  0.45593999997E+02  0.45594000000E+02  0.51100000000E-03 0. -1.
         11   -1    0    0    0    0 -0.00000000000E+00 -0.00000000000E+00 -0.45593999997E+02  0.45594000000E+02  0.51100000000E-03 0.  1.
    9900012    2    1    2    0    0 -0.25542626661E+02 -0.22209728836E+02 -0.22527056510E+02  0.50528854575E+02  0.29999983966E+02 0.  0.
        -12    1    1    2    0    0  0.25542626661E+02  0.22209728836E+02  0.22527056510E+02  0.40659145425E+02  0.00000000000E+00 0.  1.
         11    1    3    3    0    0  0.19617508808E+01  0.72423750859E+00 -0.84361274147E+00  0.22549211086E+01  0.51100000000E-03 0. -1.
        -11    1    3    3    0    0 -0.58667214260E+01  0.46216789866E+01 -0.86181085269E+00  0.75180486267E+01  0.51100000000E-03 0.  1.
         12    1    3    3    0    0 -0.21637656116E+02 -0.27555645331E+02 -0.20821632916E+02  0.40755884840E+02  0.00000000000E+00 0. -1.
</event>
<event>
 7    1  0.5487071E-013  0.5052884E+02  0.7816164E-02  0.1300439E+00
        -11   -1    0    0    0    0  0.00000000000E+00  0.00000000000E+00  0.45593999997E+02  0.45594000000E+02  0.51100000000E-03 0.  1.
         11   -1    0    0    0    0 -0.00000000000E+00 -0.00000000000E+00 -0.45593999997E+02  0.45594000000E+02  0.51100000000E-03 0. -1.
    9900012    2    1    2    0    0  0.33837347277E+02 -0.20615148746E+02  0.91223109522E+01  0.50528843766E+02  0.29999951110E+02 0.  0.
        -12    1    1    2    0    0 -0.33837347277E+02  0.20615148746E+02 -0.91223109522E+01  0.40659156234E+02  0.00000000000E+00 0.  1.
         11    1    3    3    0    0  0.94582291318E+01 -0.11846343279E+01 -0.59780918114E+01  0.11251623828E+02  0.51100000000E-03 0. -1.
        -11    1    3    3    0    0  0.57059726681E+01 -0.13798242861E+02  0.54640685656E+00  0.14941492256E+02  0.51100000000E-03 0.  1.
        -12    1    3    3    0    0  0.18673145477E+02 -0.56322715573E+01  0.14553995907E+02  0.24335727681E+02  0.00000000000E+00 0.  1.
</event>
<event>
 7    1  0.5487071E-013  0.5052886E+02  0.7816164E-02  0.1300439E+00
        -11   -1    0    0    0    0  0.00000000000E+00  0.00000000000E+00  0.45593999997E+02  0.45594000000E+02  0.51100000000E-03 0.  1.
         11   -1    0    0    0    0 -0.00000000000E+00 -0.00000000000E+00 -0.45593999997E+02  0.45594000000E+02  0.51100000000E-03 0. -1.
    9900012    2    1    2    0    0  0.40064109856E+01  0.30471181335E+02 -0.26619942168E+02  0.50528861520E+02  0.30000005075E+02 0.  0.
        -12    1    1    2    0    0 -0.40064109856E+01 -0.30471181335E+02  0.26619942168E+02  0.40659138480E+02  0.00000000000E+00 0.  1.
         11    1    3    3    0    0  0.78419592730E+01  0.28926326675E+02 -0.13095143732E+02  0.32706444162E+02  0.51100000000E-03 0. -1.
        -11    1    3    3    0    0 -0.51547045543E+01  0.54247023531E+01 -0.92966584702E+01  0.11934246253E+02  0.51100000000E-03 0.  1.
        -12    1    3    3    0    0  0.13191562669E+01 -0.38798476930E+01 -0.42281399660E+01  0.58881711040E+01  0.00000000000E+00 0.  1.
</event>
<event>
 7    1  0.5487071E-013  0.5052886E+02  0.7816164E-02  0.1300439E+00
        -11   -1    0    0    0    0  0.00000000000E+00  0.00000000000E+00  0.45593999997E+02  0.45594000000E+02  0.51100000000E-03 0.  1.
         11   -1    0    0    0    0 -0.00000000000E+00 -0.00000000000E+00 -0.45593999997E+02  0.45594000000E+02  0.51100000000E-03 0. -1.
    9900012    2    1    2    0    0  0.14905774575E+02  0.13551448360E+01 -0.37804061456E+02  0.50528860858E+02  0.30000003065E+02 0.  0.
        -12    1    1    2    0    0 -0.14905774575E+02 -0.13551448360E+01  0.37804061456E+02  0.40659139142E+02  0.00000000000E+00 0.  1.
         11    1    3    3    0    0  0.85560572971E+01  0.39860881022E+01 -0.11774979125E+02  0.15091227534E+02  0.51100000000E-03 0. -1.
        -11    1    3    3    0    0  0.13777354736E+02 -0.16858780133E+00 -0.83674355912E+01  0.16120108685E+02  0.51100000000E-03 0.  1.
         12    1    3    3    0    0 -0.74276374580E+01 -0.24623554649E+01 -0.17661646740E+02  0.19317524640E+02  0.00000000000E+00 0. -1.
</event>
<event>
 7    1  0.5487071E-013  0.5052886E+02  0.7816164E-02  0.1300439E+00
        -11   -1    0    0    0    0  0.00000000000E+00  0.00000000000E+00  0.45593999997E+02  0.45594000000E+02  0.51100000000E-03 0.  1.
         11   -1    0    0    0    0 -0.00000000000E+00 -0.00000000000E+00 -0.45593999997E+02  0.45594000000E+02  0.51100000000E-03 0. -1.
    9900012    2    1    2    0    0 -0.10776834826E+02 -0.38103958059E+02 -0.92257176118E+01  0.50528860140E+02  0.30000000883E+02 0.  0.
        -12    1    1    2    0    0  0.10776834826E+02  0.38103958059E+02  0.92257176118E+01  0.40659139860E+02  0.00000000000E+00 0.  1.
         11    1    3    3    0    0  0.22965871216E+01  0.62894450894E+00 -0.41161081099E+01  0.47552318383E+01  0.51100000000E-03 0. -1.
        -11    1    3    3    0    0 -0.38189569081E+01 -0.13345846618E+01  0.45160435526E+01  0.60630188615E+01  0.51100000000E-03 0.  1.
         12    1    3    3    0    0 -0.92544650400E+01 -0.37398317907E+02 -0.96256530544E+01  0.39710609441E+02  0.00000000000E+00 0. -1.
</event>
<event>
 7    1  0.5487071E-013  0.5052887E+02  0.7816164E-02  0.1300439E+00
        -11   -1    0    0    0    0  0.00000000000E+00  0.00000000000E+00  0.45593999997E+02  0.45594000000E+02  0.51100000000E-03 0. -1.
         11   -1    0    0    0    0 -0.00000000000E+00 -0.00000000000E+00 -0.45593999997E+02  0.45594000000E+02  0.51100000000E-03 0.  1.
    9900012    2    1    2    0    0  0.23759879612E+02 -0.13172984726E+02 -0.30250713379E+02  0.50528867377E+02  0.30000022878E+02 0.  0.
        -12    1    1    2    0    0 -0.23759879612E+02  0.13172984726E+02  0.30250713379E+02  0.40659132623E+02  0.00000000000E+00 0.  1.
         11    1    3    3    0    0  0.61343329892E+00 -0.48636762381E+01 -0.37373923060E+00  0.49164345043E+01  0.51100000000E-03 0. -1.
        -11    1    3    3    0    0  0.48855500383E+01 -0.14319736649E+02 -0.11357458368E+02  0.18918649997E+02  0.51100000000E-03 0.  1.
         12    1    3    3    0    0  0.18260896275E+02  0.60104281618E+01 -0.18519515780E+02  0.26693782875E+02  0.00000000000E+00 0. -1.
</event>
<event>
 7    1  0.5487071E-013  0.5052886E+02  0.7816164E-02  0.1300439E+00
        -11   -1    0    0    0    0  0.00000000000E+00  0.00000000000E+00  0.45593999997E+02  0.45594000000E+02  0.51100000000E-03 0. -1.
         11   -1    0    0    0    0 -0.00000000000E+00 -0.00000000000E+00 -0.45593999997E+02  0.45594000000E+02  0.51100000000E-03 0.  1.
    9900012    2    1    2    0    0 -0.15242366033E+02  0.37662619091E+02  0.15371869839E+01  0.50528861509E+02  0.30000005042E+02 0.  0.
        -12    1    1    2    0    0  0.15242366033E+02 -0.37662619091E+02 -0.15371869839E+01  0.40659138491E+02  0.00000000000E+00 0.  1.
         11    1    3    3    0    0  0.44131299026E+01  0.51217619485E+01  0.25698320518E+01  0.72327171955E+01  0.51100000000E-03 0. -1.
        -11    1    3    3    0    0  0.10781378675E+01  0.18339253551E+01 -0.55753208005E+01  0.59674002513E+01  0.51100000000E-03 0.  1.
         12    1    3    3    0    0 -0.20733633803E+02  0.30706931787E+02  0.45426757326E+01  0.37328744062E+02  0.00000000000E+00 0. -1.
</event>
<event>
 7    1  0.5487071E-013  0.5052886E+02  0.7816164E-02  0.1300439E+00
        -11   -1    0    0    0    0  0.00000000000E+00  0.00000000000E+00  0.45593999997E+02  0.45594000000E+02  0.51100000000E-03 0.  1.
         11   -1    0    0    0    0 -0.00000000000E+00 -0.00000000000E+00 -0.45593999997E+02  0.45594000000E+02  0.51100000000E-03 0. -1.
    9900012    2    1    2    0    0  0.32318110913E+02  0.44506896421E+00 -0.24667943854E+02  0.50528857937E+02  0.29999994184E+02 0.  0.
        -12    1    1    2    0    0 -0.32318110913E+02 -0.44506896421E+00  0.24667943854E+02  0.40659142063E+02  0.00000000000E+00 0.  1.
         11    1    3    3    0    0  0.80488471825E+01 -0.35846021910E+00 -0.50263633033E+01  0.94961446395E+01  0.51100000000E-03 0. -1.
        -11    1    3    3    0    0  0.17836229956E+02  0.76468253069E+01 -0.23844005112E+02  0.30743155602E+02  0.51100000000E-03 0.  1.
        -12    1    3    3    0    0  0.64330337744E+01 -0.68432961236E+01  0.42024245613E+01  0.10289557696E+02  0.00000000000E+00 0.  1.
</event>
<event>
 7    1  0.5487071E-013  0.5052886E+02  0.7816164E-02  0.1300439E+00
        -11   -1    0    0    0    0  0.00000000000E+00  0.00000000000E+00  0.45593999997E+02  0.45594000000E+02  0.51100000000E-03 0. -1.
         11   -1    0    0    0    0 -0.00000000000E+00 -0.00000000000E+00 -0.45593999997E+02  0.45594000000E+02  0.51100000000E-03 0.  1.
    9900012    2    1    2    0    0 -0.39108447224E+02  0.71809369891E+01  0.84928828137E+01  0.50528861313E+02  0.30000004446E+02 0.  0.
        -12    1    1    2    0    0  0.39108447224E+02 -0.71809369891E+01 -0.84928828137E+01  0.40659138687E+02  0.00000000000E+00 0.  1.
         11    1    3    3    0    0 -0.55988317707E+01 -0.12667895911E+01 -0.11407687378E+01  0.58526085328E+01  0.51100000000E-03 0. -1.
        -11    1    3    3    0    0 -0.30681243068E+02 -0.38996530994E+01  0.75835134739E+01  0.31844240411E+02  0.51100000000E-03 0.  1.
        -12    1    3    3    0    0 -0.28283723854E+01  0.12347379680E+02  0.20501380776E+01  0.12832012369E+02  0.00000000000E+00 0.  1.
</event>
<event>
 7    1  0.5487071E-013  0.5052896E+02  0.7816164E-02  0.1300438E+00
        -11   -1    0    0    0    0  0.00000000000E+00  0.00000000000E+00  0.45593999997E+02  0.45594000000E+02  0.51100000000E-03 0.  1.
         11   -1    0    0    0    0 -0.00000000000E+00 -0.00000000000E+00 -0.45593999997E+02  0.45594000000E+02  0.51100000000E-03 0. -1.
    9900012    2    1    2    0    0  0.27556881666E+02 -0.25621147547E+02 -0.15405596029E+02  0.50528962656E+02  0.30000312487E+02 0.  0.
        -12    1    1    2    0    0 -0.27556881666E+02  0.25621147547E+02  0.15405596029E+02  0.40659037344E+02  0.00000000000E+00 0.  1.
         11    1    3    3    0    0  0.92116131635E+01 -0.13525193808E+01 -0.14502910615E+02  0.17234196887E+02  0.51100000000E-03 0. -1.
        -11    1    3    3    0    0 -0.11379999733E+00 -0.31635187885E+01 -0.39827050050E+01  0.50875083275E+01  0.51100000000E-03 0.  1.
        -12    1    3    3    0    0  0.18459068499E+02 -0.21105109377E+02  0.30800195914E+01  0.28207257442E+02  0.00000000000E+00 0.  1.
</event>
<event>
 7    1  0.5487071E-013  0.5052883E+02  0.7816164E-02  0.1300439E+00
        -11   -1    0    0    0    0  0.00000000000E+00  0.00000000000E+00  0.45593999997E+02  0.45594000000E+02  0.51100000000E-03 0. -1.
         11   -1    0    0    0    0 -0.00000000000E+00 -0.00000000000E+00 -0.45593999997E+02  0.45594000000E+02  0.51100000000E-03 0.  1.
    9900012    2    1    2    0    0  0.93798980009E+01  0.38110684409E+02  0.10618913846E+02  0.50528830260E+02  0.29999910059E+02 0.  0.
        -12    1    1    2    0    0 -0.93798980009E+01 -0.38110684409E+02 -0.10618913846E+02  0.40659169740E+02  0.00000000000E+00 0.  1.
         11    1    3    3    0    0 -0.40776335520E+01  0.69802942395E+01 -0.82045778982E+00  0.81255617837E+01  0.51100000000E-03 0. -1.
        -11    1    3    3    0    0  0.12912089534E+01  0.18498678418E+02 -0.40770954616E+01  0.18986601367E+02  0.51100000000E-03 0.  1.
         12    1    3    3    0    0  0.12166322600E+02  0.12631711751E+02  0.15516467097E+02  0.23416667110E+02  0.00000000000E+00 0. -1.
</event>
<event>
 7    1  0.5487071E-013  0.5052885E+02  0.7816164E-02  0.1300439E+00
        -11   -1    0    0    0    0  0.00000000000E+00  0.00000000000E+00  0.45593999997E+02  0.45594000000E+02  0.51100000000E-03 0.  1.
         11   -1    0    0    0    0 -0.00000000000E+00 -0.00000000000E+00 -0.45593999997E+02  0.45594000000E+02  0.51100000000E-03 0. -1.
    9900012    2    1    2    0    0 -0.12030186453E+01 -0.13270159479E+02 -0.38413822240E+02  0.50528854343E+02  0.29999983262E+02 0.  0.
        -12    1    1    2    0    0  0.12030186453E+01  0.13270159479E+02  0.38413822240E+02  0.40659145657E+02  0.00000000000E+00 0.  1.
         11    1    3    3    0    0  0.47880627348E+00 -0.84197998911E+01 -0.16577250288E+02  0.18599126674E+02  0.51100000000E-03 0. -1.
        -11    1    3    3    0    0  0.45674773045E+01 -0.23079182216E+01 -0.24234996690E+02  0.24769404520E+02  0.51100000000E-03 0.  1.
        -12    1    3    3    0    0 -0.62493022233E+01 -0.25424413664E+01  0.23984247386E+01  0.71603231495E+01  0.00000000000E+00 0.  1.
</event>
<event>
 7    1  0.5487071E-013  0.5052886E+02  0.7816164E-02  0.1300439E+00
        -11   -1    0    0    0    0  0.00000000000E+00  0.00000000000E+00  0.45593999997E+02  0.45594000000E+02  0.51100000000E-03 0.  1.
         11   -1    0    0    0    0 -0.00000000000E+00 -0.00000000000E+00 -0.45593999997E+02  0.45594000000E+02  0.51100000000E-03 0. -1.
    9900012    2    1    2    0    0 -0.79635231752E+01  0.20170726005E+02 -0.34393167480E+02  0.50528857630E+02  0.29999993252E+02 0.  0.
        -12    1    1    2    0    0  0.79635231752E+01 -0.20170726005E+02  0.34393167480E+02  0.40659142370E+02  0.00000000000E+00 0.  1.
         11    1    3    3    0    0  0.24296131032E+01  0.86124019956E+01 -0.11097871164E+02  0.14256199795E+02  0.51100000000E-03 0. -1.
        -11    1    3    3    0    0  0.25634300671E+01  0.36812075217E+01  0.33611158156E+01  0.56053155409E+01  0.51100000000E-03 0.  1.
         12    1    3    3    0    0 -0.12956566345E+02  0.78771164881E+01 -0.26656412132E+02  0.30667342294E+02  0.00000000000E+00 0. -1.
</event>
<event>
 7    1  0.5487071E-013  0.5052887E+02  0.7816164E-02  0.1300439E+00
        -11   -1    0    0    0    0  0.00000000000E+00  0.00000000000E+00  0.45593999997E+02  0.45594000000E+02  0.51100000000E-03 0.  1.
         11   -1    0    0    0    0 -0.00000000000E+00 -0.00000000000E+00 -0.45593999997E+02  0.45594000000E+02  0.51100000000E-03 0. -1.
    9900012    2    1    2    0    0  0.62901231776E+01 -0.16117253281E+02 -0.36794479777E+02  0.50528865172E+02  0.30000016176E+02 0.  0.
        -12    1    1    2    0    0 -0.62901231776E+01  0.16117253281E+02  0.36794479777E+02  0.40659134828E+02  0.00000000000E+00 0.  1.
         11    1    3    3    0    0  0.41572149433E+01  0.57369665183E+01 -0.23155780220E+01  0.74536650551E+01  0.51100000000E-03 0. -1.
        -11    1    3    3    0    0  0.19743335404E+01 -0.43719531434E+01 -0.45029970849E+00  0.48181674219E+01  0.51100000000E-03 0.  1.
         12    1    3    3    0    0  0.15857469388E+00 -0.17482266656E+02 -0.34028602047E+02  0.38257032695E+02  0.00000000000E+00 0. -1.
</event>
<event>
 7    1  0.5487071E-013  0.5052886E+02  0.7816164E-02  0.1300439E+00
        -11   -1    0    0    0    0  0.00000000000E+00  0.00000000000E+00  0.45593999997E+02  0.45594000000E+02  0.51100000000E-03 0. -1.
         11   -1    0    0    0    0 -0.00000000000E+00 -0.00000000000E+00 -0.45593999997E+02  0.45594000000E+02  0.51100000000E-03 0.  1.
    9900012    2    1    2    0    0 -0.60854918206E+01 -0.19510488435E+00  0.40200676394E+02  0.50528860078E+02  0.30000000694E+02 0.  0.
        -12    1    1    2    0    0  0.60854918206E+01  0.19510488435E+00 -0.40200676394E+02  0.40659139922E+02  0.00000000000E+00 0.  1.
         11    1    3    3    0    0 -0.76154544641E+01 -0.32636139605E+01  0.20415901527E+02  0.22033051495E+02  0.51100000000E-03 0. -1.
        -11    1    3    3    0    0 -0.50292982385E+01  0.18001325913E+01  0.21031878690E+02  0.21699636854E+02  0.51100000000E-03 0.  1.
        -12    1    3    3    0    0  0.65592608820E+01  0.12683764848E+01 -0.12471038224E+01  0.67961717289E+01  0.00000000000E+00 0.  1.
</event>
<event>
 7    1  0.5487071E-013  0.5052885E+02  0.7816164E-02  0.1300439E+00
        -11   -1    0    0    0    0  0.00000000000E+00  0.00000000000E+00  0.45593999997E+02  0.45594000000E+02  0.51100000000E-03 0.  1.
         11   -1    0    0    0    0 -0.00000000000E+00 -0.00000000000E+00 -0.45593999997E+02  0.45594000000E+02  0.51100000000E-03 0. -1.
    9900012    2    1    2    0    0  0.32519946573E+02  0.55088592088E+01 -0.23775441951E+02  0.50528854720E+02  0.29999984408E+02 0.  0.
        -12    1    1    2    0    0 -0.32519946573E+02 -0.55088592088E+01  0.23775441951E+02  0.40659145280E+02  0.00000000000E+00 0.  1.
         11    1    3    3    0    0  0.37258888613E+01 -0.34732685965E+00  0.13865228689E+01  0.39906552947E+01  0.51100000000E-03 0. -1.
        -11    1    3    3    0    0  0.17102274869E+02  0.14253961565E+02 -0.69479629525E+01  0.23322465895E+02  0.51100000000E-03 0.  1.
         12    1    3    3    0    0  0.11691782843E+02 -0.83977754962E+01 -0.18214001868E+02  0.23215733531E+02  0.00000000000E+00 0. -1.
</event>
<event>
 7    1  0.5487071E-013  0.5052886E+02  0.7816164E-02  0.1300439E+00
        -11   -1    0    0    0    0  0.00000000000E+00  0.00000000000E+00  0.45593999997E+02  0.45594000000E+02  0.51100000000E-03 0. -1.
         11   -1    0    0    0    0 -0.00000000000E+00 -0.00000000000E+00 -0.45593999997E+02  0.45594000000E+02  0.51100000000E-03 0.  1.
    9900012    2    1    2    0    0  0.90454699201E+01 -0.39585299092E+02  0.20854986736E+01  0.50528859146E+02  0.29999997860E+02 0.  0.
        -12    1    1    2    0    0 -0.90454699201E+01  0.39585299092E+02 -0.20854986736E+01  0.40659140854E+02  0.00000000000E+00 0.  1.
         11    1    3    3    0    0 -0.15684303347E+01  0.26473939502E+01  0.50083857097E+01  0.58781456363E+01  0.51100000000E-03 0.  1.
        -11    1    3    3    0    0 -0.18919833800E+00 -0.16073978297E+02  0.85597927569E+00  0.16097865544E+02  0.51100000000E-03 0. -1.
        -12    1    3    3    0    0  0.10803098593E+02 -0.26158714745E+02 -0.37788663118E+01  0.28552847965E+02  0.00000000000E+00 0.  1.
</event>
<event>
 7    1  0.5487071E-013  0.5052886E+02  0.7816164E-02  0.1300439E+00
        -11   -1    0    0    0    0  0.00000000000E+00  0.00000000000E+00  0.45593999997E+02  0.45594000000E+02  0.51100000000E-03 0.  1.
         11   -1    0    0    0    0 -0.00000000000E+00 -0.00000000000E+00 -0.45593999997E+02  0.45594000000E+02  0.51100000000E-03 0. -1.
    9900012    2    1    2    0    0  0.10656792390E+02 -0.73606860896E+01 -0.38541130121E+02  0.50528860378E+02  0.30000001606E+02 0.  0.
        -12    1    1    2    0    0 -0.10656792390E+02  0.73606860896E+01  0.38541130121E+02  0.40659139622E+02  0.00000000000E+00 0.  1.
         11    1    3    3    0    0  0.84846057997E+01 -0.45519874247E+01 -0.10367803041E+02  0.14149221365E+02  0.51100000000E-03 0. -1.
        -11    1    3    3    0    0  0.58995544500E+01 -0.10539166488E+02 -0.80834652580E+01  0.14533450513E+02  0.51100000000E-03 0.  1.
        -12    1    3    3    0    0 -0.37273678602E+01  0.77304678233E+01 -0.20089861822E+02  0.21846188500E+02  0.00000000000E+00 0.  1.
</event>
<event>
 7    1  0.5487071E-013  0.5052885E+02  0.7816164E-02  0.1300439E+00
        -11   -1    0    0    0    0  0.00000000000E+00  0.00000000000E+00  0.45593999997E+02  0.45594000000E+02  0.51100000000E-03 0. -1.
         11   -1    0    0    0    0 -0.00000000000E+00 -0.00000000000E+00 -0.45593999997E+02  0.45594000000E+02  0.51100000000E-03 0.  1.
    9900012    2    1    2    0    0  0.27461991450E+02  0.81072444675E+01  0.28866552015E+02  0.50528853273E+02  0.29999980010E+02 0.  0.
        -12    1    1    2    0    0 -0.27461991450E+02 -0.81072444675E+01 -0.28866552015E+02  0.40659146727E+02  0.00000000000E+00 0.  1.
         11    1    3    3    0    0 -0.23959475107E+01  0.50553211261E+01 -0.28394119735E+00  0.56015586247E+01  0.51100000000E-03 0.  1.
        -11    1    3    3    0    0  0.79410410702E+01 -0.18757569919E+01  0.18180990568E+02  0.19928045962E+02  0.51100000000E-03 0. -1.
         12    1    3    3    0    0  0.21916897891E+02  0.49276803333E+01  0.10969502645E+02  0.24999248687E+02  0.00000000000E+00 0. -1.
</event>
<event>
 7    1  0.5487071E-013  0.5052884E+02  0.7816164E-02  0.1300439E+00
        -11   -1    0    0    0    0  0.00000000000E+00  0.00000000000E+00  0.45593999997E+02  0.45594000000E+02  0.51100000000E-03 0. -1.
         11   -1    0    0    0    0 -0.00000000000E+00 -0.00000000000E+00 -0.45593999997E+02  0.45594000000E+02  0.51100000000E-03 0.  1.
    9900012    2    1    2    0    0 -0.32040680230E+02 -0.23372427514E+02 -0.89605495048E+01  0.50528843529E+02  0.29999950389E+02 0.  0.
        -12    1    1    2    0    0  0.32040680230E+02  0.23372427514E+02  0.89605495048E+01  0.40659156471E+02  0.00000000000E+00 0.  1.
         11    1    3    3    0    0 -0.58553717581E+01 -0.19889838567E+01  0.43645173184E+01  0.75690453092E+01  0.51100000000E-03 0. -1.
        -11    1    3    3    0    0  0.40687291397E+01 -0.19178491717E+01  0.25861558175E+00  0.45055060246E+01  0.51100000000E-03 0.  1.
         12    1    3    3    0    0 -0.30254037612E+02 -0.19465594486E+02 -0.13583682405E+02  0.38454292195E+02  0.00000000000E+00 0. -1.
</event>
<event>
 7    1  0.5487071E-013  0.5052886E+02  0.7816164E-02  0.1300439E+00
        -11   -1    0    0    0    0  0.00000000000E+00  0.00000000000E+00  0.45593999997E+02  0.45594000000E+02  0.51100000000E-03 0.  1.
         11   -1    0    0    0    0 -0.00000000000E+00 -0.00000000000E+00 -0.45593999997E+02  0.45594000000E+02  0.51100000000E-03 0. -1.
    9900012    2    1    2    0    0 -0.37171379900E+02 -0.16138974316E+02 -0.33147836850E+01  0.50528858758E+02  0.29999996682E+02 0.  0.
        -12    1    1    2    0    0  0.37171379900E+02  0.16138974316E+02  0.33147836850E+01  0.40659141242E+02  0.00000000000E+00 0.  1.
         11    1    3    3    0    0 -0.58697204656E+01  0.10932469111E+01 -0.27038978342E+01  0.65543779958E+01  0.51100000000E-03 0. -1.
        -11    1    3    3    0    0 -0.15394849280E+02  0.43895937525E+01  0.45449939614E+01  0.16641120396E+02  0.51100000000E-03 0.  1.
         12    1    3    3    0    0 -0.15906810155E+02 -0.21621814979E+02 -0.51558798123E+01  0.27333360367E+02  0.00000000000E+00 0. -1.
</event>
<event>
 7    1  0.5487071E-013  0.5052886E+02  0.7816164E-02  0.1300439E+00
        -11   -1    0    0    0    0  0.00000000000E+00  0.00000000000E+00  0.45593999997E+02  0.45594000000E+02  0.51100000000E-03 0.  1.
         11   -1    0    0    0    0 -0.00000000000E+00 -0.00000000000E+00 -0.45593999997E+02  0.45594000000E+02  0.51100000000E-03 0. -1.
    9900012    2    1    2    0    0 -0.29286902524E+02  0.77048185817E+01 -0.27130770167E+02  0.50528861068E+02  0.30000003703E+02 0.  0.
        -12    1    1    2    0    0  0.29286902524E+02 -0.77048185817E+01  0.27130770167E+02  0.40659138932E+02  0.00000000000E+00 0.  1.
         11    1    3    3    0    0 -0.63975576484E+01  0.20990110023E+01 -0.29923980010E+01  0.73681094665E+01  0.51100000000E-03 0. -1.
        -11    1    3    3    0    0 -0.15203247290E+02 -0.99229171825E+01 -0.95676165138E+01  0.20521751864E+02  0.51100000000E-03 0.  1.
         12    1    3    3    0    0 -0.76860975861E+01  0.15528724762E+02 -0.14570755652E+02  0.22638999737E+02  0.00000000000E+00 0. -1.
</event>
<event>
 7    1  0.5487071E-013  0.5052886E+02  0.7816164E-02  0.1300439E+00
        -11   -1    0    0    0    0  0.00000000000E+00  0.00000000000E+00  0.45593999997E+02  0.45594000000E+02  0.51100000000E-03 0.  1.
         11   -1    0    0    0    0 -0.00000000000E+00 -0.00000000000E+00 -0.45593999997E+02  0.45594000000E+02  0.51100000000E-03 0. -1.
    9900012    2    1    2    0    0 -0.29839661273E+02  0.61246460439E+01 -0.26930446944E+02  0.50528860232E+02  0.30000001162E+02 0.  0.
        -12    1    1    2    0    0  0.29839661273E+02 -0.61246460439E+01  0.26930446944E+02  0.40659139768E+02  0.00000000000E+00 0.  1.
         11    1    3    3    0    0 -0.22824153254E+02  0.54959226587E+01 -0.17048667610E+02  0.29013862293E+02  0.51100000000E-03 0. -1.
        -11    1    3    3    0    0 -0.12985171543E+02  0.36262727633E+00 -0.55078372698E+01  0.14109658047E+02  0.51100000000E-03 0.  1.
        -12    1    3    3    0    0  0.59696635244E+01  0.26609610887E+00 -0.43739420651E+01  0.74053398924E+01  0.00000000000E+00 0.  1.
</event>
<event>
 7    1  0.5487071E-013  0.5052886E+02  0.7816164E-02  0.1300439E+00
        -11   -1    0    0    0    0  0.00000000000E+00  0.00000000000E+00  0.45593999997E+02  0.45594000000E+02  0.51100000000E-03 0.  1.
         11   -1    0    0    0    0 -0.00000000000E+00 -0.00000000000E+00 -0.45593999997E+02  0.45594000000E+02  0.51100000000E-03 0. -1.
    9900012    2    1    2    0    0  0.30841604317E+02  0.21484480544E+02 -0.15504130730E+02  0.50528861657E+02  0.30000005493E+02 0.  0.
        -12    1    1    2    0    0 -0.30841604317E+02 -0.21484480544E+02  0.15504130730E+02  0.40659138343E+02  0.00000000000E+00 0.  1.
         11    1    3    3    0    0  0.54314788874E+01  0.54017476056E+00  0.31227493287E+01  0.62884270932E+01  0.51100000000E-03 0.  1.
        -11    1    3    3    0    0 -0.26179336145E+01  0.64260182938E+01 -0.87476038705E+01  0.11165476311E+02  0.51100000000E-03 0. -1.
         12    1    3    3    0    0  0.28028059044E+02  0.14518287490E+02 -0.98792761880E+01  0.33074958253E+02  0.00000000000E+00 0. -1.
</event>
<event>
 7    1  0.5487071E-013  0.5052889E+02  0.7816164E-02  0.1300439E+00
        -11   -1    0    0    0    0  0.00000000000E+00  0.00000000000E+00  0.45593999997E+02  0.45594000000E+02  0.51100000000E-03 0. -1.
         11   -1    0    0    0    0 -0.00000000000E+00 -0.00000000000E+00 -0.45593999997E+02  0.45594000000E+02  0.51100000000E-03 0.  1.
    9900012    2    1    2    0    0 -0.53672958270E+01 -0.31783083140E+02  0.24782876065E+02  0.50528890511E+02  0.30000093197E+02 0.  0.
        -12    1    1    2    0    0  0.53672958270E+01  0.31783083140E+02 -0.24782876065E+02  0.40659109489E+02  0.00000000000E+00 0.  1.
         11    1    3    3    0    0 -0.95683715663E+00 -0.87711130153E-01  0.54885874294E+01  0.55720573237E+01  0.51100000000E-03 0.  1.
        -11    1    3    3    0    0  0.42745205745E+01  0.17628745699E+01  0.67545283192E+01  0.81855302802E+01  0.51100000000E-03 0. -1.
         12    1    3    3    0    0 -0.86849792449E+01 -0.33458246580E+02  0.12539760316E+02  0.36771302907E+02  0.00000000000E+00 0. -1.
</event>
<event>
 7    1  0.5487071E-013  0.5052886E+02  0.7816164E-02  0.1300439E+00
        -11   -1    0    0    0    0  0.00000000000E+00  0.00000000000E+00  0.45593999997E+02  0.45594000000E+02  0.51100000000E-03 0. -1.
         11   -1    0    0    0    0 -0.00000000000E+00 -0.00000000000E+00 -0.45593999997E+02  0.45594000000E+02  0.51100000000E-03 0.  1.
    9900012    2    1    2    0    0 -0.33132137334E+02  0.23561562530E+02  0.52941781669E+00  0.50528855440E+02  0.29999986594E+02 0.  0.
        -12    1    1    2    0    0  0.33132137334E+02 -0.23561562530E+02 -0.52941781669E+00  0.40659144560E+02  0.00000000000E+00 0.  1.
         11    1    3    3    0    0 -0.95017989347E+01  0.12627094404E+02  0.39659495851E+01  0.16292834390E+02  0.51100000000E-03 0. -1.
        -11    1    3    3    0    0 -0.19535750447E+00  0.98799348463E+01  0.21685218779E+01  0.10117003732E+02  0.51100000000E-03 0.  1.
        -12    1    3    3    0    0 -0.23434980895E+02  0.10545332794E+01 -0.56050536462E+01  0.24119017317E+02  0.00000000000E+00 0.  1.
</event>
<event>
 7    1  0.5487071E-013  0.5052886E+02  0.7816164E-02  0.1300439E+00
        -11   -1    0    0    0    0  0.00000000000E+00  0.00000000000E+00  0.45593999997E+02  0.45594000000E+02  0.51100000000E-03 0.  1.
         11   -1    0    0    0    0 -0.00000000000E+00 -0.00000000000E+00 -0.45593999997E+02  0.45594000000E+02  0.51100000000E-03 0. -1.
    9900012    2    1    2    0    0 -0.26500026460E+02  0.18499355094E+02 -0.24671602000E+02  0.50528862201E+02  0.30000007148E+02 0.  0.
        -12    1    1    2    0    0  0.26500026460E+02 -0.18499355094E+02  0.24671602000E+02  0.40659137799E+02  0.00000000000E+00 0.  1.
         11    1    3    3    0    0 -0.30178054476E+01 -0.12142158416E+01 -0.65125696396E+01  0.72797687739E+01  0.51100000000E-03 0. -1.
        -11    1    3    3    0    0 -0.16439789300E+02  0.45624330891E+00 -0.15452361081E+02  0.22566574694E+02  0.51100000000E-03 0.  1.
        -12    1    3    3    0    0 -0.70424317129E+01  0.19257327627E+02 -0.27066712789E+01  0.20682518733E+02  0.00000000000E+00 0.  1.
</event>
<event>
 7    1  0.5487071E-013  0.5052884E+02  0.7816164E-02  0.1300439E+00
        -11   -1    0    0    0    0  0.00000000000E+00  0.00000000000E+00  0.45593999997E+02  0.45594000000E+02  0.51100000000E-03 0.  1.
         11   -1    0    0    0    0 -0.00000000000E+00 -0.00000000000E+00 -0.45593999997E+02  0.45594000000E+02  0.51100000000E-03 0. -1.
    9900012    2    1    2    0    0  0.35804426188E+02 -0.18507840005E+02 -0.53544304658E+01  0.50528843566E+02  0.29999950502E+02 0.  0.
        -12    1    1    2    0    0 -0.35804426188E+02  0.18507840005E+02  0.53544304658E+01  0.40659156434E+02  0.00000000000E+00 0.  1.
         11    1    3    3    0    0  0.52400490565E+01 -0.38015774639E+01  0.13300907157E+01  0.66090276820E+01  0.51100000000E-03 0. -1.
        -11    1    3    3    0    0  0.15087692535E+02  0.16330171855E+00  0.87884666361E+01  0.17461451244E+02  0.51100000000E-03 0.  1.
         12    1    3    3    0    0  0.15476684597E+02 -0.14869564260E+02 -0.15472987818E+02  0.26458364640E+02  0.00000000000E+00 0. -1.
</event>
<event>
 7    1  0.5487071E-013  0.5052886E+02  0.7816164E-02  0.1300439E+00
        -11   -1    0    0    0    0  0.00000000000E+00  0.00000000000E+00  0.45593999997E+02  0.45594000000E+02  0.51100000000E-03 0. -1.
         11   -1    0    0    0    0 -0.00000000000E+00 -0.00000000000E+00 -0.45593999997E+02  0.45594000000E+02  0.51100000000E-03 0.  1.
    9900012    2    1    2    0    0  0.17810612189E+01 -0.23584791640E+02  0.33071904124E+02  0.50528863042E+02  0.30000009703E+02 0.  0.
        -12    1    1    2    0    0 -0.17810612189E+01  0.23584791640E+02 -0.33071904124E+02  0.40659136958E+02  0.00000000000E+00 0.  1.
         11    1    3    3    0    0  0.10350825281E+02 -0.63080035823E+01  0.72328648870E+01  0.14115411008E+02  0.51100000000E-03 0. -1.
        -11    1    3    3    0    0  0.38917381747E+01  0.21558676507E+00  0.61257875286E+01  0.72606733007E+01  0.51100000000E-03 0.  1.
         12    1    3    3    0    0 -0.12461502237E+02 -0.17492374823E+02  0.19713251709E+02  0.29152778733E+02  0.00000000000E+00 0. -1.
</event>
<event>
 7    1  0.5487071E-013  0.5052886E+02  0.7816164E-02  0.1300439E+00
        -11   -1    0    0    0    0  0.00000000000E+00  0.00000000000E+00  0.45593999997E+02  0.45594000000E+02  0.51100000000E-03 0.  1.
         11   -1    0    0    0    0 -0.00000000000E+00 -0.00000000000E+00 -0.45593999997E+02  0.45594000000E+02  0.51100000000E-03 0. -1.
    9900012    2    1    2    0    0  0.29712830499E+02  0.83273812539E+01 -0.26475799371E+02  0.50528861702E+02  0.30000005629E+02 0.  0.
        -12    1    1    2    0    0 -0.29712830499E+02 -0.83273812539E+01  0.26475799371E+02  0.40659138298E+02  0.00000000000E+00 0.  1.
         11    1    3    3    0    0  0.20603304337E+02 -0.29533666140E+00 -0.99740337612E+01  0.22892459962E+02  0.51100000000E-03 0. -1.
        -11    1    3    3    0    0  0.84538293159E+01 -0.29231481528E+01 -0.21399703481E+01  0.91973636754E+01  0.51100000000E-03 0.  1.
         12    1    3    3    0    0  0.65569684579E+00  0.11545866068E+02 -0.14361795262E+02  0.18439038065E+02  0.00000000000E+00 0. -1.
</event>
<event>
 7    1  0.5487071E-013  0.5052874E+02  0.7816164E-02  0.1300439E+00
        -11   -1    0    0    0    0  0.00000000000E+00  0.00000000000E+00  0.45593999997E+02  0.45594000000E+02  0.51100000000E-03 0. -1.
         11   -1    0    0    0    0 -0.00000000000E+00 -0.00000000000E+00 -0.45593999997E+02  0.45594000000E+02  0.51100000000E-03 0.  1.
    9900012    2    1    2    0    0 -0.33951407993E+02 -0.88847809144E+01  0.20531386833E+02  0.50528741745E+02  0.29999641005E+02 0.  0.
        -12    1    1    2    0    0  0.33951407993E+02  0.88847809144E+01 -0.20531386833E+02  0.40659258255E+02  0.00000000000E+00 0.  1.
         11    1    3    3    0    0 -0.17506254687E+02 -0.40063103035E+01  0.15715012868E+02  0.23863803241E+02  0.51100000000E-03 0. -1.
        -11    1    3    3    0    0 -0.81861807444E+01  0.39602333178E+01  0.99891638488E+01  0.13508530556E+02  0.51100000000E-03 0.  1.
        -12    1    3    3    0    0 -0.82589725610E+01 -0.88387039287E+01 -0.51727898839E+01  0.13156407948E+02  0.00000000000E+00 0.  1.
</event>
<event>
 7    1  0.5487071E-013  0.5052886E+02  0.7816164E-02  0.1300439E+00
        -11   -1    0    0    0    0  0.00000000000E+00  0.00000000000E+00  0.45593999997E+02  0.45594000000E+02  0.51100000000E-03 0.  1.
         11   -1    0    0    0    0 -0.00000000000E+00 -0.00000000000E+00 -0.45593999997E+02  0.45594000000E+02  0.51100000000E-03 0. -1.
    9900012    2    1    2    0    0 -0.15720091159E+02  0.34926649342E+02 -0.13644539221E+02  0.50528861410E+02  0.30000004742E+02 0.  0.
        -12    1    1    2    0    0  0.15720091159E+02 -0.34926649342E+02  0.13644539221E+02  0.40659138590E+02  0.00000000000E+00 0.  1.
         11    1    3    3    0    0 -0.69670997234E+01  0.43154813690E+01 -0.11510663671E+02  0.14130082675E+02  0.51100000000E-03 0. -1.
        -11    1    3    3    0    0  0.73345096896E+00  0.55729885540E+01  0.61884047713E+01  0.83601737794E+01  0.51100000000E-03 0.  1.
         12    1    3    3    0    0 -0.94864424046E+01  0.25038179419E+02 -0.83222803219E+01  0.28038604956E+02  0.00000000000E+00 0. -1.
</event>
<event>
 7    1  0.5487071E-013  0.5052886E+02  0.7816164E-02  0.1300439E+00
        -11   -1    0    0    0    0  0.00000000000E+00  0.00000000000E+00  0.45593999997E+02  0.45594000000E+02  0.51100000000E-03 0. -1.
         11   -1    0    0    0    0 -0.00000000000E+00 -0.00000000000E+00 -0.45593999997E+02  0.45594000000E+02  0.51100000000E-03 0.  1.
    9900012    2    1    2    0    0  0.16128546072E+02 -0.36181224875E+02  0.91626862485E+01  0.50528857717E+02  0.29999993517E+02 0.  0.
        -12    1    1    2    0    0 -0.16128546072E+02  0.36181224875E+02 -0.91626862485E+01  0.40659142283E+02  0.00000000000E+00 0.  1.
         11    1    3    3    0    0 -0.22519388900E+01 -0.15360026633E+02  0.32821573764E-02  0.15524228096E+02  0.51100000000E-03 0. -1.
        -11    1    3    3    0    0  0.18179605553E+02 -0.10728559380E+02 -0.38433249221E+00  0.21112739192E+02  0.51100000000E-03 0.  1.
         12    1    3    3    0    0  0.20087940892E+00 -0.10092638862E+02  0.95437365833E+01  0.13891890430E+02  0.00000000000E+00 0. -1.
</event>
<event>
 7    1  0.5487071E-013  0.5052887E+02  0.7816164E-02  0.1300439E+00
        -11   -1    0    0    0    0  0.00000000000E+00  0.00000000000E+00  0.45593999997E+02  0.45594000000E+02  0.51100000000E-03 0. -1.
         11   -1    0    0    0    0 -0.00000000000E+00 -0.00000000000E+00 -0.45593999997E+02  0.45594000000E+02  0.51100000000E-03 0.  1.
    9900012    2    1    2    0    0 -0.31875932871E+02 -0.25070803885E+02 -0.29231233275E+01  0.50528868753E+02  0.30000027060E+02 0.  0.
        -12    1    1    2    0    0  0.31875932871E+02  0.25070803885E+02  0.29231233275E+01  0.40659131247E+02  0.00000000000E+00 0.  1.
         11    1    3    3    0    0 -0.44552284963E+01 -0.34198835505E+01  0.67509947595E+01  0.87818332344E+01  0.51100000000E-03 0.  1.
        -11    1    3    3    0    0 -0.13296929903E+02  0.98466168809E+00 -0.66379672651E+01  0.14894311436E+02  0.51100000000E-03 0. -1.
         12    1    3    3    0    0 -0.14123774472E+02 -0.22635582022E+02 -0.30361508219E+01  0.26852724082E+02  0.00000000000E+00 0. -1.
</event>
<event>
 7    1  0.5487071E-013  0.5052885E+02  0.7816164E-02  0.1300439E+00
        -11   -1    0    0    0    0  0.00000000000E+00  0.00000000000E+00  0.45593999997E+02  0.45594000000E+02  0.51100000000E-03 0.  1.
         11   -1    0    0    0    0 -0.00000000000E+00 -0.00000000000E+00 -0.45593999997E+02  0.45594000000E+02  0.51100000000E-03 0. -1.
    9900012    2    1    2    0    0  0.81847954992E+01 -0.20984021826E+02 -0.33850350478E+02  0.50528852483E+02  0.29999977607E+02 0.  0.
        -12    1    1    2    0    0 -0.81847954992E+01  0.20984021826E+02  0.33850350478E+02  0.40659147517E+02  0.00000000000E+00 0.  1.
         11    1    3    3    0    0 -0.25736322075E+01 -0.89615274087E+01 -0.59835662579E+01  0.11078610999E+02  0.51100000000E-03 0. -1.
        -11    1    3    3    0    0 -0.70081222968E+01 -0.37888799212E+01 -0.52829444119E+01  0.95592306753E+01  0.51100000000E-03 0.  1.
         12    1    3    3    0    0  0.17766550003E+02 -0.82336144961E+01 -0.22583839808E+02  0.29891010809E+02  0.00000000000E+00 0. -1.
</event>
<event>
 7    1  0.5487071E-013  0.5052886E+02  0.7816164E-02  0.1300439E+00
        -11   -1    0    0    0    0  0.00000000000E+00  0.00000000000E+00  0.45593999997E+02  0.45594000000E+02  0.51100000000E-03 0.  1.
         11   -1    0    0    0    0 -0.00000000000E+00 -0.00000000000E+00 -0.45593999997E+02  0.45594000000E+02  0.51100000000E-03 0. -1.
    9900012    2    1    2    0    0  0.23433313220E+02 -0.11073023418E+02 -0.31327837352E+02  0.50528863152E+02  0.30000010037E+02 0.  0.
        -12    1    1    2    0    0 -0.23433313220E+02  0.11073023418E+02  0.31327837352E+02  0.40659136848E+02  0.00000000000E+00 0.  1.
         11    1    3    3    0    0 -0.25416150661E+01  0.28420574491E+01 -0.58527654511E+01  0.69851242920E+01  0.51100000000E-03 0. -1.
        -11    1    3    3    0    0  0.14803989490E+01  0.38841935458E+01 -0.30216696585E+00  0.41677146839E+01  0.51100000000E-03 0.  1.
        -12    1    3    3    0    0  0.24494529337E+02 -0.17799274412E+02 -0.25172904935E+02  0.39376024176E+02  0.00000000000E+00 0.  1.
</event>
<event>
 7    1  0.5487071E-013  0.5052888E+02  0.7816164E-02  0.1300439E+00
        -11   -1    0    0    0    0  0.00000000000E+00  0.00000000000E+00  0.45593999997E+02  0.45594000000E+02  0.51100000000E-03 0.  1.
         11   -1    0    0    0    0 -0.00000000000E+00 -0.00000000000E+00 -0.45593999997E+02  0.45594000000E+02  0.51100000000E-03 0. -1.
    9900012    2    1    2    0    0  0.94686538742E+01  0.14677872410E+02 -0.36716056868E+02  0.50528878310E+02  0.30000056112E+02 0.  0.
        -12    1    1    2    0    0 -0.94686538742E+01 -0.14677872410E+02  0.36716056868E+02  0.40659121690E+02  0.00000000000E+00 0.  1.
         11    1    3    3    0    0  0.22457797146E+01  0.15641490942E+01 -0.16027200388E+02  0.16259189446E+02  0.51100000000E-03 0. -1.
        -11    1    3    3    0    0  0.10125647938E+02  0.11239673376E+02 -0.24706815813E+02  0.28970428917E+02  0.51100000000E-03 0.  1.
        -12    1    3    3    0    0 -0.29027737782E+01  0.18740499393E+01  0.40179593332E+01  0.52992599470E+01  0.00000000000E+00 0.  1.
</event>
<event>
 7    1  0.5487071E-013  0.5052886E+02  0.7816164E-02  0.1300439E+00
        -11   -1    0    0    0    0  0.00000000000E+00  0.00000000000E+00  0.45593999997E+02  0.45594000000E+02  0.51100000000E-03 0.  1.
         11   -1    0    0    0    0 -0.00000000000E+00 -0.00000000000E+00 -0.45593999997E+02  0.45594000000E+02  0.51100000000E-03 0. -1.
    9900012    2    1    2    0    0 -0.14292225081E+02  0.36309496083E+02 -0.11424470954E+02  0.50528859082E+02  0.29999997667E+02 0.  0.
        -12    1    1    2    0    0  0.14292225081E+02 -0.36309496083E+02  0.11424470954E+02  0.40659140918E+02  0.00000000000E+00 0.  1.
         11    1    3    3    0    0 -0.75868597501E+01  0.11224667046E+02 -0.34717553062E+01  0.13985945671E+02  0.51100000000E-03 0. -1.
        -11    1    3    3    0    0  0.41751604131E+01 -0.31683590367E+01 -0.49531074338E-02  0.52412296510E+01  0.51100000000E-03 0.  1.
         12    1    3    3    0    0 -0.10880525744E+02  0.28253188074E+02 -0.79477625407E+01  0.31301683760E+02  0.00000000000E+00 0. -1.
</event>
<event>
 7    1  0.5487071E-013  0.5052886E+02  0.7816164E-02  0.1300439E+00
        -11   -1    0    0    0    0  0.00000000000E+00  0.00000000000E+00  0.45593999997E+02  0.45594000000E+02  0.51100000000E-03 0. -1.
         11   -1    0    0    0    0 -0.00000000000E+00 -0.00000000000E+00 -0.45593999997E+02  0.45594000000E+02  0.51100000000E-03 0.  1.
    9900012    2    1    2    0    0 -0.33755402548E+02 -0.17567804043E+02  0.14321681142E+02  0.50528862149E+02  0.30000006987E+02 0.  0.
        -12    1    1    2    0    0  0.33755402548E+02  0.17567804043E+02 -0.14321681142E+02  0.40659137851E+02  0.00000000000E+00 0.  1.
         11    1    3    3    0    0 -0.95621349396E+01 -0.28737864034E+01  0.19101650042E+02  0.21553795663E+02  0.51100000000E-03 0. -1.
        -11    1    3    3    0    0 -0.79934518577E+01 -0.61258113786E+01 -0.14488195625E+00  0.10071833432E+02  0.51100000000E-03 0.  1.
        -12    1    3    3    0    0 -0.16199815751E+02 -0.85682062607E+01 -0.46350869440E+01  0.18903233053E+02  0.00000000000E+00 0.  1.
</event>
<event>
 7    1  0.5487071E-013  0.5052886E+02  0.7816164E-02  0.1300439E+00
        -11   -1    0    0    0    0  0.00000000000E+00  0.00000000000E+00  0.45593999997E+02  0.45594000000E+02  0.51100000000E-03 0.  1.
         11   -1    0    0    0    0 -0.00000000000E+00 -0.00000000000E+00 -0.45593999997E+02  0.45594000000E+02  0.51100000000E-03 0. -1.
    9900012    2    1    2    0    0 -0.29201437180E+02  0.26207425760E+02 -0.10658938284E+02  0.50528855104E+02  0.29999985575E+02 0.  0.
        -12    1    1    2    0    0  0.29201437180E+02 -0.26207425760E+02  0.10658938284E+02  0.40659144896E+02  0.00000000000E+00 0.  1.
         11    1    3    3    0    0 -0.12369743293E+02  0.24173440282E+02 -0.11274779193E+02  0.29402149757E+02  0.51100000000E-03 0. -1.
        -11    1    3    3    0    0 -0.72894671057E+01  0.50491816821E+01 -0.44376939762E+01  0.99158304963E+01  0.51100000000E-03 0.  1.
        -12    1    3    3    0    0 -0.95422267806E+01 -0.30151962044E+01  0.50535348855E+01  0.11210874851E+02  0.00000000000E+00 0.  1.
</event>
<event>
 7    1  0.5487071E-013  0.5052885E+02  0.7816164E-02  0.1300439E+00
        -11   -1    0    0    0    0  0.00000000000E+00  0.00000000000E+00  0.45593999997E+02  0.45594000000E+02  0.51100000000E-03 0. -1.
         11   -1    0    0    0    0 -0.00000000000E+00 -0.00000000000E+00 -0.45593999997E+02  0.45594000000E+02  0.51100000000E-03 0.  1.
    9900012    2    1    2    0    0 -0.18640492590E+02 -0.13956182613E+02  0.33330516651E+02  0.50528851739E+02  0.29999975345E+02 0.  0.
        -12    1    1    2    0    0  0.18640492590E+02  0.13956182613E+02 -0.33330516651E+02  0.40659148261E+02  0.00000000000E+00 0.  1.
         11    1    3    3    0    0 -0.48840050651E+01 -0.11465638582E+01  0.69844248747E-01  0.50172694403E+01  0.51100000000E-03 0.  1.
        -11    1    3    3    0    0 -0.90575563147E+01 -0.11594195500E+02  0.31936931248E+01  0.15055376838E+02  0.51100000000E-03 0. -1.
         12    1    3    3    0    0 -0.46989312098E+01 -0.12154232547E+01  0.30066979277E+02  0.30456205461E+02  0.00000000000E+00 0. -1.
</event>
<event>
 7    1  0.5487071E-013  0.5052884E+02  0.7816164E-02  0.1300439E+00
        -11   -1    0    0    0    0  0.00000000000E+00  0.00000000000E+00  0.45593999997E+02  0.45594000000E+02  0.51100000000E-03 0.  1.
         11   -1    0    0    0    0 -0.00000000000E+00 -0.00000000000E+00 -0.45593999997E+02  0.45594000000E+02  0.51100000000E-03 0. -1.
    9900012    2    1    2    0    0  0.11483254590E+02  0.10978655144E+02 -0.37426873944E+02  0.50528844844E+02  0.29999954389E+02 0.  0.
        -12    1    1    2    0    0 -0.11483254590E+02 -0.10978655144E+02  0.37426873944E+02  0.40659155156E+02  0.00000000000E+00 0.  1.
         11    1    3    3    0    0  0.58854977404E+01 -0.46568704899E+01 -0.21862836311E+01  0.78169919272E+01  0.51100000000E-03 0. -1.
        -11    1    3    3    0    0  0.79331839013E+01  0.11554742100E+02 -0.10459156142E+02  0.17488322369E+02  0.51100000000E-03 0.  1.
         12    1    3    3    0    0 -0.23354270516E+01  0.40807835346E+01 -0.24781434171E+02  0.25223530548E+02  0.00000000000E+00 0. -1.
</event>
<event>
 7    1  0.5487071E-013  0.5052887E+02  0.7816164E-02  0.1300439E+00
        -11   -1    0    0    0    0  0.00000000000E+00  0.00000000000E+00  0.45593999997E+02  0.45594000000E+02  0.51100000000E-03 0.  1.
         11   -1    0    0    0    0 -0.00000000000E+00 -0.00000000000E+00 -0.45593999997E+02  0.45594000000E+02  0.51100000000E-03 0. -1.
    9900012    2    1    2    0    0 -0.29559134363E+01  0.20846663470E+02 -0.34782818076E+02  0.50528865290E+02  0.30000016535E+02 0.  0.
        -12    1    1    2    0    0  0.29559134363E+01 -0.20846663470E+02  0.34782818076E+02  0.40659134710E+02  0.00000000000E+00 0.  1.
         11    1    3    3    0    0 -0.24774624264E+01  0.50605834529E+01 -0.25319610325E+02  0.25938966676E+02  0.51100000000E-03 0. -1.
        -11    1    3    3    0    0  0.36115809901E+01  0.17424022406E+02 -0.95257130058E+01  0.20183638982E+02  0.51100000000E-03 0.  1.
        -12    1    3    3    0    0 -0.40900320000E+01 -0.16379423886E+01  0.62505254737E-01  0.44062596311E+01  0.00000000000E+00 0.  1.
</event>
<event>
 7    1  0.5487071E-013  0.5052887E+02  0.7816164E-02  0.1300439E+00
        -11   -1    0    0    0    0  0.00000000000E+00  0.00000000000E+00  0.45593999997E+02  0.45594000000E+02  0.51100000000E-03 0.  1.
         11   -1    0    0    0    0 -0.00000000000E+00 -0.00000000000E+00 -0.45593999997E+02  0.45594000000E+02  0.51100000000E-03 0. -1.
    9900012    2    1    2    0    0  0.21174440283E+02  0.25885867737E+02 -0.23124226130E+02  0.50528869366E+02  0.30000028925E+02 0.  0.
        -12    1    1    2    0    0 -0.21174440283E+02 -0.25885867737E+02  0.23124226130E+02  0.40659130634E+02  0.00000000000E+00 0.  1.
         11    1    3    3    0    0  0.11298268148E+02  0.14213622069E+00 -0.95753761414E+01  0.14810769539E+02  0.51100000000E-03 0. -1.
        -11    1    3    3    0    0  0.14538906232E+01 -0.17943549711E+01  0.19431831771E+01  0.30181896606E+01  0.51100000000E-03 0.  1.
         12    1    3    3    0    0  0.84222815125E+01  0.27538086487E+02 -0.15492033165E+02  0.32699910166E+02  0.00000000000E+00 0. -1.
</event>
<event>
 7    1  0.5487071E-013  0.5052885E+02  0.7816164E-02  0.1300439E+00
        -11   -1    0    0    0    0  0.00000000000E+00  0.00000000000E+00  0.45593999997E+02  0.45594000000E+02  0.51100000000E-03 0. -1.
         11   -1    0    0    0    0 -0.00000000000E+00 -0.00000000000E+00 -0.45593999997E+02  0.45594000000E+02  0.51100000000E-03 0.  1.
    9900012    2    1    2    0    0  0.36448405234E+02 -0.99743166004E+01  0.15006430921E+02  0.50528853369E+02  0.29999980300E+02 0.  0.
        -12    1    1    2    0    0 -0.36448405234E+02  0.99743166004E+01 -0.15006430921E+02  0.40659146631E+02  0.00000000000E+00 0.  1.
         11    1    3    3    0    0  0.27778018573E+02  0.73650839314E+00  0.19957913321E+02  0.34212264831E+02  0.51100000000E-03 0. -1.
        -11    1    3    3    0    0  0.57144992694E+01 -0.44290688415E+01 -0.58710349621E+01  0.93134958254E+01  0.51100000000E-03 0.  1.
        -12    1    3    3    0    0  0.29558873916E+01 -0.62817561520E+01  0.91955256202E+00  0.70030927125E+01  0.00000000000E+00 0.  1.
</event>
<event>
 7    1  0.5487071E-013  0.5052886E+02  0.7816164E-02  0.1300439E+00
        -11   -1    0    0    0    0  0.00000000000E+00  0.00000000000E+00  0.45593999997E+02  0.45594000000E+02  0.51100000000E-03 0. -1.
         11   -1    0    0    0    0 -0.00000000000E+00 -0.00000000000E+00 -0.45593999997E+02  0.45594000000E+02  0.51100000000E-03 0.  1.
    9900012    2    1    2    0    0  0.94359482472E+01 -0.34187283417E+02  0.19883616294E+02  0.50528860022E+02  0.30000000524E+02 0.  0.
        -12    1    1    2    0    0 -0.94359482472E+01  0.34187283417E+02 -0.19883616294E+02  0.40659139978E+02  0.00000000000E+00 0.  1.
         11    1    3    3    0    0 -0.43711589310E+01 -0.10367686967E+02  0.11344023807E+02  0.15977573028E+02  0.51100000000E-03 0. -1.
        -11    1    3    3    0    0 -0.24366636002E+01 -0.21328302792E+00  0.51436420770E+01  0.56956012174E+01  0.51100000000E-03 0.  1.
         12    1    3    3    0    0  0.16243770779E+02 -0.23606313422E+02  0.33959504098E+01  0.28855685777E+02  0.00000000000E+00 0. -1.
</event>
<event>
 7    1  0.5487071E-013  0.5052888E+02  0.7816164E-02  0.1300439E+00
        -11   -1    0    0    0    0  0.00000000000E+00  0.00000000000E+00  0.45593999997E+02  0.45594000000E+02  0.51100000000E-03 0. -1.
         11   -1    0    0    0    0 -0.00000000000E+00 -0.00000000000E+00 -0.45593999997E+02  0.45594000000E+02  0.51100000000E-03 0.  1.
    9900012    2    1    2    0    0 -0.20471760046E+02 -0.33241576508E+02  0.11360843314E+02  0.50528878896E+02  0.30000057892E+02 0.  0.
        -12    1    1    2    0    0  0.20471760046E+02  0.33241576508E+02 -0.11360843314E+02  0.40659121104E+02  0.00000000000E+00 0.  1.
         11    1    3    3    0    0 -0.13383091583E+02 -0.30366803155E+02  0.14795406183E+02  0.36333922422E+02  0.51100000000E-03 0. -1.
        -11    1    3    3    0    0 -0.58728181394E+01 -0.54978259725E+01  0.17738905940E+01  0.82378863444E+01  0.51100000000E-03 0.  1.
        -12    1    3    3    0    0 -0.12158503242E+01  0.26230526188E+01 -0.52084534635E+01  0.59570701300E+01  0.00000000000E+00 0.  1.
</event>
<event>
 7    1  0.5487071E-013  0.5052884E+02  0.7816164E-02  0.1300439E+00
        -11   -1    0    0    0    0  0.00000000000E+00  0.00000000000E+00  0.45593999997E+02  0.45594000000E+02  0.51100000000E-03 0.  1.
         11   -1    0    0    0    0 -0.00000000000E+00 -0.00000000000E+00 -0.45593999997E+02  0.45594000000E+02  0.51100000000E-03 0. -1.
    9900012    2    1    2    0    0  0.25647923392E+02 -0.21596323795E+02  0.22998914258E+02  0.50528840727E+02  0.29999941873E+02 0.  0.
        -12    1    1    2    0    0 -0.25647923392E+02  0.21596323795E+02 -0.22998914258E+02  0.40659159273E+02  0.00000000000E+00 0.  1.
         11    1    3    3    0    0  0.12274464145E+01 -0.42420049635E+00  0.45318880377E+01  0.47142953036E+01  0.51100000000E-03 0. -1.
        -11    1    3    3    0    0  0.24260910467E+02 -0.49242368560E+01  0.15747684822E+02  0.29339895413E+02  0.51100000000E-03 0.  1.
         12    1    3    3    0    0  0.15956650990E+00 -0.16247886442E+02  0.27193413982E+01  0.16474650010E+02  0.00000000000E+00 0. -1.
</event>
<event>
 7    1  0.5487071E-013  0.5052885E+02  0.7816164E-02  0.1300439E+00
        -11   -1    0    0    0    0  0.00000000000E+00  0.00000000000E+00  0.45593999997E+02  0.45594000000E+02  0.51100000000E-03 0.  1.
         11   -1    0    0    0    0 -0.00000000000E+00 -0.00000000000E+00 -0.45593999997E+02  0.45594000000E+02  0.51100000000E-03 0. -1.
    9900012    2    1    2    0    0  0.37567403337E+02 -0.13362876846E+02 -0.79555302236E+01  0.50528846882E+02  0.29999960583E+02 0.  0.
        -12    1    1    2    0    0 -0.37567403337E+02  0.13362876846E+02  0.79555302236E+01  0.40659153118E+02  0.00000000000E+00 0.  1.
         11    1    3    3    0    0  0.11707035434E+02 -0.86545241232E+01 -0.11273314598E+02  0.18413122732E+02  0.51100000000E-03 0.  1.
        -11    1    3    3    0    0  0.11314996961E+02 -0.72233141392E+00 -0.74659196060E+01  0.13575377517E+02  0.51100000000E-03 0. -1.
        -12    1    3    3    0    0  0.14545370943E+02 -0.39860213091E+01  0.10783703981E+02  0.18540346633E+02  0.00000000000E+00 0.  1.
</event>
<event>
 7    1  0.5487071E-013  0.5052886E+02  0.7816164E-02  0.1300439E+00
        -11   -1    0    0    0    0  0.00000000000E+00  0.00000000000E+00  0.45593999997E+02  0.45594000000E+02  0.51100000000E-03 0.  1.
         11   -1    0    0    0    0 -0.00000000000E+00 -0.00000000000E+00 -0.45593999997E+02  0.45594000000E+02  0.51100000000E-03 0. -1.
    9900012    2    1    2    0    0  0.11683004249E+02  0.69466999364E+01 -0.38319922002E+02  0.50528860185E+02  0.30000001018E+02 0.  0.
        -12    1    1    2    0    0 -0.11683004249E+02 -0.69466999364E+01  0.38319922002E+02  0.40659139815E+02  0.00000000000E+00 0.  1.
         11    1    3    3    0    0 -0.75762645204E+00  0.12170613180E+02 -0.22607950106E+02  0.25686907780E+02  0.51100000000E-03 0. -1.
        -11    1    3    3    0    0  0.12923497522E+01 -0.75653697627E+01 -0.79950695981E+01  0.11082694874E+02  0.51100000000E-03 0.  1.
        -12    1    3    3    0    0  0.11148280949E+02  0.23414565195E+01 -0.77169022975E+01  0.13759257531E+02  0.00000000000E+00 0.  1.
</event>
<event>
 7    1  0.5487071E-013  0.5052887E+02  0.7816164E-02  0.1300439E+00
        -11   -1    0    0    0    0  0.00000000000E+00  0.00000000000E+00  0.45593999997E+02  0.45594000000E+02  0.51100000000E-03 0. -1.
         11   -1    0    0    0    0 -0.00000000000E+00 -0.00000000000E+00 -0.45593999997E+02  0.45594000000E+02  0.51100000000E-03 0.  1.
    9900012    2    1    2    0    0  0.20310717355E+02 -0.35195465843E+02  0.13853119489E+01  0.50528866406E+02  0.30000019928E+02 0.  0.
        -12    1    1    2    0    0 -0.20310717355E+02  0.35195465843E+02 -0.13853119489E+01  0.40659133594E+02  0.00000000000E+00 0.  1.
         11    1    3    3    0    0  0.49450062726E+01 -0.20186631890E+01  0.60325598175E+01  0.80572865358E+01  0.51100000000E-03 0. -1.
        -11    1    3    3    0    0 -0.75550626658E-01 -0.49676844730E+01  0.67250630013E+01  0.83612241659E+01  0.51100000000E-03 0.  1.
         12    1    3    3    0    0  0.15441261709E+02 -0.28209118181E+02 -0.11372310870E+02  0.34110355704E+02  0.00000000000E+00 0. -1.
</event>
<event>
 7    1  0.5487071E-013  0.5052886E+02  0.7816164E-02  0.1300439E+00
        -11   -1    0    0    0    0  0.00000000000E+00  0.00000000000E+00  0.45593999997E+02  0.45594000000E+02  0.51100000000E-03 0.  1.
         11   -1    0    0    0    0 -0.00000000000E+00 -0.00000000000E+00 -0.45593999997E+02  0.45594000000E+02  0.51100000000E-03 0. -1.
    9900012    2    1    2    0    0  0.11607928600E+02 -0.10267848328E+02 -0.37589798465E+02  0.50528860015E+02  0.30000000503E+02 0.  0.
        -12    1    1    2    0    0 -0.11607928600E+02  0.10267848328E+02  0.37589798465E+02  0.40659139985E+02  0.00000000000E+00 0.  1.
         11    1    3    3    0    0  0.89204867043E+01  0.58801307987E+01 -0.22942705739E+02  0.25308472260E+02  0.51100000000E-03 0. -1.
        -11    1    3    3    0    0  0.86981736044E+00 -0.25337018189E+00  0.19610388169E+01  0.21601972577E+01  0.51100000000E-03 0.  1.
        -12    1    3    3    0    0  0.18176245349E+01 -0.15894608944E+02 -0.16608131542E+02  0.23060190497E+02  0.00000000000E+00 0.  1.
</event>
<event>
 7    1  0.5487071E-013  0.5052887E+02  0.7816164E-02  0.1300439E+00
        -11   -1    0    0    0    0  0.00000000000E+00  0.00000000000E+00  0.45593999997E+02  0.45594000000E+02  0.51100000000E-03 0.  1.
         11   -1    0    0    0    0 -0.00000000000E+00 -0.00000000000E+00 -0.45593999997E+02  0.45594000000E+02  0.51100000000E-03 0. -1.
    9900012    2    1    2    0    0  0.41865341846E+01  0.60880208453E+01 -0.39982170861E+02  0.50528867532E+02  0.30000023350E+02 0.  0.
        -12    1    1    2    0    0 -0.41865341846E+01 -0.60880208453E+01  0.39982170861E+02  0.40659132468E+02  0.00000000000E+00 0.  1.
         11    1    3    3    0    0 -0.29302743078E+01  0.34410051728E+01 -0.11255867021E+02  0.12129367946E+02  0.51100000000E-03 0. -1.
        -11    1    3    3    0    0 -0.54943625941E+01  0.93395266617E+01 -0.92257436442E+01  0.14231272769E+02  0.51100000000E-03 0.  1.
        -12    1    3    3    0    0  0.12611171086E+02 -0.66925109892E+01 -0.19500560196E+02  0.24168226817E+02  0.00000000000E+00 0.  1.
</event>
<event>
 7    1  0.5487071E-013  0.5052885E+02  0.7816164E-02  0.1300439E+00
        -11   -1    0    0    0    0  0.00000000000E+00  0.00000000000E+00  0.45593999997E+02  0.45594000000E+02  0.51100000000E-03 0. -1.
         11   -1    0    0    0    0 -0.00000000000E+00 -0.00000000000E+00 -0.45593999997E+02  0.45594000000E+02  0.51100000000E-03 0.  1.
    9900012    2    1    2    0    0 -0.36921446502E+01 -0.35657292459E+02 -0.19185715297E+02  0.50528854545E+02  0.29999983876E+02 0.  0.
        -12    1    1    2    0    0  0.36921446502E+01  0.35657292459E+02  0.19185715297E+02  0.40659145455E+02  0.00000000000E+00 0.  1.
         11    1    3    3    0    0 -0.48747280200E+01 -0.28342168565E+02 -0.11452538512E+02  0.30954840185E+02  0.51100000000E-03 0. -1.
        -11    1    3    3    0    0 -0.29583281794E+01 -0.98226394070E+01  0.22293385093E+00  0.10260879606E+02  0.51100000000E-03 0.  1.
        -12    1    3    3    0    0  0.41409115492E+01  0.25075155122E+01 -0.79561106357E+01  0.93131347542E+01  0.00000000000E+00 0.  1.
</event>
<event>
 7    1  0.5487071E-013  0.5052886E+02  0.7816164E-02  0.1300439E+00
        -11   -1    0    0    0    0  0.00000000000E+00  0.00000000000E+00  0.45593999997E+02  0.45594000000E+02  0.51100000000E-03 0.  1.
         11   -1    0    0    0    0 -0.00000000000E+00 -0.00000000000E+00 -0.45593999997E+02  0.45594000000E+02  0.51100000000E-03 0. -1.
    9900012    2    1    2    0    0  0.12882965511E+02 -0.76064253307E+01 -0.37806574784E+02  0.50528860762E+02  0.30000002773E+02 0.  0.
        -12    1    1    2    0    0 -0.12882965511E+02  0.76064253307E+01  0.37806574784E+02  0.40659139238E+02  0.00000000000E+00 0.  1.
         11    1    3    3    0    0  0.11441236589E+01 -0.67235622322E+01 -0.25507550080E+02  0.26403606182E+02  0.51100000000E-03 0. -1.
        -11    1    3    3    0    0  0.62256266091E+01  0.76948932147E+01 -0.90815024297E+01  0.13432925776E+02  0.51100000000E-03 0.  1.
        -12    1    3    3    0    0  0.55132152430E+01 -0.85777563132E+01 -0.32175222740E+01  0.10692328805E+02  0.00000000000E+00 0.  1.
</event>
<event>
 7    1  0.5737715E-013  0.5052887E+02  0.7816164E-02  0.1300439E+00
        -11   -1    0    0    0    0  0.00000000000E+00  0.00000000000E+00  0.45593999997E+02  0.45594000000E+02  0.51100000000E-03 0. -1.
         11   -1    0    0    0    0 -0.00000000000E+00 -0.00000000000E+00 -0.45593999997E+02  0.45594000000E+02  0.51100000000E-03 0.  1.
    9900012    2    1    2    0    0 -0.39988116209E+02  0.46905788866E+01  0.56669278888E+01  0.50528867694E+02  0.30000023841E+02 0.  0.
        -12    1    1    2    0    0  0.39988116209E+02 -0.46905788866E+01 -0.56669278888E+01  0.40659132306E+02  0.00000000000E+00 0.  1.
         11    1    3    3    0    0 -0.65750346491E+01 -0.60662598045E+01 -0.38962667262E+00  0.89544624550E+01  0.51100000000E-03 0. -1.
        -11    1    3    3    0    0  0.66739703117E+00 -0.24146673728E+01  0.43225833714E+01  0.49960749176E+01  0.51100000000E-03 0.  1.
         12    1    3    3    0    0 -0.34080478591E+02  0.13171506064E+02  0.17339711900E+01  0.36578330321E+02  0.00000000000E+00 0. -1.
</event>
<event>
 7    1  0.5487071E-013  0.5052887E+02  0.7816164E-02  0.1300439E+00
        -11   -1    0    0    0    0  0.00000000000E+00  0.00000000000E+00  0.45593999997E+02  0.45594000000E+02  0.51100000000E-03 0.  1.
         11   -1    0    0    0    0 -0.00000000000E+00 -0.00000000000E+00 -0.45593999997E+02  0.45594000000E+02  0.51100000000E-03 0. -1.
    9900012    2    1    2    0    0  0.33839380956E+02 -0.12753079023E+02 -0.18585474972E+02  0.50528873005E+02  0.30000039985E+02 0.  0.
        -12    1    1    2    0    0 -0.33839380956E+02  0.12753079023E+02  0.18585474972E+02  0.40659126995E+02  0.00000000000E+00 0.  1.
         11    1    3    3    0    0  0.27242114219E+01 -0.25472299433E+01 -0.73152711204E+01  0.82111448704E+01  0.51100000000E-03 0. -1.
        -11    1    3    3    0    0 -0.34618994188E+01 -0.45019835659E+01 -0.75060819982E+00  0.57285265596E+01  0.51100000000E-03 0.  1.
         12    1    3    3    0    0  0.34577068953E+02 -0.57038655140E+01 -0.10519595652E+02  0.36589201575E+02  0.00000000000E+00 0. -1.
</event>
<event>
 7    1  0.5487071E-013  0.5052885E+02  0.7816164E-02  0.1300439E+00
        -11   -1    0    0    0    0  0.00000000000E+00  0.00000000000E+00  0.45593999997E+02  0.45594000000E+02  0.51100000000E-03 0. -1.
         11   -1    0    0    0    0 -0.00000000000E+00 -0.00000000000E+00 -0.45593999997E+02  0.45594000000E+02  0.51100000000E-03 0.  1.
    9900012    2    1    2    0    0 -0.20799083949E+02 -0.28359430958E+02 -0.20403602846E+02  0.50528853102E+02  0.29999979489E+02 0.  0.
        -12    1    1    2    0    0  0.20799083949E+02  0.28359430958E+02  0.20403602846E+02  0.40659146898E+02  0.00000000000E+00 0.  1.
         11    1    3    3    0    0 -0.39134472557E+01 -0.47749613679E+00 -0.53861939177E+01  0.66748900488E+01  0.51100000000E-03 0. -1.
        -11    1    3    3    0    0 -0.18184087237E+02 -0.61661834452E+01 -0.94382414484E+01  0.21395402516E+02  0.51100000000E-03 0.  1.
        -12    1    3    3    0    0  0.12984505437E+01 -0.21715751376E+02 -0.55791674798E+01  0.22458560537E+02  0.00000000000E+00 0.  1.
</event>
<event>
 7    1  0.5487071E-013  0.5052886E+02  0.7816164E-02  0.1300439E+00
        -11   -1    0    0    0    0  0.00000000000E+00  0.00000000000E+00  0.45593999997E+02  0.45594000000E+02  0.51100000000E-03 0. -1.
         11   -1    0    0    0    0 -0.00000000000E+00 -0.00000000000E+00 -0.45593999997E+02  0.45594000000E+02  0.51100000000E-03 0.  1.
    9900012    2    1    2    0    0  0.35713334070E+02 -0.10326749533E+02  0.16464562667E+02  0.50528858222E+02  0.29999995050E+02 0.  0.
        -12    1    1    2    0    0 -0.35713334070E+02  0.10326749533E+02 -0.16464562667E+02  0.40659141778E+02  0.00000000000E+00 0.  1.
         11    1    3    3    0    0  0.65067493448E+01  0.11131420990E+01  0.84246009983E+01  0.10702839558E+02  0.51100000000E-03 0. -1.
        -11    1    3    3    0    0  0.23657689991E+02 -0.33159561541E+01  0.14603882647E+02  0.27999200873E+02  0.51100000000E-03 0.  1.
        -12    1    3    3    0    0  0.55488947349E+01 -0.81239354777E+01 -0.65639209784E+01  0.11826817790E+02  0.00000000000E+00 0.  1.
</event>
<event>
 7    1  0.5487071E-013  0.5052876E+02  0.7816164E-02  0.1300439E+00
        -11   -1    0    0    0    0  0.00000000000E+00  0.00000000000E+00  0.45593999997E+02  0.45594000000E+02  0.51100000000E-03 0.  1.
         11   -1    0    0    0    0 -0.00000000000E+00 -0.00000000000E+00 -0.45593999997E+02  0.45594000000E+02  0.51100000000E-03 0. -1.
    9900012    2    1    2    0    0 -0.31956774023E+02  0.23899942462E+02 -0.77930057755E+01  0.50528762493E+02  0.29999704072E+02 0.  0.
        -12    1    1    2    0    0  0.31956774023E+02 -0.23899942462E+02  0.77930057755E+01  0.40659237507E+02  0.00000000000E+00 0.  1.
         11    1    3    3    0    0 -0.14350345950E+02  0.18117283102E+01 -0.11488250208E+02  0.18471455856E+02  0.51100000000E-03 0. -1.
        -11    1    3    3    0    0 -0.69805325150E+00  0.39473193459E+01 -0.44174862970E+01  0.59651314994E+01  0.51100000000E-03 0.  1.
         12    1    3    3    0    0 -0.16908374822E+02  0.18140894806E+02  0.81127307298E+01  0.26092175137E+02  0.00000000000E+00 0. -1.
</event>
<event>
 7    1  0.5487071E-013  0.5052887E+02  0.7816164E-02  0.1300439E+00
        -11   -1    0    0    0    0  0.00000000000E+00  0.00000000000E+00  0.45593999997E+02  0.45594000000E+02  0.51100000000E-03 0.  1.
         11   -1    0    0    0    0 -0.00000000000E+00 -0.00000000000E+00 -0.45593999997E+02  0.45594000000E+02  0.51100000000E-03 0. -1.
    9900012    2    1    2    0    0  0.16140044784E+02 -0.27784868495E+02  0.24913139221E+02  0.50528874717E+02  0.30000045189E+02 0.  0.
        -12    1    1    2    0    0 -0.16140044784E+02  0.27784868495E+02 -0.24913139221E+02  0.40659125283E+02  0.00000000000E+00 0.  1.
         11    1    3    3    0    0 -0.62072330107E+01 -0.33149400900E+01  0.76103195487E+01  0.10365111352E+02  0.51100000000E-03 0. -1.
        -11    1    3    3    0    0  0.66129124310E+01 -0.11900801929E+02  0.14400204049E+02  0.19817304920E+02  0.51100000000E-03 0.  1.
         12    1    3    3    0    0  0.15734365364E+02 -0.12569126477E+02  0.29026156239E+01  0.20346458445E+02  0.00000000000E+00 0. -1.
</event>
<event>
 7    1  0.5487071E-013  0.5052887E+02  0.7816164E-02  0.1300439E+00
        -11   -1    0    0    0    0  0.00000000000E+00  0.00000000000E+00  0.45593999997E+02  0.45594000000E+02  0.51100000000E-03 0.  1.
         11   -1    0    0    0    0 -0.00000000000E+00 -0.00000000000E+00 -0.45593999997E+02  0.45594000000E+02  0.51100000000E-03 0. -1.
    9900012    2    1    2    0    0  0.36097219095E+02 -0.12617027879E+02 -0.13819064095E+02  0.50528866323E+02  0.30000019676E+02 0.  0.
        -12    1    1    2    0    0 -0.36097219095E+02  0.12617027879E+02  0.13819064095E+02  0.40659133677E+02  0.00000000000E+00 0.  1.
         11    1    3    3    0    0  0.19590743259E+02 -0.95245995880E+00 -0.92327078106E+01  0.21678267809E+02  0.51100000000E-03 0. -1.
        -11    1    3    3    0    0  0.13120163691E+02  0.17340030259E+01  0.22632765716E+01  0.13426387558E+02  0.51100000000E-03 0.  1.
        -12    1    3    3    0    0  0.33863121452E+01 -0.13398570946E+02 -0.68496328560E+01  0.15424210956E+02  0.00000000000E+00 0.  1.
</event>
<event>
 7    1  0.5487071E-013  0.5052886E+02  0.7816164E-02  0.1300439E+00
        -11   -1    0    0    0    0  0.00000000000E+00  0.00000000000E+00  0.45593999997E+02  0.45594000000E+02  0.51100000000E-03 0.  1.
         11   -1    0    0    0    0 -0.00000000000E+00 -0.00000000000E+00 -0.45593999997E+02  0.45594000000E+02  0.51100000000E-03 0. -1.
    9900012    2    1    2    0    0  0.12715193558E+02 -0.16330864434E+02 -0.34997031295E+02  0.50528862283E+02  0.30000007397E+02 0.  0.
        -12    1    1    2    0    0 -0.12715193558E+02  0.16330864434E+02  0.34997031295E+02  0.40659137717E+02  0.00000000000E+00 0.  1.
         11    1    3    3    0    0 -0.84819567831E+00  0.24276135883E+01 -0.27907887159E+01  0.37948973057E+01  0.51100000000E-03 0. -1.
        -11    1    3    3    0    0 -0.28597416546E+01 -0.13045487828E+01  0.28671948175E+01  0.42545007040E+01  0.51100000000E-03 0.  1.
        -12    1    3    3    0    0  0.16423130891E+02 -0.17453929239E+02 -0.35073437397E+02  0.42479464274E+02  0.00000000000E+00 0.  1.
</event>
<event>
 7    1  0.5487071E-013  0.5052888E+02  0.7816164E-02  0.1300439E+00
        -11   -1    0    0    0    0  0.00000000000E+00  0.00000000000E+00  0.45593999997E+02  0.45594000000E+02  0.51100000000E-03 0.  1.
         11   -1    0    0    0    0 -0.00000000000E+00 -0.00000000000E+00 -0.45593999997E+02  0.45594000000E+02  0.51100000000E-03 0. -1.
    9900012    2    1    2    0    0  0.20349155948E+00  0.35032343079E+02 -0.20636320754E+02  0.50528877965E+02  0.30000055061E+02 0.  0.
        -12    1    1    2    0    0 -0.20349155948E+00 -0.35032343079E+02  0.20636320754E+02  0.40659122035E+02  0.00000000000E+00 0.  1.
         11    1    3    3    0    0  0.76226260933E+01  0.12766779875E+02 -0.34537106644E+01  0.15265097922E+02  0.51100000000E-03 0. -1.
        -11    1    3    3    0    0  0.13022209213E+01  0.95016174140E+01  0.28080760502E+01  0.99930878198E+01  0.51100000000E-03 0.  1.
        -12    1    3    3    0    0 -0.87213554551E+01  0.12763945790E+02 -0.19990686140E+02  0.25270692223E+02  0.00000000000E+00 0.  1.
</event>
<event>
 7    1  0.5487071E-013  0.5052886E+02  0.7816164E-02  0.1300439E+00
        -11   -1    0    0    0    0  0.00000000000E+00  0.00000000000E+00  0.45593999997E+02  0.45594000000E+02  0.51100000000E-03 0. -1.
         11   -1    0    0    0    0 -0.00000000000E+00 -0.00000000000E+00 -0.45593999997E+02  0.45594000000E+02  0.51100000000E-03 0.  1.
    9900012    2    1    2    0    0 -0.34038679852E+02 -0.31035307443E+01  0.22020485539E+02  0.50528863112E+02  0.30000009914E+02 0.  0.
        -12    1    1    2    0    0  0.34038679852E+02  0.31035307443E+01 -0.22020485539E+02  0.40659136888E+02  0.00000000000E+00 0.  1.
         11    1    3    3    0    0 -0.17831761979E+02  0.77069796955E+01  0.65553828009E+01  0.20502251468E+02  0.51100000000E-03 0. -1.
        -11    1    3    3    0    0 -0.72730986704E+00  0.23832768512E+01  0.79694489866E+01  0.83499165028E+01  0.51100000000E-03 0.  1.
        -12    1    3    3    0    0 -0.15479608006E+02 -0.13193787291E+02  0.74956537513E+01  0.21676695141E+02  0.00000000000E+00 0.  1.
</event>
<event>
 7    1  0.5487071E-013  0.5052886E+02  0.7816164E-02  0.1300439E+00
        -11   -1    0    0    0    0  0.00000000000E+00  0.00000000000E+00  0.45593999997E+02  0.45594000000E+02  0.51100000000E-03 0. -1.
         11   -1    0    0    0    0 -0.00000000000E+00 -0.00000000000E+00 -0.45593999997E+02  0.45594000000E+02  0.51100000000E-03 0.  1.
    9900012    2    1    2    0    0  0.39058182706E+02  0.86513119587E+01  0.72649066319E+01  0.50528859536E+02  0.29999999047E+02 0.  0.
        -12    1    1    2    0    0 -0.39058182706E+02 -0.86513119587E+01 -0.72649066319E+01  0.40659140464E+02  0.00000000000E+00 0.  1.
         11    1    3    3    0    0 -0.43737190735E-01  0.28630243538E+01  0.41787475875E+01  0.50656443868E+01  0.51100000000E-03 0. -1.
        -11    1    3    3    0    0  0.12262992087E+02  0.93813046286E+01  0.88241557063E+01  0.17783576009E+02  0.51100000000E-03 0.  1.
        -12    1    3    3    0    0  0.26838927809E+02 -0.35930170237E+01 -0.57379966619E+01  0.27679639141E+02  0.00000000000E+00 0.  1.
</event>
<event>
 7    1  0.5487071E-013  0.5052889E+02  0.7816164E-02  0.1300439E+00
        -11   -1    0    0    0    0  0.00000000000E+00  0.00000000000E+00  0.45593999997E+02  0.45594000000E+02  0.51100000000E-03 0. -1.
         11   -1    0    0    0    0 -0.00000000000E+00 -0.00000000000E+00 -0.45593999997E+02  0.45594000000E+02  0.51100000000E-03 0.  1.
    9900012    2    1    2    0    0  0.82468724692E+01  0.39808045550E+02  0.68694150868E+00  0.50528889279E+02  0.30000089451E+02 0.  0.
        -12    1    1    2    0    0 -0.82468724692E+01 -0.39808045550E+02 -0.68694150868E+00  0.40659110721E+02  0.00000000000E+00 0.  1.
         11    1    3    3    0    0 -0.36169096208E+01  0.27341564410E+02  0.10675403859E+01  0.27600413445E+02  0.51100000000E-03 0. -1.
        -11    1    3    3    0    0  0.50101355594E+01  0.12582944639E+02 -0.52443316440E+01  0.14523600407E+02  0.51100000000E-03 0.  1.
        -12    1    3    3    0    0  0.68536465307E+01 -0.11646349976E+00  0.48637327667E+01  0.84048754268E+01  0.00000000000E+00 0.  1.
</event>
<event>
 7    1  0.5487071E-013  0.5052890E+02  0.7816164E-02  0.1300439E+00
        -11   -1    0    0    0    0  0.00000000000E+00  0.00000000000E+00  0.45593999997E+02  0.45594000000E+02  0.51100000000E-03 0.  1.
         11   -1    0    0    0    0 -0.00000000000E+00 -0.00000000000E+00 -0.45593999997E+02  0.45594000000E+02  0.51100000000E-03 0. -1.
    9900012    2    1    2    0    0 -0.59006863974E+01  0.36264674991E+02 -0.17413148823E+02  0.50528898877E+02  0.30000118627E+02 0.  0.
        -12    1    1    2    0    0  0.59006863974E+01 -0.36264674991E+02  0.17413148823E+02  0.40659101123E+02  0.00000000000E+00 0.  1.
         11    1    3    3    0    0 -0.11565267797E+02  0.21983574599E+02 -0.10846987211E+02  0.27105167463E+02  0.51100000000E-03 0. -1.
        -11    1    3    3    0    0 -0.45169196464E+01  0.10768227069E+02 -0.27451303217E+01  0.11995541590E+02  0.51100000000E-03 0.  1.
         12    1    3    3    0    0  0.10181501046E+02  0.35128733237E+01 -0.38210312905E+01  0.11428189825E+02  0.00000000000E+00 0. -1.
</event>
<event>
 7    1  0.5487071E-013  0.5052886E+02  0.7816164E-02  0.1300439E+00
        -11   -1    0    0    0    0  0.00000000000E+00  0.00000000000E+00  0.45593999997E+02  0.45594000000E+02  0.51100000000E-03 0.  1.
         11   -1    0    0    0    0 -0.00000000000E+00 -0.00000000000E+00 -0.45593999997E+02  0.45594000000E+02  0.51100000000E-03 0. -1.
    9900012    2    1    2    0    0  0.40428959535E+02 -0.33218990340E+01 -0.27622810132E+01  0.50528856150E+02  0.29999988752E+02 0.  0.
        -12    1    1    2    0    0 -0.40428959535E+02  0.33218990340E+01  0.27622810132E+01  0.40659143850E+02  0.00000000000E+00 0.  1.
         11    1    3    3    0    0  0.80435960623E+01 -0.73306453634E+00  0.43066697760E+01  0.91533723866E+01  0.51100000000E-03 0. -1.
        -11    1    3    3    0    0  0.18192774444E+02 -0.87552154598E+01 -0.13846775812E+02  0.24481912514E+02  0.51100000000E-03 0.  1.
         12    1    3    3    0    0  0.14192589029E+02  0.61663809621E+01  0.67778250223E+01  0.16893571249E+02  0.00000000000E+00 0. -1.
</event>
<event>
 7    1  0.5487071E-013  0.5052887E+02  0.7816164E-02  0.1300439E+00
        -11   -1    0    0    0    0  0.00000000000E+00  0.00000000000E+00  0.45593999997E+02  0.45594000000E+02  0.51100000000E-03 0. -1.
         11   -1    0    0    0    0 -0.00000000000E+00 -0.00000000000E+00 -0.45593999997E+02  0.45594000000E+02  0.51100000000E-03 0.  1.
    9900012    2    1    2    0    0  0.26672790296E+02 -0.16834438993E+02  0.25657924585E+02  0.50528866064E+02  0.30000018889E+02 0.  0.
        -12    1    1    2    0    0 -0.26672790296E+02  0.16834438993E+02 -0.25657924585E+02  0.40659133936E+02  0.00000000000E+00 0.  1.
         11    1    3    3    0    0  0.34756347533E+01 -0.17648094186E+01  0.15258420259E+02  0.15748459553E+02  0.51100000000E-03 0. -1.
        -11    1    3    3    0    0 -0.18574362293E+01 -0.90993621678E+00 -0.24983105642E+01  0.32433947032E+01  0.51100000000E-03 0.  1.
         12    1    3    3    0    0  0.25054591772E+02 -0.14159693358E+02  0.12897814890E+02  0.31537011808E+02  0.00000000000E+00 0. -1.
</event>
<event>
 7    1  0.5487071E-013  0.5052886E+02  0.7816164E-02  0.1300439E+00
        -11   -1    0    0    0    0  0.00000000000E+00  0.00000000000E+00  0.45593999997E+02  0.45594000000E+02  0.51100000000E-03 0.  1.
         11   -1    0    0    0    0 -0.00000000000E+00 -0.00000000000E+00 -0.45593999997E+02  0.45594000000E+02  0.51100000000E-03 0. -1.
    9900012    2    1    2    0    0  0.71498564366E+01  0.33894656328E+02 -0.21288432702E+02  0.50528861525E+02  0.30000005090E+02 0.  0.
        -12    1    1    2    0    0 -0.71498564366E+01 -0.33894656328E+02  0.21288432702E+02  0.40659138475E+02  0.00000000000E+00 0.  1.
         11    1    3    3    0    0  0.13197476358E+01  0.80135185672E+01 -0.55818705934E+01  0.98547193380E+01  0.51100000000E-03 0. -1.
        -11    1    3    3    0    0 -0.50689475458E+01  0.25785810590E+02 -0.85501777536E+01  0.27635263648E+02  0.51100000000E-03 0.  1.
        -12    1    3    3    0    0  0.10899056347E+02  0.95327170682E-01 -0.71563843550E+01  0.13038878539E+02  0.00000000000E+00 0.  1.
</event>
<event>
 7    1  0.5487071E-013  0.5052886E+02  0.7816164E-02  0.1300439E+00
        -11   -1    0    0    0    0  0.00000000000E+00  0.00000000000E+00  0.45593999997E+02  0.45594000000E+02  0.51100000000E-03 0.  1.
         11   -1    0    0    0    0 -0.00000000000E+00 -0.00000000000E+00 -0.45593999997E+02  0.45594000000E+02  0.51100000000E-03 0. -1.
    9900012    2    1    2    0    0  0.16038690185E+02  0.11220478910E+02 -0.35637440888E+02  0.50528856836E+02  0.29999990838E+02 0.  0.
        -12    1    1    2    0    0 -0.16038690185E+02 -0.11220478910E+02  0.35637440888E+02  0.40659143164E+02  0.00000000000E+00 0.  1.
         11    1    3    3    0    0  0.12778926521E+02  0.51034539519E+01 -0.19305496827E+02  0.23707560255E+02  0.51100000000E-03 0. -1.
        -11    1    3    3    0    0  0.73213688692E+01  0.67012701688E+01 -0.19336845361E+02  0.21735295093E+02  0.51100000000E-03 0.  1.
        -12    1    3    3    0    0 -0.40616052053E+01 -0.58424521045E+00  0.30049013000E+01  0.50860014877E+01  0.00000000000E+00 0.  1.
</event>
<event>
 7    1  0.5487071E-013  0.5052886E+02  0.7816164E-02  0.1300439E+00
        -11   -1    0    0    0    0  0.00000000000E+00  0.00000000000E+00  0.45593999997E+02  0.45594000000E+02  0.51100000000E-03 0.  1.
         11   -1    0    0    0    0 -0.00000000000E+00 -0.00000000000E+00 -0.45593999997E+02  0.45594000000E+02  0.51100000000E-03 0. -1.
    9900012    2    1    2    0    0 -0.17054861148E+01  0.40611810112E+02 -0.96831139169E+00  0.50528862891E+02  0.30000009244E+02 0.  0.
        -12    1    1    2    0    0  0.17054861148E+01 -0.40611810112E+02  0.96831139169E+00  0.40659137109E+02  0.00000000000E+00 0.  1.
         11    1    3    3    0    0  0.29030035892E+01  0.11840474674E+01  0.28195554949E+01  0.42165497381E+01  0.51100000000E-03 0. -1.
        -11    1    3    3    0    0 -0.39728123996E+00 -0.19662807199E+01  0.35355741115E+01  0.40650186730E+01  0.51100000000E-03 0.  1.
         12    1    3    3    0    0 -0.42112084640E+01  0.41394043365E+02 -0.73234409981E+01  0.42247294480E+02  0.00000000000E+00 0. -1.
</event>
<event>
 7    1  0.5487071E-013  0.5052886E+02  0.7816164E-02  0.1300439E+00
        -11   -1    0    0    0    0  0.00000000000E+00  0.00000000000E+00  0.45593999997E+02  0.45594000000E+02  0.51100000000E-03 0.  1.
         11   -1    0    0    0    0 -0.00000000000E+00 -0.00000000000E+00 -0.45593999997E+02  0.45594000000E+02  0.51100000000E-03 0. -1.
    9900012    2    1    2    0    0  0.25547079058E+02  0.14326373188E+02 -0.28200488175E+02  0.50528858956E+02  0.29999997284E+02 0.  0.
        -12    1    1    2    0    0 -0.25547079058E+02 -0.14326373188E+02  0.28200488175E+02  0.40659141044E+02  0.00000000000E+00 0.  1.
         11    1    3    3    0    0  0.19012709243E+02  0.23251224256E+01 -0.43019475401E+01  0.19631506818E+02  0.51100000000E-03 0. -1.
        -11    1    3    3    0    0  0.61149331880E+00 -0.15911876488E+01  0.95741675578E+00  0.19551085182E+01  0.51100000000E-03 0.  1.
         12    1    3    3    0    0  0.59228764962E+01  0.13592438411E+02 -0.24855957390E+02  0.28942243620E+02  0.00000000000E+00 0. -1.
</event>
<event>
 7    1  0.5487071E-013  0.5052887E+02  0.7816164E-02  0.1300439E+00
        -11   -1    0    0    0    0  0.00000000000E+00  0.00000000000E+00  0.45593999997E+02  0.45594000000E+02  0.51100000000E-03 0.  1.
         11   -1    0    0    0    0 -0.00000000000E+00 -0.00000000000E+00 -0.45593999997E+02  0.45594000000E+02  0.51100000000E-03 0. -1.
    9900012    2    1    2    0    0  0.32290401146E+02 -0.28461272503E+01 -0.24543730740E+02  0.50528866154E+02  0.30000019161E+02 0.  0.
        -12    1    1    2    0    0 -0.32290401146E+02  0.28461272503E+01  0.24543730740E+02  0.40659133846E+02  0.00000000000E+00 0.  1.
         11    1    3    3    0    0  0.22110865343E+02  0.25211367277E+00 -0.62025190378E+01  0.22965739052E+02  0.51100000000E-03 0. -1.
        -11    1    3    3    0    0 -0.35102283313E+00  0.63583474966E+01 -0.47908387420E+01  0.79689356899E+01  0.51100000000E-03 0.  1.
        -12    1    3    3    0    0  0.10530558636E+02 -0.94565884197E+01 -0.13550372960E+02  0.19594191412E+02  0.00000000000E+00 0.  1.
</event>
<event>
 7    1  0.5487071E-013  0.5052886E+02  0.7816164E-02  0.1300439E+00
        -11   -1    0    0    0    0  0.00000000000E+00  0.00000000000E+00  0.45593999997E+02  0.45594000000E+02  0.51100000000E-03 0. -1.
         11   -1    0    0    0    0 -0.00000000000E+00 -0.00000000000E+00 -0.45593999997E+02  0.45594000000E+02  0.51100000000E-03 0.  1.
    9900012    2    1    2    0    0 -0.15013028163E+02  0.28861038892E+02  0.24388830657E+02  0.50528860297E+02  0.30000001360E+02 0.  0.
        -12    1    1    2    0    0  0.15013028163E+02 -0.28861038892E+02 -0.24388830657E+02  0.40659139703E+02  0.00000000000E+00 0.  1.
         11    1    3    3    0    0 -0.11135966953E+02  0.42493106473E+01  0.16224774857E+02  0.20132305391E+02  0.51100000000E-03 0. -1.
        -11    1    3    3    0    0 -0.89666726405E+01  0.11616830917E+02  0.99942079941E+00  0.14708868787E+02  0.51100000000E-03 0.  1.
         12    1    3    3    0    0  0.50896114310E+01  0.12994897328E+02  0.71646350008E+01  0.15687686119E+02  0.00000000000E+00 0. -1.
</event>
<event>
 7    1  0.5487071E-013  0.5052886E+02  0.7816164E-02  0.1300439E+00
        -11   -1    0    0    0    0  0.00000000000E+00  0.00000000000E+00  0.45593999997E+02  0.45594000000E+02  0.51100000000E-03 0.  1.
         11   -1    0    0    0    0 -0.00000000000E+00 -0.00000000000E+00 -0.45593999997E+02  0.45594000000E+02  0.51100000000E-03 0. -1.
    9900012    2    1    2    0    0  0.20493171006E+02 -0.14942056234E+02 -0.31779403305E+02  0.50528861091E+02  0.30000003771E+02 0.  0.
        -12    1    1    2    0    0 -0.20493171006E+02  0.14942056234E+02  0.31779403305E+02  0.40659138909E+02  0.00000000000E+00 0.  1.
         11    1    3    3    0    0  0.79914002041E+01 -0.13325565468E+02 -0.18227422017E+02  0.23951452689E+02  0.51100000000E-03 0. -1.
        -11    1    3    3    0    0  0.63609632603E+01  0.36291136447E+01 -0.16442342067E+02  0.17999525892E+02  0.51100000000E-03 0.  1.
        -12    1    3    3    0    0  0.61408075421E+01 -0.52456044109E+01  0.28903607792E+01  0.85778825090E+01  0.00000000000E+00 0.  1.
</event>
<event>
 7    1  0.5487071E-013  0.5052886E+02  0.7816164E-02  0.1300439E+00
        -11   -1    0    0    0    0  0.00000000000E+00  0.00000000000E+00  0.45593999997E+02  0.45594000000E+02  0.51100000000E-03 0.  1.
         11   -1    0    0    0    0 -0.00000000000E+00 -0.00000000000E+00 -0.45593999997E+02  0.45594000000E+02  0.51100000000E-03 0. -1.
    9900012    2    1    2    0    0  0.12348895547E+02  0.14457376396E+02 -0.35939601365E+02  0.50528857120E+02  0.29999991701E+02 0.  0.
        -12    1    1    2    0    0 -0.12348895547E+02 -0.14457376396E+02  0.35939601365E+02  0.40659142880E+02  0.00000000000E+00 0.  1.
         11    1    3    3    0    0  0.71994568834E+01 -0.12987956552E+01 -0.52339679965E+01  0.89951915388E+01  0.51100000000E-03 0. -1.
        -11    1    3    3    0    0  0.93568451840E+00 -0.46049905470E+01 -0.31346226521E+00  0.47095331307E+01  0.51100000000E-03 0.  1.
         12    1    3    3    0    0  0.42137541452E+01  0.20361162599E+02 -0.30392171103E+02  0.36824132450E+02  0.00000000000E+00 0. -1.
</event>
<event>
 7    1  0.5487071E-013  0.5052886E+02  0.7816164E-02  0.1300439E+00
        -11   -1    0    0    0    0  0.00000000000E+00  0.00000000000E+00  0.45593999997E+02  0.45594000000E+02  0.51100000000E-03 0.  1.
         11   -1    0    0    0    0 -0.00000000000E+00 -0.00000000000E+00 -0.45593999997E+02  0.45594000000E+02  0.51100000000E-03 0. -1.
    9900012    2    1    2    0    0  0.20246109151E+02 -0.24403052627E+02 -0.25450960633E+02  0.50528864367E+02  0.30000013730E+02 0.  0.
        -12    1    1    2    0    0 -0.20246109151E+02  0.24403052627E+02  0.25450960633E+02  0.40659135633E+02  0.00000000000E+00 0.  1.
         11    1    3    3    0    0  0.10097835558E+02 -0.14794498086E+02  0.12233220638E+01  0.17953828942E+02  0.51100000000E-03 0. -1.
        -11    1    3    3    0    0  0.43977318572E+01  0.76935326680E+00 -0.14405908915E+01  0.46911887955E+01  0.51100000000E-03 0.  1.
         12    1    3    3    0    0  0.57505417361E+01 -0.10377907808E+02 -0.25233691805E+02  0.27883846629E+02  0.00000000000E+00 0. -1.
</event>
<event>
 7    1  0.5487071E-013  0.5052886E+02  0.7816164E-02  0.1300439E+00
        -11   -1    0    0    0    0  0.00000000000E+00  0.00000000000E+00  0.45593999997E+02  0.45594000000E+02  0.51100000000E-03 0.  1.
         11   -1    0    0    0    0 -0.00000000000E+00 -0.00000000000E+00 -0.45593999997E+02  0.45594000000E+02  0.51100000000E-03 0. -1.
    9900012    2    1    2    0    0  0.33562781386E+01  0.16334613879E+02 -0.37082087520E+02  0.50528862916E+02  0.30000009321E+02 0.  0.
        -12    1    1    2    0    0 -0.33562781386E+01 -0.16334613879E+02  0.37082087520E+02  0.40659137084E+02  0.00000000000E+00 0.  1.
         11    1    3    3    0    0  0.72452101409E+01  0.25190986064E+01 -0.97990479863E+01  0.12444286620E+02  0.51100000000E-03 0. -1.
        -11    1    3    3    0    0  0.50280170908E+01  0.13153437068E+02 -0.25255653462E+02  0.28916118249E+02  0.51100000000E-03 0.  1.
        -12    1    3    3    0    0 -0.89169490931E+01  0.66207820548E+00 -0.20273860717E+01  0.91684580472E+01  0.00000000000E+00 0.  1.
</event>
<event>
 7    1  0.5487071E-013  0.5052886E+02  0.7816164E-02  0.1300439E+00
        -11   -1    0    0    0    0  0.00000000000E+00  0.00000000000E+00  0.45593999997E+02  0.45594000000E+02  0.51100000000E-03 0.  1.
         11   -1    0    0    0    0 -0.00000000000E+00 -0.00000000000E+00 -0.45593999997E+02  0.45594000000E+02  0.51100000000E-03 0. -1.
    9900012    2    1    2    0    0 -0.27454687810E+02 -0.24826102619E+02 -0.16824687535E+02  0.50528863700E+02  0.30000011704E+02 0.  0.
        -12    1    1    2    0    0  0.27454687810E+02  0.24826102619E+02  0.16824687535E+02  0.40659136300E+02  0.00000000000E+00 0.  1.
         11    1    3    3    0    0 -0.77095722811E+01 -0.19776515257E+02 -0.71545494851E+01  0.22399456223E+02  0.51100000000E-03 0. -1.
        -11    1    3    3    0    0 -0.20142385234E+02 -0.71915819059E+01 -0.36108415865E+01  0.21690382903E+02  0.51100000000E-03 0.  1.
         12    1    3    3    0    0  0.39726970542E+00  0.21419945446E+01 -0.60592964630E+01  0.64390245748E+01  0.00000000000E+00 0. -1.
</event>
<event>
 7    1  0.5487071E-013  0.5052886E+02  0.7816164E-02  0.1300439E+00
        -11   -1    0    0    0    0  0.00000000000E+00  0.00000000000E+00  0.45593999997E+02  0.45594000000E+02  0.51100000000E-03 0.  1.
         11   -1    0    0    0    0 -0.00000000000E+00 -0.00000000000E+00 -0.45593999997E+02  0.45594000000E+02  0.51100000000E-03 0. -1.
    9900012    2    1    2    0    0 -0.14256091753E+02 -0.25725173255E+02 -0.28073923184E+02  0.50528857682E+02  0.29999993411E+02 0.  0.
        -12    1    1    2    0    0  0.14256091753E+02  0.25725173255E+02  0.28073923184E+02  0.40659142318E+02  0.00000000000E+00 0.  1.
         11    1    3    3    0    0 -0.11264640649E+02 -0.24041862461E+02 -0.16968875433E+02  0.31509459107E+02  0.51100000000E-03 0. -1.
        -11    1    3    3    0    0 -0.28195569636E+01 -0.57487569694E+01  0.78634437902E+00  0.64510809875E+01  0.51100000000E-03 0.  1.
         12    1    3    3    0    0 -0.17189414095E+00  0.40654461747E+01 -0.11891392130E+02  0.12568317588E+02  0.00000000000E+00 0. -1.
</event>
<event>
 7    1  0.5487071E-013  0.5052885E+02  0.7816164E-02  0.1300439E+00
        -11   -1    0    0    0    0  0.00000000000E+00  0.00000000000E+00  0.45593999997E+02  0.45594000000E+02  0.51100000000E-03 0.  1.
         11   -1    0    0    0    0 -0.00000000000E+00 -0.00000000000E+00 -0.45593999997E+02  0.45594000000E+02  0.51100000000E-03 0. -1.
    9900012    2    1    2    0    0 -0.64410210815E+01  0.50419561925E+01 -0.39827857531E+02  0.50528852071E+02  0.29999976355E+02 0.  0.
        -12    1    1    2    0    0  0.64410210815E+01 -0.50419561925E+01  0.39827857531E+02  0.40659147929E+02  0.00000000000E+00 0.  1.
         11    1    3    3    0    0 -0.10389935997E+01 -0.34941155419E+01 -0.11950888726E+01  0.38362206395E+01  0.51100000000E-03 0. -1.
        -11    1    3    3    0    0  0.30114019380E+01 -0.90378484966E+00  0.22712603022E+01  0.38786585707E+01  0.51100000000E-03 0.  1.
         12    1    3    3    0    0 -0.84134294198E+01  0.94398565840E+01 -0.40904028960E+02  0.42813972861E+02  0.00000000000E+00 0. -1.
</event>
<event>
 7    1  0.5487071E-013  0.5052883E+02  0.7816164E-02  0.1300439E+00
        -11   -1    0    0    0    0  0.00000000000E+00  0.00000000000E+00  0.45593999997E+02  0.45594000000E+02  0.51100000000E-03 0.  1.
         11   -1    0    0    0    0 -0.00000000000E+00 -0.00000000000E+00 -0.45593999997E+02  0.45594000000E+02  0.51100000000E-03 0. -1.
    9900012    2    1    2    0    0  0.21808362331E+02 -0.11685977189E+02 -0.32264551646E+02  0.50528831006E+02  0.29999912324E+02 0.  0.
        -12    1    1    2    0    0 -0.21808362331E+02  0.11685977189E+02  0.32264551646E+02  0.40659168994E+02  0.00000000000E+00 0.  1.
         11    1    3    3    0    0 -0.18516932606E+01  0.95872120871E+00  0.22105848596E+01  0.30388484612E+01  0.51100000000E-03 0. -1.
        -11    1    3    3    0    0  0.14626552375E+02 -0.13390991424E+02 -0.11813403142E+02  0.23082703042E+02  0.51100000000E-03 0.  1.
         12    1    3    3    0    0  0.90335032171E+01  0.74629302658E+00 -0.22661733364E+02  0.24407279502E+02  0.00000000000E+00 0. -1.
</event>
<event>
 7    1  0.5487071E-013  0.5052887E+02  0.7816164E-02  0.1300439E+00
        -11   -1    0    0    0    0  0.00000000000E+00  0.00000000000E+00  0.45593999997E+02  0.45594000000E+02  0.51100000000E-03 0.  1.
         11   -1    0    0    0    0 -0.00000000000E+00 -0.00000000000E+00 -0.45593999997E+02  0.45594000000E+02  0.51100000000E-03 0. -1.
    9900012    2    1    2    0    0  0.22186533660E+02  0.28411314479E+02 -0.18807450232E+02  0.50528865104E+02  0.30000015971E+02 0.  0.
        -12    1    1    2    0    0 -0.22186533660E+02 -0.28411314479E+02  0.18807450232E+02  0.40659134896E+02  0.00000000000E+00 0.  1.
         11    1    3    3    0    0 -0.19101197138E+01  0.64781880390E+01 -0.64466591672E+01  0.93367495559E+01  0.51100000000E-03 0. -1.
        -11    1    3    3    0    0 -0.27946531701E+01 -0.96286785127E+00  0.14217356346E+01  0.32800203225E+01  0.51100000000E-03 0.  1.
         12    1    3    3    0    0  0.26891306544E+02  0.22895994291E+02 -0.13782526699E+02  0.37912095226E+02  0.00000000000E+00 0. -1.
</event>
<event>
 7    1  0.5487071E-013  0.5052886E+02  0.7816164E-02  0.1300439E+00
        -11   -1    0    0    0    0  0.00000000000E+00  0.00000000000E+00  0.45593999997E+02  0.45594000000E+02  0.51100000000E-03 0.  1.
         11   -1    0    0    0    0 -0.00000000000E+00 -0.00000000000E+00 -0.45593999997E+02  0.45594000000E+02  0.51100000000E-03 0. -1.
    9900012    2    1    2    0    0  0.28419970507E+02 -0.28028494290E+02 -0.77378422467E+01  0.50528863040E+02  0.30000009695E+02 0.  0.
        -12    1    1    2    0    0 -0.28419970507E+02  0.28028494290E+02  0.77378422467E+01  0.40659136960E+02  0.00000000000E+00 0.  1.
         11    1    3    3    0    0  0.33840782450E+01 -0.96782112431E+01  0.66024808528E+01  0.12194773967E+02  0.51100000000E-03 0. -1.
        -11    1    3    3    0    0  0.30080329924E+01 -0.10606564091E+01  0.38059745468E+01  0.49657524116E+01  0.51100000000E-03 0.  1.
         12    1    3    3    0    0  0.22027859269E+02 -0.17289626637E+02 -0.18146297646E+02  0.33368336661E+02  0.00000000000E+00 0. -1.
</event>
<event>
 7    1  0.5487071E-013  0.5052886E+02  0.7816164E-02  0.1300439E+00
        -11   -1    0    0    0    0  0.00000000000E+00  0.00000000000E+00  0.45593999997E+02  0.45594000000E+02  0.51100000000E-03 0. -1.
         11   -1    0    0    0    0 -0.00000000000E+00 -0.00000000000E+00 -0.45593999997E+02  0.45594000000E+02  0.51100000000E-03 0.  1.
    9900012    2    1    2    0    0  0.33239802304E+02  0.37490320217E+01  0.23113327456E+02  0.50528860751E+02  0.30000002740E+02 0.  0.
        -12    1    1    2    0    0 -0.33239802304E+02 -0.37490320217E+01 -0.23113327456E+02  0.40659139249E+02  0.00000000000E+00 0.  1.
         11    1    3    3    0    0 -0.16550357206E+01  0.78986106436E+01  0.42395119780E+01  0.91159560885E+01  0.51100000000E-03 0. -1.
        -11    1    3    3    0    0  0.28752920325E+01  0.28181794045E+01  0.13105743979E+01  0.42340341214E+01  0.51100000000E-03 0.  1.
        -12    1    3    3    0    0  0.32019545993E+02 -0.69677580264E+01  0.17563241080E+02  0.37178870541E+02  0.00000000000E+00 0.  1.
</event>
<event>
 7    1  0.5487071E-013  0.5052887E+02  0.7816164E-02  0.1300439E+00
        -11   -1    0    0    0    0  0.00000000000E+00  0.00000000000E+00  0.45593999997E+02  0.45594000000E+02  0.51100000000E-03 0. -1.
         11   -1    0    0    0    0 -0.00000000000E+00 -0.00000000000E+00 -0.45593999997E+02  0.45594000000E+02  0.51100000000E-03 0.  1.
    9900012    2    1    2    0    0 -0.10180951501E+02  0.37809014413E+02  0.10954051547E+02  0.50528873231E+02  0.30000040672E+02 0.  0.
        -12    1    1    2    0    0  0.10180951501E+02 -0.37809014413E+02 -0.10954051547E+02  0.40659126769E+02  0.00000000000E+00 0.  1.
         11    1    3    3    0    0  0.45664783260E+00  0.14077154112E+00  0.16310697719E+01  0.16996272332E+01  0.51100000000E-03 0. -1.
        -11    1    3    3    0    0 -0.14439047106E+02  0.13635768904E+02  0.13673722930E+02  0.24112050389E+02  0.51100000000E-03 0.  1.
         12    1    3    3    0    0  0.38014477725E+01  0.24032473967E+02 -0.43507411543E+01  0.24717195609E+02  0.00000000000E+00 0. -1.
</event>
<event>
 7    1  0.5487071E-013  0.5052886E+02  0.7816164E-02  0.1300439E+00
        -11   -1    0    0    0    0  0.00000000000E+00  0.00000000000E+00  0.45593999997E+02  0.45594000000E+02  0.51100000000E-03 0.  1.
         11   -1    0    0    0    0 -0.00000000000E+00 -0.00000000000E+00 -0.45593999997E+02  0.45594000000E+02  0.51100000000E-03 0. -1.
    9900012    2    1    2    0    0 -0.24741886500E+02 -0.31006982325E+02  0.89202953594E+01  0.50528861178E+02  0.30000004035E+02 0.  0.
        -12    1    1    2    0    0  0.24741886500E+02  0.31006982325E+02 -0.89202953594E+01  0.40659138822E+02  0.00000000000E+00 0.  1.
         11    1    3    3    0    0 -0.10734793552E+01 -0.78823630015E+01  0.12099190876E+02  0.14480138968E+02  0.51100000000E-03 0. -1.
        -11    1    3    3    0    0 -0.81507194821E+01 -0.15430402315E+02  0.29046439192E+01  0.17690915755E+02  0.51100000000E-03 0.  1.
        -12    1    3    3    0    0 -0.15517687663E+02 -0.76942170085E+01 -0.60835394359E+01  0.18357806455E+02  0.00000000000E+00 0.  1.
</event>
<event>
 7    1  0.5487071E-013  0.5052886E+02  0.7816164E-02  0.1300439E+00
        -11   -1    0    0    0    0  0.00000000000E+00  0.00000000000E+00  0.45593999997E+02  0.45594000000E+02  0.51100000000E-03 0.  1.
         11   -1    0    0    0    0 -0.00000000000E+00 -0.00000000000E+00 -0.45593999997E+02  0.45594000000E+02  0.51100000000E-03 0. -1.
    9900012    2    1    2    0    0  0.74231948459E+01 -0.11733884997E+02 -0.38214885158E+02  0.50528864169E+02  0.30000013128E+02 0.  0.
        -12    1    1    2    0    0 -0.74231948459E+01  0.11733884997E+02  0.38214885158E+02  0.40659135831E+02  0.00000000000E+00 0.  1.
         11    1    3    3    0    0  0.70376105313E+00  0.37537156237E+01 -0.45129582877E+01  0.59120599939E+01  0.51100000000E-03 0. -1.
        -11    1    3    3    0    0 -0.30453916851E+01 -0.16633735289E+01  0.27497342369E+01  0.44274440309E+01  0.51100000000E-03 0.  1.
         12    1    3    3    0    0  0.97648254779E+01 -0.13824227092E+02 -0.36451661108E+02  0.40189360144E+02  0.00000000000E+00 0. -1.
</event>
<event>
 7    1  0.5487071E-013  0.5052886E+02  0.7816164E-02  0.1300439E+00
        -11   -1    0    0    0    0  0.00000000000E+00  0.00000000000E+00  0.45593999997E+02  0.45594000000E+02  0.51100000000E-03 0. -1.
         11   -1    0    0    0    0 -0.00000000000E+00 -0.00000000000E+00 -0.45593999997E+02  0.45594000000E+02  0.51100000000E-03 0.  1.
    9900012    2    1    2    0    0 -0.38973496468E+02  0.12204617878E+00  0.11585224081E+02  0.50528859094E+02  0.29999997702E+02 0.  0.
        -12    1    1    2    0    0  0.38973496468E+02 -0.12204617878E+00 -0.11585224081E+02  0.40659140906E+02  0.00000000000E+00 0.  1.
         11    1    3    3    0    0 -0.22885954325E+02  0.72936980223E+01  0.27818769294E+00  0.24021705286E+02  0.51100000000E-03 0.  1.
        -11    1    3    3    0    0 -0.15588906134E+02 -0.14765120562E+01  0.13205098444E+02  0.20483376369E+02  0.51100000000E-03 0. -1.
        -12    1    3    3    0    0 -0.49863600978E+00 -0.56951397873E+01 -0.18980620559E+01  0.60237774391E+01  0.00000000000E+00 0.  1.
</event>
<event>
 7    1  0.5487071E-013  0.5052886E+02  0.7816164E-02  0.1300439E+00
        -11   -1    0    0    0    0  0.00000000000E+00  0.00000000000E+00  0.45593999997E+02  0.45594000000E+02  0.51100000000E-03 0. -1.
         11   -1    0    0    0    0 -0.00000000000E+00 -0.00000000000E+00 -0.45593999997E+02  0.45594000000E+02  0.51100000000E-03 0.  1.
    9900012    2    1    2    0    0  0.21963739217E+02 -0.22363019057E+02  0.25897005220E+02  0.50528863990E+02  0.30000012584E+02 0.  0.
        -12    1    1    2    0    0 -0.21963739217E+02  0.22363019057E+02 -0.25897005220E+02  0.40659136010E+02  0.00000000000E+00 0.  1.
         11    1    3    3    0    0 -0.64967150595E+00  0.13719502051E+01  0.55388740333E+01  0.57431216467E+01  0.51100000000E-03 0. -1.
        -11    1    3    3    0    0  0.18406788602E+02 -0.34384177978E+01  0.63680742070E+01  0.19778396117E+02  0.51100000000E-03 0.  1.
         12    1    3    3    0    0  0.42066221208E+01 -0.20296551464E+02  0.13990056980E+02  0.25007346227E+02  0.00000000000E+00 0. -1.
</event>
<event>
 7    1  0.5487071E-013  0.5052888E+02  0.7816164E-02  0.1300439E+00
        -11   -1    0    0    0    0  0.00000000000E+00  0.00000000000E+00  0.45593999997E+02  0.45594000000E+02  0.51100000000E-03 0.  1.
         11   -1    0    0    0    0 -0.00000000000E+00 -0.00000000000E+00 -0.45593999997E+02  0.45594000000E+02  0.51100000000E-03 0. -1.
    9900012    2    1    2    0    0 -0.35627507484E+01 -0.31163572422E+02  0.25870877757E+02  0.50528883496E+02  0.30000071873E+02 0.  0.
        -12    1    1    2    0    0  0.35627507484E+01  0.31163572422E+02 -0.25870877757E+02  0.40659116504E+02  0.00000000000E+00 0.  1.
         11    1    3    3    0    0 -0.60801412730E+01 -0.95640723240E+01 -0.29410367969E+01  0.11708513784E+02  0.51100000000E-03 0. -1.
        -11    1    3    3    0    0  0.88057912795E+00 -0.10221864311E+02  0.31998861008E+01  0.10747148502E+02  0.51100000000E-03 0.  1.
        -12    1    3    3    0    0  0.16368113966E+01 -0.11377635787E+02  0.25612028453E+02  0.28073221210E+02  0.00000000000E+00 0.  1.
</event>
<event>
 7    1  0.5487071E-013  0.5052886E+02  0.7816164E-02  0.1300439E+00
        -11   -1    0    0    0    0  0.00000000000E+00  0.00000000000E+00  0.45593999997E+02  0.45594000000E+02  0.51100000000E-03 0. -1.
         11   -1    0    0    0    0 -0.00000000000E+00 -0.00000000000E+00 -0.45593999997E+02  0.45594000000E+02  0.51100000000E-03 0.  1.
    9900012    2    1    2    0    0  0.16321747847E+02  0.36606266524E+02 -0.68372232178E+01  0.50528858065E+02  0.29999994574E+02 0.  0.
        -12    1    1    2    0    0 -0.16321747847E+02 -0.36606266524E+02  0.68372232178E+01  0.40659141935E+02  0.00000000000E+00 0.  1.
         11    1    3    3    0    0  0.75726556209E+01  0.17930031784E+02 -0.48519426475E+01  0.20059224827E+02  0.51100000000E-03 0. -1.
        -11    1    3    3    0    0  0.14661848372E+02  0.11895888033E+02 -0.70400043184E+01  0.20150523835E+02  0.51100000000E-03 0.  1.
        -12    1    3    3    0    0 -0.59127561458E+01  0.67803467060E+01  0.50547237480E+01  0.10319109403E+02  0.00000000000E+00 0.  1.
</event>
<event>
 7    1  0.5487071E-013  0.5052886E+02  0.7816164E-02  0.1300439E+00
        -11   -1    0    0    0    0  0.00000000000E+00  0.00000000000E+00  0.45593999997E+02  0.45594000000E+02  0.51100000000E-03 0. -1.
         11   -1    0    0    0    0 -0.00000000000E+00 -0.00000000000E+00 -0.45593999997E+02  0.45594000000E+02  0.51100000000E-03 0.  1.
    9900012    2    1    2    0    0 -0.17259211790E+02 -0.12379202219E+02  0.34670459870E+02  0.50528858017E+02  0.29999994428E+02 0.  0.
        -12    1    1    2    0    0  0.17259211790E+02  0.12379202219E+02 -0.34670459870E+02  0.40659141983E+02  0.00000000000E+00 0.  1.
         11    1    3    3    0    0 -0.13407538447E+02 -0.45576544199E+01  0.17333881863E+02  0.22382979286E+02  0.51100000000E-03 0. -1.
        -11    1    3    3    0    0 -0.11119575894E+02 -0.86069747250E+01  0.76415829242E+01  0.16003711189E+02  0.51100000000E-03 0.  1.
         12    1    3    3    0    0  0.72679025508E+01  0.78542692545E+00  0.96949950831E+01  0.12142167541E+02  0.00000000000E+00 0. -1.
</event>
<event>
 7    1  0.5487071E-013  0.5052891E+02  0.7816164E-02  0.1300439E+00
        -11   -1    0    0    0    0  0.00000000000E+00  0.00000000000E+00  0.45593999997E+02  0.45594000000E+02  0.51100000000E-03 0. -1.
         11   -1    0    0    0    0 -0.00000000000E+00 -0.00000000000E+00 -0.45593999997E+02  0.45594000000E+02  0.51100000000E-03 0.  1.
    9900012    2    1    2    0    0  0.40698583476E+01 -0.34763982516E+00  0.40453395530E+02  0.50528907409E+02  0.30000144559E+02 0.  0.
        -12    1    1    2    0    0 -0.40698583476E+01  0.34763982516E+00 -0.40453395530E+02  0.40659092591E+02  0.00000000000E+00 0.  1.
         11    1    3    3    0    0 -0.47630081794E+01  0.72006173827E+00  0.12444521535E+02  0.13344319103E+02  0.51100000000E-03 0. -1.
        -11    1    3    3    0    0 -0.21461814786E+01 -0.61471918893E+01  0.23317706297E+02  0.24209698269E+02  0.51100000000E-03 0.  1.
         12    1    3    3    0    0  0.10979048006E+02  0.50794903258E+01  0.46911676976E+01  0.12974890036E+02  0.00000000000E+00 0. -1.
</event>
<event>
 7    1  0.5487071E-013  0.5052886E+02  0.7816164E-02  0.1300439E+00
        -11   -1    0    0    0    0  0.00000000000E+00  0.00000000000E+00  0.45593999997E+02  0.45594000000E+02  0.51100000000E-03 0.  1.
         11   -1    0    0    0    0 -0.00000000000E+00 -0.00000000000E+00 -0.45593999997E+02  0.45594000000E+02  0.51100000000E-03 0. -1.
    9900012    2    1    2    0    0 -0.62704613961E+01  0.21828284092E+02 -0.33724963726E+02  0.50528857721E+02  0.29999993530E+02 0.  0.
        -12    1    1    2    0    0  0.62704613961E+01 -0.21828284092E+02  0.33724963726E+02  0.40659142279E+02  0.00000000000E+00 0.  1.
         11    1    3    3    0    0 -0.68401205430E+01  0.17036097945E+01 -0.19483830778E+01  0.73133940311E+01  0.51100000000E-03 0. -1.
        -11    1    3    3    0    0  0.22976720117E+01  0.18040533518E+01  0.28003168964E+01  0.40466875530E+01  0.51100000000E-03 0.  1.
         12    1    3    3    0    0 -0.17280128648E+01  0.18320620945E+02 -0.34576897545E+02  0.39168776137E+02  0.00000000000E+00 0. -1.
</event>
<event>
 7    1  0.5487071E-013  0.5052893E+02  0.7816164E-02  0.1300439E+00
        -11   -1    0    0    0    0  0.00000000000E+00  0.00000000000E+00  0.45593999997E+02  0.45594000000E+02  0.51100000000E-03 0.  1.
         11   -1    0    0    0    0 -0.00000000000E+00 -0.00000000000E+00 -0.45593999997E+02  0.45594000000E+02  0.51100000000E-03 0. -1.
    9900012    2    1    2    0    0 -0.17933759988E+02  0.67646859636E+01 -0.35857769616E+02  0.50528925179E+02  0.30000198573E+02 0.  0.
        -12    1    1    2    0    0  0.17933759988E+02 -0.67646859636E+01  0.35857769616E+02  0.40659074821E+02  0.00000000000E+00 0.  1.
         11    1    3    3    0    0 -0.31305396860E+01  0.51352258679E+01 -0.26271943134E+01  0.65630003551E+01  0.51100000000E-03 0. -1.
        -11    1    3    3    0    0  0.38815554982E+01 -0.56046882069E+01 -0.24616760265E+01  0.72483689271E+01  0.51100000000E-03 0.  1.
         12    1    3    3    0    0 -0.18684775801E+02  0.72341483026E+01 -0.30768899276E+02  0.36717555897E+02  0.00000000000E+00 0. -1.
</event>
<event>
 7    1  0.5487071E-013  0.5052885E+02  0.7816164E-02  0.1300439E+00
        -11   -1    0    0    0    0  0.00000000000E+00  0.00000000000E+00  0.45593999997E+02  0.45594000000E+02  0.51100000000E-03 0.  1.
         11   -1    0    0    0    0 -0.00000000000E+00 -0.00000000000E+00 -0.45593999997E+02  0.45594000000E+02  0.51100000000E-03 0. -1.
    9900012    2    1    2    0    0  0.28036383625E+02  0.23693200203E+02 -0.17485984532E+02  0.50528853456E+02  0.29999980566E+02 0.  0.
        -12    1    1    2    0    0 -0.28036383625E+02 -0.23693200203E+02  0.17485984532E+02  0.40659146544E+02  0.00000000000E+00 0.  1.
         11    1    3    3    0    0  0.70393353031E+01  0.88519610478E+00 -0.47163319630E+01  0.85193662382E+01  0.51100000000E-03 0. -1.
        -11    1    3    3    0    0 -0.31286564000E+00 -0.42485403390E+01  0.17858502980E+01  0.46192252023E+01  0.51100000000E-03 0.  1.
         12    1    3    3    0    0  0.21309913962E+02  0.27056544437E+02 -0.14555502867E+02  0.37390262016E+02  0.00000000000E+00 0. -1.
</event>
<event>
 7    1  0.5487071E-013  0.5052886E+02  0.7816164E-02  0.1300439E+00
        -11   -1    0    0    0    0  0.00000000000E+00  0.00000000000E+00  0.45593999997E+02  0.45594000000E+02  0.51100000000E-03 0.  1.
         11   -1    0    0    0    0 -0.00000000000E+00 -0.00000000000E+00 -0.45593999997E+02  0.45594000000E+02  0.51100000000E-03 0. -1.
    9900012    2    1    2    0    0  0.19863701800E+02  0.28713553199E+01 -0.35360347102E+02  0.50528862309E+02  0.30000007476E+02 0.  0.
        -12    1    1    2    0    0 -0.19863701800E+02 -0.28713553199E+01  0.35360347102E+02  0.40659137691E+02  0.00000000000E+00 0.  1.
         11    1    3    3    0    0  0.13427792917E+02  0.73727263984E+01 -0.53900007299E+01  0.16239298793E+02  0.51100000000E-03 0. -1.
        -11    1    3    3    0    0  0.66667701287E+01  0.20088329433E+01 -0.52363351796E+01  0.87120858649E+01  0.51100000000E-03 0.  1.
         12    1    3    3    0    0 -0.23086124585E+00 -0.65102040219E+01 -0.24734011193E+02  0.25577477651E+02  0.00000000000E+00 0. -1.
</event>
<event>
 7    1  0.5487071E-013  0.5052888E+02  0.7816164E-02  0.1300439E+00
        -11   -1    0    0    0    0  0.00000000000E+00  0.00000000000E+00  0.45593999997E+02  0.45594000000E+02  0.51100000000E-03 0.  1.
         11   -1    0    0    0    0 -0.00000000000E+00 -0.00000000000E+00 -0.45593999997E+02  0.45594000000E+02  0.51100000000E-03 0. -1.
    9900012    2    1    2    0    0 -0.14915188285E+02  0.27858159439E+02 -0.25585629254E+02  0.50528876629E+02  0.30000051003E+02 0.  0.
        -12    1    1    2    0    0  0.14915188285E+02 -0.27858159439E+02  0.25585629254E+02  0.40659123371E+02  0.00000000000E+00 0.  1.
         11    1    3    3    0    0 -0.88978653160E+01  0.13108957416E+02 -0.10714740239E+02  0.19126485050E+02  0.51100000000E-03 0. -1.
        -11    1    3    3    0    0 -0.11925992894E+02  0.95856927543E+00 -0.31736538590E+01  0.12378216376E+02  0.51100000000E-03 0.  1.
        -12    1    3    3    0    0  0.59086699250E+01  0.13790632748E+02 -0.11697235156E+02  0.19024175204E+02  0.00000000000E+00 0.  1.
</event>
<event>
 7    1  0.5487071E-013  0.5052887E+02  0.7816164E-02  0.1300439E+00
        -11   -1    0    0    0    0  0.00000000000E+00  0.00000000000E+00  0.45593999997E+02  0.45594000000E+02  0.51100000000E-03 0.  1.
         11   -1    0    0    0    0 -0.00000000000E+00 -0.00000000000E+00 -0.45593999997E+02  0.45594000000E+02  0.51100000000E-03 0. -1.
    9900012    2    1    2    0    0  0.40044305997E+02  0.44976749707E+01  0.54212246421E+01  0.50528865731E+02  0.30000017875E+02 0.  0.
        -12    1    1    2    0    0 -0.40044305997E+02 -0.44976749707E+01 -0.54212246421E+01  0.40659134269E+02  0.00000000000E+00 0.  1.
         11    1    3    3    0    0 -0.23218865460E+01 -0.36384178570E+01  0.40798014341E+00  0.43353996002E+01  0.51100000000E-03 0.  1.
        -11    1    3    3    0    0  0.41932654408E+02  0.44960715063E+01  0.38537604717E+01  0.42348714676E+02  0.51100000000E-03 0. -1.
         12    1    3    3    0    0  0.43353813464E+00  0.36400213213E+01  0.11594840270E+01  0.38447514540E+01  0.00000000000E+00 0. -1.
</event>
<event>
 7    1  0.5487071E-013  0.5052887E+02  0.7816164E-02  0.1300439E+00
        -11   -1    0    0    0    0  0.00000000000E+00  0.00000000000E+00  0.45593999997E+02  0.45594000000E+02  0.51100000000E-03 0.  1.
         11   -1    0    0    0    0 -0.00000000000E+00 -0.00000000000E+00 -0.45593999997E+02  0.45594000000E+02  0.51100000000E-03 0. -1.
    9900012    2    1    2    0    0 -0.25911405605E+02  0.17698599931E+02 -0.25855816311E+02  0.50528872893E+02  0.30000039647E+02 0.  0.
        -12    1    1    2    0    0  0.25911405605E+02 -0.17698599931E+02  0.25855816311E+02  0.40659127107E+02  0.00000000000E+00 0.  1.
         11    1    3    3    0    0 -0.23551001418E+01  0.11425257255E+02 -0.83873095351E+01  0.14367670706E+02  0.51100000000E-03 0. -1.
        -11    1    3    3    0    0  0.12935133031E+01 -0.43304965325E+01 -0.14239996707E+01  0.47385812441E+01  0.51100000000E-03 0.  1.
         12    1    3    3    0    0 -0.24849818767E+02  0.10603839208E+02 -0.16044507105E+02  0.31422620943E+02  0.00000000000E+00 0. -1.
</event>
<event>
 7    1  0.5487071E-013  0.5052883E+02  0.7816164E-02  0.1300439E+00
        -11   -1    0    0    0    0  0.00000000000E+00  0.00000000000E+00  0.45593999997E+02  0.45594000000E+02  0.51100000000E-03 0.  1.
         11   -1    0    0    0    0 -0.00000000000E+00 -0.00000000000E+00 -0.45593999997E+02  0.45594000000E+02  0.51100000000E-03 0. -1.
    9900012    2    1    2    0    0  0.30182065487E+02 -0.11185381716E+02 -0.24841457535E+02  0.50528833092E+02  0.29999918667E+02 0.  0.
        -12    1    1    2    0    0 -0.30182065487E+02  0.11185381716E+02  0.24841457535E+02  0.40659166908E+02  0.00000000000E+00 0.  1.
         11    1    3    3    0    0  0.17713648413E+01  0.46745422556E+01 -0.47386837206E+00  0.50213175757E+01  0.51100000000E-03 0. -1.
        -11    1    3    3    0    0  0.23627694534E+02 -0.26707545287E+01 -0.19179899872E+02  0.30549458884E+02  0.51100000000E-03 0.  1.
        -12    1    3    3    0    0  0.47830061119E+01 -0.13189169443E+02 -0.51876892905E+01  0.14958056633E+02  0.00000000000E+00 0.  1.
</event>
<event>
 7    1  0.5487071E-013  0.5052887E+02  0.7816164E-02  0.1300439E+00
        -11   -1    0    0    0    0  0.00000000000E+00  0.00000000000E+00  0.45593999997E+02  0.45594000000E+02  0.51100000000E-03 0.  1.
         11   -1    0    0    0    0 -0.00000000000E+00 -0.00000000000E+00 -0.45593999997E+02  0.45594000000E+02  0.51100000000E-03 0. -1.
    9900012    2    1    2    0    0 -0.36039134609E+02 -0.16561516115E+02  0.89477178834E+01  0.50528871939E+02  0.30000036744E+02 0.  0.
        -12    1    1    2    0    0  0.36039134609E+02  0.16561516115E+02 -0.89477178834E+01  0.40659128061E+02  0.00000000000E+00 0.  1.
         11    1    3    3    0    0 -0.19829656221E+02 -0.14664797623E+02  0.25337855173E+01  0.24792975306E+02  0.51100000000E-03 0. -1.
        -11    1    3    3    0    0 -0.33761454515E+01  0.23217126887E+01 -0.60822208875E+01  0.73336293268E+01  0.51100000000E-03 0.  1.
        -12    1    3    3    0    0 -0.12833332936E+02 -0.42184311807E+01  0.12496153254E+02  0.18402267306E+02  0.00000000000E+00 0.  1.
</event>
<event>
 7    1  0.5487071E-013  0.5052886E+02  0.7816164E-02  0.1300439E+00
        -11   -1    0    0    0    0  0.00000000000E+00  0.00000000000E+00  0.45593999997E+02  0.45594000000E+02  0.51100000000E-03 0.  1.
         11   -1    0    0    0    0 -0.00000000000E+00 -0.00000000000E+00 -0.45593999997E+02  0.45594000000E+02  0.51100000000E-03 0. -1.
    9900012    2    1    2    0    0  0.31188197084E+02  0.31553632949E+00 -0.26083765835E+02  0.50528855387E+02  0.29999986434E+02 0.  0.
        -12    1    1    2    0    0 -0.31188197084E+02 -0.31553632949E+00  0.26083765835E+02  0.40659144613E+02  0.00000000000E+00 0.  1.
         11    1    3    3    0    0  0.21872919778E+02 -0.41140559051E+01 -0.19383533774E+02  0.29513919723E+02  0.51100000000E-03 0. -1.
        -11    1    3    3    0    0  0.13324043937E+02  0.25706041307E+01 -0.87475173133E+01  0.16144881909E+02  0.51100000000E-03 0.  1.
        -12    1    3    3    0    0 -0.40087666310E+01  0.18589881039E+01  0.20472852523E+01  0.48700537550E+01  0.00000000000E+00 0.  1.
</event>
<event>
 7    1  0.5487071E-013  0.5052887E+02  0.7816164E-02  0.1300439E+00
        -11   -1    0    0    0    0  0.00000000000E+00  0.00000000000E+00  0.45593999997E+02  0.45594000000E+02  0.51100000000E-03 0. -1.
         11   -1    0    0    0    0 -0.00000000000E+00 -0.00000000000E+00 -0.45593999997E+02  0.45594000000E+02  0.51100000000E-03 0.  1.
    9900012    2    1    2    0    0  0.14029141390E+02  0.18193176971E+02 -0.33546336717E+02  0.50528865681E+02  0.30000017723E+02 0.  0.
        -12    1    1    2    0    0 -0.14029141390E+02 -0.18193176971E+02  0.33546336717E+02  0.40659134319E+02  0.00000000000E+00 0.  1.
         11    1    3    3    0    0 -0.44157393961E+01  0.13759365597E+02 -0.71618218835E+01  0.16127944351E+02  0.51100000000E-03 0. -1.
        -11    1    3    3    0    0  0.97828284967E+00 -0.92237995443E+00 -0.92712846210E+01  0.93682731012E+01  0.51100000000E-03 0.  1.
        -12    1    3    3    0    0  0.17466597936E+02  0.53561913287E+01 -0.17113230213E+02  0.25032648228E+02  0.00000000000E+00 0.  1.
</event>
<event>
 7    1  0.5487071E-013  0.5052887E+02  0.7816164E-02  0.1300439E+00
        -11   -1    0    0    0    0  0.00000000000E+00  0.00000000000E+00  0.45593999997E+02  0.45594000000E+02  0.51100000000E-03 0. -1.
         11   -1    0    0    0    0 -0.00000000000E+00 -0.00000000000E+00 -0.45593999997E+02  0.45594000000E+02  0.51100000000E-03 0.  1.
    9900012    2    1    2    0    0  0.38162828678E+02 -0.25816909328E+00  0.14024873705E+02  0.50528865399E+02  0.30000016868E+02 0.  0.
        -12    1    1    2    0    0 -0.38162828678E+02  0.25816909328E+00 -0.14024873705E+02  0.40659134601E+02  0.00000000000E+00 0.  1.
         11    1    3    3    0    0  0.89191634603E+01  0.47418767709E+01  0.69026001987E+01  0.12234490668E+02  0.51100000000E-03 0. -1.
        -11    1    3    3    0    0  0.35009672657E+01  0.69442575529E+00  0.11073903361E+02  0.11634875798E+02  0.51100000000E-03 0.  1.
         12    1    3    3    0    0  0.25742697952E+02 -0.56944716195E+01 -0.39516298541E+01  0.26659498934E+02  0.00000000000E+00 0. -1.
</event>
<event>
 7    1  0.5487071E-013  0.5052880E+02  0.7816164E-02  0.1300439E+00
        -11   -1    0    0    0    0  0.00000000000E+00  0.00000000000E+00  0.45593999997E+02  0.45594000000E+02  0.51100000000E-03 0.  1.
         11   -1    0    0    0    0 -0.00000000000E+00 -0.00000000000E+00 -0.45593999997E+02  0.45594000000E+02  0.51100000000E-03 0. -1.
    9900012    2    1    2    0    0  0.28582633486E+02  0.31624139384E+01  0.28743747117E+02  0.50528796894E+02  0.29999808637E+02 0.  0.
        -12    1    1    2    0    0 -0.28582633486E+02 -0.31624139384E+01 -0.28743747117E+02  0.40659203106E+02  0.00000000000E+00 0.  1.
         11    1    3    3    0    0  0.23073697516E+02  0.78797915596E+01  0.11628421793E+02  0.27013086194E+02  0.51100000000E-03 0. -1.
        -11    1    3    3    0    0  0.97770125872E+01 -0.99500974418E+00  0.75232140120E+01  0.12376541070E+02  0.51100000000E-03 0.  1.
        -12    1    3    3    0    0 -0.42680766168E+01 -0.37223678770E+01  0.95921113119E+01  0.11139169630E+02  0.00000000000E+00 0.  1.
</event>
<event>
 7    1  0.5487071E-013  0.5052886E+02  0.7816164E-02  0.1300439E+00
        -11   -1    0    0    0    0  0.00000000000E+00  0.00000000000E+00  0.45593999997E+02  0.45594000000E+02  0.51100000000E-03 0. -1.
         11   -1    0    0    0    0 -0.00000000000E+00 -0.00000000000E+00 -0.45593999997E+02  0.45594000000E+02  0.51100000000E-03 0.  1.
    9900012    2    1    2    0    0 -0.32002828023E+01 -0.30653757603E+02  0.26519252738E+02  0.50528862884E+02  0.30000009223E+02 0.  0.
        -12    1    1    2    0    0  0.32002828023E+01  0.30653757603E+02 -0.26519252738E+02  0.40659137116E+02  0.00000000000E+00 0.  1.
         11    1    3    3    0    0  0.26928580174E+01 -0.24567754915E+02  0.52752903546E+01  0.25271619545E+02  0.51100000000E-03 0. -1.
        -11    1    3    3    0    0 -0.96407103849E-01  0.28922398542E+01  0.34759505135E+01  0.45228948625E+01  0.51100000000E-03 0.  1.
        -12    1    3    3    0    0 -0.57967337159E+01 -0.89782425430E+01  0.17768011870E+02  0.20734348476E+02  0.00000000000E+00 0.  1.
</event>
<event>
 7    1  0.5487071E-013  0.5052886E+02  0.7816164E-02  0.1300439E+00
        -11   -1    0    0    0    0  0.00000000000E+00  0.00000000000E+00  0.45593999997E+02  0.45594000000E+02  0.51100000000E-03 0.  1.
         11   -1    0    0    0    0 -0.00000000000E+00 -0.00000000000E+00 -0.45593999997E+02  0.45594000000E+02  0.51100000000E-03 0. -1.
    9900012    2    1    2    0    0  0.16092270152E+01  0.26335374198E+02 -0.30935809266E+02  0.50528857846E+02  0.29999993909E+02 0.  0.
        -12    1    1    2    0    0 -0.16092270152E+01 -0.26335374198E+02  0.30935809266E+02  0.40659142154E+02  0.00000000000E+00 0.  1.
         11    1    3    3    0    0 -0.79592930593E+01  0.17739725426E+01 -0.42307740948E+01  0.91867717011E+01  0.51100000000E-03 0. -1.
        -11    1    3    3    0    0  0.40128188691E+01  0.92381490754E+01 -0.22282951012E+02  0.24453548203E+02  0.51100000000E-03 0.  1.
        -12    1    3    3    0    0  0.55557012054E+01  0.15323252580E+02 -0.44220841587E+01  0.16888537942E+02  0.00000000000E+00 0.  1.
</event>
<event>
 7    1  0.5487071E-013  0.5052886E+02  0.7816164E-02  0.1300439E+00
        -11   -1    0    0    0    0  0.00000000000E+00  0.00000000000E+00  0.45593999997E+02  0.45594000000E+02  0.51100000000E-03 0. -1.
         11   -1    0    0    0    0 -0.00000000000E+00 -0.00000000000E+00 -0.45593999997E+02  0.45594000000E+02  0.51100000000E-03 0.  1.
    9900012    2    1    2    0    0  0.10151604014E+02 -0.37667296857E+02 -0.11457977473E+02  0.50528861244E+02  0.30000004238E+02 0.  0.
        -12    1    1    2    0    0 -0.10151604014E+02  0.37667296857E+02  0.11457977473E+02  0.40659138756E+02  0.00000000000E+00 0.  1.
         11    1    3    3    0    0 -0.80837721095E+01 -0.95275673260E+01 -0.40315469539E+01  0.13129176736E+02  0.51100000000E-03 0. -1.
        -11    1    3    3    0    0  0.84315428762E+01 -0.20710957131E+01 -0.30748216635E+01  0.92105852827E+01  0.51100000000E-03 0.  1.
        -12    1    3    3    0    0  0.98038332476E+01 -0.26068633818E+02 -0.43516088553E+01  0.28189099225E+02  0.00000000000E+00 0.  1.
</event>
<event>
 7    1  0.5487071E-013  0.5052885E+02  0.7816164E-02  0.1300439E+00
        -11   -1    0    0    0    0  0.00000000000E+00  0.00000000000E+00  0.45593999997E+02  0.45594000000E+02  0.51100000000E-03 0.  1.
         11   -1    0    0    0    0 -0.00000000000E+00 -0.00000000000E+00 -0.45593999997E+02  0.45594000000E+02  0.51100000000E-03 0. -1.
    9900012    2    1    2    0    0  0.17007539115E+02  0.97715594654E+01 -0.35614973734E+02  0.50528854470E+02  0.29999983646E+02 0.  0.
        -12    1    1    2    0    0 -0.17007539115E+02 -0.97715594654E+01  0.35614973734E+02  0.40659145530E+02  0.00000000000E+00 0.  1.
         11    1    3    3    0    0  0.91831286170E+01  0.13088552220E+02 -0.28282295557E+02  0.32488894913E+02  0.51100000000E-03 0. -1.
        -11    1    3    3    0    0 -0.33864341123E+01  0.94645971412E+00  0.72545867991E+00  0.35902663613E+01  0.51100000000E-03 0.  1.
        -12    1    3    3    0    0  0.11210844611E+02 -0.42634524686E+01 -0.80581368569E+01  0.14449693195E+02  0.00000000000E+00 0.  1.
</event>
<event>
 7    1  0.5487071E-013  0.5052886E+02  0.7816164E-02  0.1300439E+00
        -11   -1    0    0    0    0  0.00000000000E+00  0.00000000000E+00  0.45593999997E+02  0.45594000000E+02  0.51100000000E-03 0.  1.
         11   -1    0    0    0    0 -0.00000000000E+00 -0.00000000000E+00 -0.45593999997E+02  0.45594000000E+02  0.51100000000E-03 0. -1.
    9900012    2    1    2    0    0  0.40054853557E+02  0.19385526009E+01 -0.67094082199E+01  0.50528862794E+02  0.30000008949E+02 0.  0.
        -12    1    1    2    0    0 -0.40054853557E+02 -0.19385526009E+01  0.67094082199E+01  0.40659137206E+02  0.00000000000E+00 0.  1.
         11    1    3    3    0    0  0.63615047233E+01  0.12072083750E+01 -0.11209996168E+02  0.12945659843E+02  0.51100000000E-03 0. -1.
        -11    1    3    3    0    0  0.82978779918E+00 -0.35015942531E+01 -0.15186107223E+01  0.39058787605E+01  0.51100000000E-03 0.  1.
         12    1    3    3    0    0  0.32863561035E+02  0.42329384790E+01  0.60191986706E+01  0.33677324191E+02  0.00000000000E+00 0. -1.
</event>
<event>
 7    1  0.5487071E-013  0.5052886E+02  0.7816164E-02  0.1300439E+00
        -11   -1    0    0    0    0  0.00000000000E+00  0.00000000000E+00  0.45593999997E+02  0.45594000000E+02  0.51100000000E-03 0.  1.
         11   -1    0    0    0    0 -0.00000000000E+00 -0.00000000000E+00 -0.45593999997E+02  0.45594000000E+02  0.51100000000E-03 0. -1.
    9900012    2    1    2    0    0  0.19836818841E+02 -0.33833785610E+02 -0.10721061056E+02  0.50528861044E+02  0.30000003630E+02 0.  0.
        -12    1    1    2    0    0 -0.19836818841E+02  0.33833785610E+02  0.10721061056E+02  0.40659138956E+02  0.00000000000E+00 0.  1.
         11    1    3    3    0    0  0.88577291732E+01 -0.16895728453E+01 -0.44095786646E+01  0.10037848712E+02  0.51100000000E-03 0. -1.
        -11    1    3    3    0    0  0.67380342204E+01 -0.16089929101E+02 -0.13832006741E+02  0.22262329940E+02  0.51100000000E-03 0.  1.
        -12    1    3    3    0    0  0.42410554470E+01 -0.16054283664E+02  0.75205243489E+01  0.18228682392E+02  0.00000000000E+00 0.  1.
</event>
<event>
 7    1  0.5487071E-013  0.5052884E+02  0.7816164E-02  0.1300439E+00
        -11   -1    0    0    0    0  0.00000000000E+00  0.00000000000E+00  0.45593999997E+02  0.45594000000E+02  0.51100000000E-03 0. -1.
         11   -1    0    0    0    0 -0.00000000000E+00 -0.00000000000E+00 -0.45593999997E+02  0.45594000000E+02  0.51100000000E-03 0.  1.
    9900012    2    1    2    0    0 -0.30453640675E+02  0.26647740493E+02  0.39548297651E+01  0.50528843808E+02  0.29999951240E+02 0.  0.
        -12    1    1    2    0    0  0.30453640675E+02 -0.26647740493E+02 -0.39548297651E+01  0.40659156192E+02  0.00000000000E+00 0.  1.
         11    1    3    3    0    0 -0.54641255283E+01  0.11024092696E+02 -0.50101979061E+01  0.13284930217E+02  0.51100000000E-03 0.  1.
        -11    1    3    3    0    0 -0.18406776086E+02  0.20454813801E+02  0.93688296371E+01  0.29068604757E+02  0.51100000000E-03 0. -1.
        -12    1    3    3    0    0 -0.65827390608E+01 -0.48311660039E+01 -0.40380196584E+00  0.81753088338E+01  0.00000000000E+00 0.  1.
</event>
<event>
 7    1  0.5487071E-013  0.5052887E+02  0.7816164E-02  0.1300439E+00
        -11   -1    0    0    0    0  0.00000000000E+00  0.00000000000E+00  0.45593999997E+02  0.45594000000E+02  0.51100000000E-03 0. -1.
         11   -1    0    0    0    0 -0.00000000000E+00 -0.00000000000E+00 -0.45593999997E+02  0.45594000000E+02  0.51100000000E-03 0.  1.
    9900012    2    1    2    0    0  0.60250820175E+01 -0.32589878810E+02  0.23553400201E+02  0.50528874638E+02  0.30000044949E+02 0.  0.
        -12    1    1    2    0    0 -0.60250820175E+01  0.32589878810E+02 -0.23553400201E+02  0.40659125362E+02  0.00000000000E+00 0.  1.
         11    1    3    3    0    0 -0.59124765859E+01 -0.36942436050E+01  0.10285568213E+01  0.70471799031E+01  0.51100000000E-03 0. -1.
        -11    1    3    3    0    0 -0.47359693026E+01 -0.14168287199E+02  0.86262423265E+01  0.17250560116E+02  0.51100000000E-03 0.  1.
        -12    1    3    3    0    0  0.16673527906E+02 -0.14727348007E+02  0.13898601053E+02  0.26231134618E+02  0.00000000000E+00 0.  1.
</event>
<event>
 7    1  0.5487071E-013  0.5052885E+02  0.7816164E-02  0.1300439E+00
        -11   -1    0    0    0    0  0.00000000000E+00  0.00000000000E+00  0.45593999997E+02  0.45594000000E+02  0.51100000000E-03 0. -1.
         11   -1    0    0    0    0 -0.00000000000E+00 -0.00000000000E+00 -0.45593999997E+02  0.45594000000E+02  0.51100000000E-03 0.  1.
    9900012    2    1    2    0    0 -0.40209956672E+01  0.34992140028E+02  0.20311291327E+02  0.50528845739E+02  0.29999957107E+02 0.  0.
        -12    1    1    2    0    0  0.40209956672E+01 -0.34992140028E+02 -0.20311291327E+02  0.40659154261E+02  0.00000000000E+00 0.  1.
         11    1    3    3    0    0  0.55795865486E+01  0.17200090345E+02  0.38856776344E+01  0.18495226002E+02  0.51100000000E-03 0. -1.
        -11    1    3    3    0    0 -0.10105434223E+01 -0.39006168202E+01  0.36317210936E+01  0.54245191445E+01  0.51100000000E-03 0.  1.
         12    1    3    3    0    0 -0.85900387935E+01  0.21692666503E+02  0.12793892599E+02  0.26609100592E+02  0.00000000000E+00 0. -1.
</event>
<event>
 7    1  0.5487071E-013  0.5052885E+02  0.7816164E-02  0.1300439E+00
        -11   -1    0    0    0    0  0.00000000000E+00  0.00000000000E+00  0.45593999997E+02  0.45594000000E+02  0.51100000000E-03 0. -1.
         11   -1    0    0    0    0 -0.00000000000E+00 -0.00000000000E+00 -0.45593999997E+02  0.45594000000E+02  0.51100000000E-03 0.  1.
    9900012    2    1    2    0    0 -0.29407760850E+01 -0.27526614031E+02  0.29779248886E+02  0.50528852097E+02  0.29999976435E+02 0.  0.
        -12    1    1    2    0    0  0.29407760850E+01  0.27526614031E+02 -0.29779248886E+02  0.40659147903E+02  0.00000000000E+00 0.  1.
         11    1    3    3    0    0  0.30919499026E+01 -0.21698641515E+01  0.11603626007E+02  0.12202975104E+02  0.51100000000E-03 0. -1.
        -11    1    3    3    0    0 -0.19688557276E+01 -0.38843630018E+01  0.15746648525E+02  0.16337735732E+02  0.51100000000E-03 0.  1.
        -12    1    3    3    0    0 -0.40638702600E+01 -0.21472386877E+02  0.24289743537E+01  0.21988141261E+02  0.00000000000E+00 0.  1.
</event>
<event>
 7    1  0.5487071E-013  0.5052888E+02  0.7816164E-02  0.1300439E+00
        -11   -1    0    0    0    0  0.00000000000E+00  0.00000000000E+00  0.45593999997E+02  0.45594000000E+02  0.51100000000E-03 0. -1.
         11   -1    0    0    0    0 -0.00000000000E+00 -0.00000000000E+00 -0.45593999997E+02  0.45594000000E+02  0.51100000000E-03 0.  1.
    9900012    2    1    2    0    0  0.49968355707E+01 -0.29191328844E+02  0.27857888851E+02  0.50528880278E+02  0.30000062092E+02 0.  0.
        -12    1    1    2    0    0 -0.49968355707E+01  0.29191328844E+02 -0.27857888851E+02  0.40659119722E+02  0.00000000000E+00 0.  1.
         11    1    3    3    0    0  0.73497719768E+01 -0.81244203759E+01  0.22129265179E+02  0.24692706052E+02  0.51100000000E-03 0. -1.
        -11    1    3    3    0    0  0.58864004754E+00 -0.42735847458E+01  0.75444653927E+01  0.86907411656E+01  0.51100000000E-03 0.  1.
        -12    1    3    3    0    0 -0.29415764537E+01 -0.16793323722E+02 -0.18158417206E+01  0.17145433060E+02  0.00000000000E+00 0.  1.
</event>
<event>
 7    1  0.5487071E-013  0.5052884E+02  0.7816164E-02  0.1300439E+00
        -11   -1    0    0    0    0  0.00000000000E+00  0.00000000000E+00  0.45593999997E+02  0.45594000000E+02  0.51100000000E-03 0. -1.
         11   -1    0    0    0    0 -0.00000000000E+00 -0.00000000000E+00 -0.45593999997E+02  0.45594000000E+02  0.51100000000E-03 0.  1.
    9900012    2    1    2    0    0  0.25515395083E+02  0.12290956647E+02  0.29173002962E+02  0.50528842319E+02  0.29999946711E+02 0.  0.
        -12    1    1    2    0    0 -0.25515395083E+02 -0.12290956647E+02 -0.29173002962E+02  0.40659157681E+02  0.00000000000E+00 0.  1.
         11    1    3    3    0    0  0.14430214357E+02  0.11589674885E+02  0.25487906130E+02  0.31498968387E+02  0.51100000000E-03 0. -1.
        -11    1    3    3    0    0  0.71718426277E+01  0.42317924714E+01  0.84940965389E+01  0.11895085980E+02  0.51100000000E-03 0.  1.
        -12    1    3    3    0    0  0.39133380987E+01 -0.35305107091E+01 -0.48089997062E+01  0.71347879517E+01  0.00000000000E+00 0.  1.
</event>
<event>
 7    1  0.5487071E-013  0.5052886E+02  0.7816164E-02  0.1300439E+00
        -11   -1    0    0    0    0  0.00000000000E+00  0.00000000000E+00  0.45593999997E+02  0.45594000000E+02  0.51100000000E-03 0.  1.
         11   -1    0    0    0    0 -0.00000000000E+00 -0.00000000000E+00 -0.45593999997E+02  0.45594000000E+02  0.51100000000E-03 0. -1.
    9900012    2    1    2    0    0  0.13636501945E+02  0.18608263716E+02 -0.33480501393E+02  0.50528860347E+02  0.30000001510E+02 0.  0.
        -12    1    1    2    0    0 -0.13636501945E+02 -0.18608263716E+02  0.33480501393E+02  0.40659139653E+02  0.00000000000E+00 0.  1.
         11    1    3    3    0    0  0.97318426139E+01  0.13618185823E+02 -0.61377031140E+01  0.17827931612E+02  0.51100000000E-03 0. -1.
        -11    1    3    3    0    0  0.39908957841E+01  0.56392029112E+01 -0.17858907290E+01  0.71356334400E+01  0.51100000000E-03 0.  1.
        -12    1    3    3    0    0 -0.86236452747E-01 -0.64912501821E+00 -0.25556907550E+02  0.25565295295E+02  0.00000000000E+00 0.  1.
</event>
<event>
 7    1  0.5487071E-013  0.5052885E+02  0.7816164E-02  0.1300439E+00
        -11   -1    0    0    0    0  0.00000000000E+00  0.00000000000E+00  0.45593999997E+02  0.45594000000E+02  0.51100000000E-03 0.  1.
         11   -1    0    0    0    0 -0.00000000000E+00 -0.00000000000E+00 -0.45593999997E+02  0.45594000000E+02  0.51100000000E-03 0. -1.
    9900012    2    1    2    0    0 -0.21648521138E+02  0.34285847038E+02  0.29980664405E+01  0.50528853711E+02  0.29999981339E+02 0.  0.
        -12    1    1    2    0    0  0.21648521138E+02 -0.34285847038E+02 -0.29980664405E+01  0.40659146289E+02  0.00000000000E+00 0.  1.
         11    1    3    3    0    0 -0.76637572510E+01  0.56388191296E+00 -0.15435365930E+01  0.78379616923E+01  0.51100000000E-03 0. -1.
        -11    1    3    3    0    0 -0.27063414824E+01 -0.19628610425E+01  0.40649108569E+01  0.52631367289E+01  0.51100000000E-03 0.  1.
        -12    1    3    3    0    0 -0.11278422405E+02  0.35684826168E+02  0.47669217668E+00  0.37427755289E+02  0.00000000000E+00 0.  1.
</event>
<event>
 7    1  0.5487071E-013  0.5052886E+02  0.7816164E-02  0.1300439E+00
        -11   -1    0    0    0    0  0.00000000000E+00  0.00000000000E+00  0.45593999997E+02  0.45594000000E+02  0.51100000000E-03 0.  1.
         11   -1    0    0    0    0 -0.00000000000E+00 -0.00000000000E+00 -0.45593999997E+02  0.45594000000E+02  0.51100000000E-03 0. -1.
    9900012    2    1    2    0    0  0.39278008104E+02 -0.38237645546E+01 -0.97868687792E+01  0.50528857160E+02  0.29999991823E+02 0.  0.
        -12    1    1    2    0    0 -0.39278008104E+02  0.38237645546E+01  0.97868687792E+01  0.40659142840E+02  0.00000000000E+00 0.  1.
         11    1    3    3    0    0  0.12257538264E+02 -0.11692468544E+01  0.84865684529E+00  0.12342390416E+02  0.51100000000E-03 0.  1.
        -11    1    3    3    0    0  0.28855805657E+02  0.39982840770E+01 -0.56540668150E+01  0.29675111921E+02  0.51100000000E-03 0. -1.
         12    1    3    3    0    0 -0.18353358169E+01 -0.66528017773E+01 -0.49814588095E+01  0.85113548228E+01  0.00000000000E+00 0. -1.
</event>
<event>
 7    1  0.5487071E-013  0.5052886E+02  0.7816164E-02  0.1300439E+00
        -11   -1    0    0    0    0  0.00000000000E+00  0.00000000000E+00  0.45593999997E+02  0.45594000000E+02  0.51100000000E-03 0.  1.
         11   -1    0    0    0    0 -0.00000000000E+00 -0.00000000000E+00 -0.45593999997E+02  0.45594000000E+02  0.51100000000E-03 0. -1.
    9900012    2    1    2    0    0  0.13095406374E+02  0.16392129393E+02 -0.34827772840E+02  0.50528864064E+02  0.30000012808E+02 0.  0.
        -12    1    1    2    0    0 -0.13095406374E+02 -0.16392129393E+02  0.34827772840E+02  0.40659135936E+02  0.00000000000E+00 0.  1.
         11    1    3    3    0    0  0.60300101496E+01 -0.69942114626E+00 -0.12737488993E+02  0.14110061603E+02  0.51100000000E-03 0. -1.
        -11    1    3    3    0    0  0.90672671150E+00 -0.32687289929E+01 -0.12738635200E+02  0.13182547917E+02  0.51100000000E-03 0.  1.
         12    1    3    3    0    0  0.61586695128E+01  0.20360279532E+02 -0.93516486463E+01  0.23236254543E+02  0.00000000000E+00 0. -1.
</event>
<event>
 7    1  0.5487071E-013  0.5052885E+02  0.7816164E-02  0.1300439E+00
        -11   -1    0    0    0    0  0.00000000000E+00  0.00000000000E+00  0.45593999997E+02  0.45594000000E+02  0.51100000000E-03 0.  1.
         11   -1    0    0    0    0 -0.00000000000E+00 -0.00000000000E+00 -0.45593999997E+02  0.45594000000E+02  0.51100000000E-03 0. -1.
    9900012    2    1    2    0    0 -0.21407052817E+02  0.11992599658E+02 -0.32420398904E+02  0.50528848239E+02  0.29999964708E+02 0.  0.
        -12    1    1    2    0    0  0.21407052817E+02 -0.11992599658E+02  0.32420398904E+02  0.40659151761E+02  0.00000000000E+00 0.  1.
         11    1    3    3    0    0 -0.57922957624E+01 -0.42396872757E+01 -0.84531784264E+01  0.11089718850E+02  0.51100000000E-03 0. -1.
        -11    1    3    3    0    0 -0.19860604106E+01 -0.53868741707E+01 -0.49990483943E+01  0.76127087422E+01  0.51100000000E-03 0.  1.
         12    1    3    3    0    0 -0.13628696644E+02  0.21619161104E+02 -0.18968172083E+02  0.31826420647E+02  0.00000000000E+00 0. -1.
</event>
<event>
 7    1  0.5487071E-013  0.5052887E+02  0.7816164E-02  0.1300439E+00
        -11   -1    0    0    0    0  0.00000000000E+00  0.00000000000E+00  0.45593999997E+02  0.45594000000E+02  0.51100000000E-03 0.  1.
         11   -1    0    0    0    0 -0.00000000000E+00 -0.00000000000E+00 -0.45593999997E+02  0.45594000000E+02  0.51100000000E-03 0. -1.
    9900012    2    1    2    0    0 -0.41721956018E+01 -0.18633367872E+02  0.35896446026E+02  0.50528874927E+02  0.30000045830E+02 0.  0.
        -12    1    1    2    0    0  0.41721956018E+01  0.18633367872E+02 -0.35896446026E+02  0.40659125073E+02  0.00000000000E+00 0.  1.
         11    1    3    3    0    0  0.68845474002E+01 -0.31508705372E+00  0.13242600504E+02  0.14928588048E+02  0.51100000000E-03 0. -1.
        -11    1    3    3    0    0 -0.91505424580E+01 -0.18609996984E+02  0.25052762247E+02  0.32522381701E+02  0.51100000000E-03 0.  1.
         12    1    3    3    0    0 -0.19062005440E+01  0.29171616591E+00 -0.23989167248E+01  0.30779051785E+01  0.00000000000E+00 0. -1.
</event>
<event>
 7    1  0.5487071E-013  0.5052885E+02  0.7816164E-02  0.1300439E+00
        -11   -1    0    0    0    0  0.00000000000E+00  0.00000000000E+00  0.45593999997E+02  0.45594000000E+02  0.51100000000E-03 0.  1.
         11   -1    0    0    0    0 -0.00000000000E+00 -0.00000000000E+00 -0.45593999997E+02  0.45594000000E+02  0.51100000000E-03 0. -1.
    9900012    2    1    2    0    0  0.39844551349E+01 -0.36857256622E+02 -0.16698297810E+02  0.50528850990E+02  0.29999973071E+02 0.  0.
        -12    1    1    2    0    0 -0.39844551349E+01  0.36857256622E+02  0.16698297810E+02  0.40659149010E+02  0.00000000000E+00 0.  1.
         11    1    3    3    0    0 -0.43304026918E+01 -0.18923251598E+00 -0.81257211242E+01  0.92095353014E+01  0.51100000000E-03 0. -1.
        -11    1    3    3    0    0  0.17687160141E+01  0.10990020563E+01 -0.62230730015E+00  0.21733450014E+01  0.51100000000E-03 0.  1.
        -12    1    3    3    0    0  0.65461418126E+01 -0.37767026162E+02 -0.79502693860E+01  0.39145970688E+02  0.00000000000E+00 0.  1.
</event>
<event>
 7    1  0.5487071E-013  0.5052886E+02  0.7816164E-02  0.1300439E+00
        -11   -1    0    0    0    0  0.00000000000E+00  0.00000000000E+00  0.45593999997E+02  0.45594000000E+02  0.51100000000E-03 0.  1.
         11   -1    0    0    0    0 -0.00000000000E+00 -0.00000000000E+00 -0.45593999997E+02  0.45594000000E+02  0.51100000000E-03 0. -1.
    9900012    2    1    2    0    0 -0.24514147648E+02  0.54212417411E+01 -0.31981750913E+02  0.50528859719E+02  0.29999999602E+02 0.  0.
        -12    1    1    2    0    0  0.24514147648E+02 -0.54212417411E+01  0.31981750913E+02  0.40659140281E+02  0.00000000000E+00 0.  1.
         11    1    3    3    0    0 -0.10337794868E+02 -0.62873614917E+01 -0.90639969684E+01  0.15118100362E+02  0.51100000000E-03 0. -1.
        -11    1    3    3    0    0 -0.59512436764E+00  0.19116026869E+01  0.35585203503E+01  0.40830705591E+01  0.51100000000E-03 0.  1.
         12    1    3    3    0    0 -0.13581228413E+02  0.97970005459E+01 -0.26476274295E+02  0.31327688798E+02  0.00000000000E+00 0. -1.
</event>
<event>
 7    1  0.8295995E-013  0.5052888E+02  0.7816164E-02  0.1300439E+00
        -11   -1    0    0    0    0  0.00000000000E+00  0.00000000000E+00  0.45593999997E+02  0.45594000000E+02  0.51100000000E-03 0. -1.
         11   -1    0    0    0    0 -0.00000000000E+00 -0.00000000000E+00 -0.45593999997E+02  0.45594000000E+02  0.51100000000E-03 0.  1.
    9900012    2    1    2    0    0 -0.24460896854E+02  0.64927037301E+01  0.31822527755E+02  0.50528881105E+02  0.30000064606E+02 0.  0.
        -12    1    1    2    0    0  0.24460896854E+02 -0.64927037301E+01 -0.31822527755E+02  0.40659118895E+02  0.00000000000E+00 0.  1.
         11    1    3    3    0    0 -0.59737431980E+01  0.99765227491E+01  0.83757124099E+01  0.14330707331E+02  0.51100000000E-03 0. -1.
        -11    1    3    3    0    0 -0.41162891592E+01  0.35788369214E+01 -0.22664574853E+01  0.59066691076E+01  0.51100000000E-03 0.  1.
         12    1    3    3    0    0 -0.14370864497E+02 -0.70626559404E+01  0.25713272830E+02  0.30291504667E+02  0.00000000000E+00 0. -1.
</event>
<event>
 7    1  0.5487071E-013  0.5052887E+02  0.7816164E-02  0.1300439E+00
        -11   -1    0    0    0    0  0.00000000000E+00  0.00000000000E+00  0.45593999997E+02  0.45594000000E+02  0.51100000000E-03 0. -1.
         11   -1    0    0    0    0 -0.00000000000E+00 -0.00000000000E+00 -0.45593999997E+02  0.45594000000E+02  0.51100000000E-03 0.  1.
    9900012    2    1    2    0    0 -0.12132704822E+01  0.40199418558E+02  0.59749422090E+01  0.50528865576E+02  0.30000017406E+02 0.  0.
        -12    1    1    2    0    0  0.12132704822E+01 -0.40199418558E+02 -0.59749422090E+01  0.40659134424E+02  0.00000000000E+00 0.  1.
         11    1    3    3    0    0 -0.16482162374E+01 -0.27917344724E+01  0.34267480499E+00  0.32600344189E+01  0.51100000000E-03 0. -1.
        -11    1    3    3    0    0 -0.91657944817E+00  0.56244199889E+01  0.79779295513E+01  0.98041612738E+01  0.51100000000E-03 0.  1.
         12    1    3    3    0    0  0.13515252033E+01  0.37366733042E+02 -0.23456621473E+01  0.37464669884E+02  0.00000000000E+00 0. -1.
</event>
<event>
 7    1  0.5487071E-013  0.5052886E+02  0.7816164E-02  0.1300439E+00
        -11   -1    0    0    0    0  0.00000000000E+00  0.00000000000E+00  0.45593999997E+02  0.45594000000E+02  0.51100000000E-03 0. -1.
         11   -1    0    0    0    0 -0.00000000000E+00 -0.00000000000E+00 -0.45593999997E+02  0.45594000000E+02  0.51100000000E-03 0.  1.
    9900012    2    1    2    0    0 -0.27734507952E+02 -0.29456621277E+02 -0.40336391595E+01  0.50528859413E+02  0.29999998673E+02 0.  0.
        -12    1    1    2    0    0  0.27734507952E+02  0.29456621277E+02  0.40336391595E+01  0.40659140587E+02  0.00000000000E+00 0.  1.
         11    1    3    3    0    0 -0.16709380629E+02 -0.48149958364E+01 -0.30673177428E+01  0.17657746864E+02  0.51100000000E-03 0. -1.
        -11    1    3    3    0    0 -0.89513409446E+01 -0.24153311920E+01 -0.44397355165E+01  0.10279668341E+02  0.51100000000E-03 0.  1.
         12    1    3    3    0    0 -0.20737863784E+01 -0.22226294248E+02  0.34734140998E+01  0.22591444209E+02  0.00000000000E+00 0. -1.
</event>
<event>
 7    1  0.5487071E-013  0.5052885E+02  0.7816164E-02  0.1300439E+00
        -11   -1    0    0    0    0  0.00000000000E+00  0.00000000000E+00  0.45593999997E+02  0.45594000000E+02  0.51100000000E-03 0. -1.
         11   -1    0    0    0    0 -0.00000000000E+00 -0.00000000000E+00 -0.45593999997E+02  0.45594000000E+02  0.51100000000E-03 0.  1.
    9900012    2    1    2    0    0  0.36058036055E+02  0.13028526662E+02  0.13536702754E+02  0.50528846141E+02  0.29999958330E+02 0.  0.
        -12    1    1    2    0    0 -0.36058036055E+02 -0.13028526662E+02 -0.13536702754E+02  0.40659153859E+02  0.00000000000E+00 0.  1.
         11    1    3    3    0    0  0.16619136692E+02 -0.27723297613E+01  0.16593838605E+01  0.16930300403E+02  0.51100000000E-03 0. -1.
        -11    1    3    3    0    0  0.45940942189E+01  0.59588637378E+01 -0.50219387819E+01  0.90461941240E+01  0.51100000000E-03 0.  1.
        -12    1    3    3    0    0  0.14844805144E+02  0.98419926855E+01  0.16899257675E+02  0.24552351613E+02  0.00000000000E+00 0.  1.
</event>
<event>
 7    1  0.5487071E-013  0.5052886E+02  0.7816164E-02  0.1300439E+00
        -11   -1    0    0    0    0  0.00000000000E+00  0.00000000000E+00  0.45593999997E+02  0.45594000000E+02  0.51100000000E-03 0.  1.
         11   -1    0    0    0    0 -0.00000000000E+00 -0.00000000000E+00 -0.45593999997E+02  0.45594000000E+02  0.51100000000E-03 0. -1.
    9900012    2    1    2    0    0 -0.28551904368E+02  0.20687699607E+02 -0.20247793768E+02  0.50528864366E+02  0.30000013726E+02 0.  0.
        -12    1    1    2    0    0  0.28551904368E+02 -0.20687699607E+02  0.20247793768E+02  0.40659135634E+02  0.00000000000E+00 0.  1.
         11    1    3    3    0    0 -0.53440307063E+01  0.46680625281E+00 -0.12389216645E+02  0.13500713374E+02  0.51100000000E-03 0. -1.
        -11    1    3    3    0    0 -0.30530911488E+01 -0.37565919823E+01 -0.62808331323E+00  0.48813766290E+01  0.51100000000E-03 0.  1.
        -12    1    3    3    0    0 -0.20154782512E+02  0.23977485336E+02 -0.72304938094E+01  0.32146774362E+02  0.00000000000E+00 0.  1.
</event>
<event>
 7    1  0.5487071E-013  0.5052884E+02  0.7816164E-02  0.1300439E+00
        -11   -1    0    0    0    0  0.00000000000E+00  0.00000000000E+00  0.45593999997E+02  0.45594000000E+02  0.51100000000E-03 0.  1.
         11   -1    0    0    0    0 -0.00000000000E+00 -0.00000000000E+00 -0.45593999997E+02  0.45594000000E+02  0.51100000000E-03 0. -1.
    9900012    2    1    2    0    0  0.58629372198E+01  0.29123297743E+02 -0.27760161143E+02  0.50528842963E+02  0.29999948672E+02 0.  0.
        -12    1    1    2    0    0 -0.58629372198E+01 -0.29123297743E+02  0.27760161143E+02  0.40659157037E+02  0.00000000000E+00 0.  1.
         11    1    3    3    0    0  0.66876902696E+01  0.13661119512E+02 -0.11346926008E+02  0.18976409501E+02  0.51100000000E-03 0. -1.
        -11    1    3    3    0    0  0.26959428369E+01  0.18476966442E+02 -0.18662928337E+02  0.26400213845E+02  0.51100000000E-03 0.  1.
        -12    1    3    3    0    0 -0.35206958866E+01 -0.30147882114E+01  0.22496932020E+01  0.51522196177E+01  0.00000000000E+00 0.  1.
</event>
<event>
 7    1  0.5487071E-013  0.5052886E+02  0.7816164E-02  0.1300439E+00
        -11   -1    0    0    0    0  0.00000000000E+00  0.00000000000E+00  0.45593999997E+02  0.45594000000E+02  0.51100000000E-03 0. -1.
         11   -1    0    0    0    0 -0.00000000000E+00 -0.00000000000E+00 -0.45593999997E+02  0.45594000000E+02  0.51100000000E-03 0.  1.
    9900012    2    1    2    0    0  0.37201060960E+02 -0.45035368236E+01 -0.15778610730E+02  0.50528864040E+02  0.30000012735E+02 0.  0.
        -12    1    1    2    0    0 -0.37201060960E+02  0.45035368236E+01  0.15778610730E+02  0.40659135960E+02  0.00000000000E+00 0.  1.
         11    1    3    3    0    0  0.19580507684E+02  0.91285642541E+00 -0.13115181199E+01  0.19645601749E+02  0.51100000000E-03 0. -1.
        -11    1    3    3    0    0  0.12287015295E+02 -0.78604119768E+01  0.71839007946E+00  0.14603866127E+02  0.51100000000E-03 0.  1.
        -12    1    3    3    0    0  0.53335379809E+01  0.24440187278E+01 -0.15185482690E+02  0.16279396164E+02  0.00000000000E+00 0.  1.
</event>
<event>
 7    1  0.5487071E-013  0.5052886E+02  0.7816164E-02  0.1300439E+00
        -11   -1    0    0    0    0  0.00000000000E+00  0.00000000000E+00  0.45593999997E+02  0.45594000000E+02  0.51100000000E-03 0. -1.
         11   -1    0    0    0    0 -0.00000000000E+00 -0.00000000000E+00 -0.45593999997E+02  0.45594000000E+02  0.51100000000E-03 0.  1.
    9900012    2    1    2    0    0 -0.29190664661E+02 -0.17097219074E+02  0.22555620579E+02  0.50528858062E+02  0.29999994565E+02 0.  0.
        -12    1    1    2    0    0  0.29190664661E+02  0.17097219074E+02 -0.22555620579E+02  0.40659141938E+02  0.00000000000E+00 0.  1.
         11    1    3    3    0    0 -0.49531792750E+01 -0.35592713542E+00 -0.12968017586E+01  0.51324812828E+01  0.51100000000E-03 0. -1.
        -11    1    3    3    0    0 -0.61589459039E+01 -0.90277801695E+01 -0.37120702868E+01  0.11541789095E+02  0.51100000000E-03 0.  1.
         12    1    3    3    0    0 -0.18078539482E+02 -0.77135117688E+01  0.27564492625E+02  0.33854587684E+02  0.00000000000E+00 0. -1.
</event>
<event>
 7    1  0.5487071E-013  0.5052885E+02  0.7816164E-02  0.1300439E+00
        -11   -1    0    0    0    0  0.00000000000E+00  0.00000000000E+00  0.45593999997E+02  0.45594000000E+02  0.51100000000E-03 0.  1.
         11   -1    0    0    0    0 -0.00000000000E+00 -0.00000000000E+00 -0.45593999997E+02  0.45594000000E+02  0.51100000000E-03 0. -1.
    9900012    2    1    2    0    0 -0.37481234745E+02 -0.50214598930E+01 -0.14936806309E+02  0.50528853425E+02  0.29999980471E+02 0.  0.
        -12    1    1    2    0    0  0.37481234745E+02  0.50214598930E+01  0.14936806309E+02  0.40659146575E+02  0.00000000000E+00 0.  1.
         11    1    3    3    0    0 -0.24636371636E+02  0.19623404775E+00 -0.12699485562E+02  0.27717616222E+02  0.51100000000E-03 0. -1.
        -11    1    3    3    0    0 -0.17355346051E+02 -0.44672233533E+01 -0.30155529016E+01  0.18172993165E+02  0.51100000000E-03 0.  1.
         12    1    3    3    0    0  0.45104829416E+01 -0.75047058750E+00  0.77823215548E+00  0.46382440381E+01  0.00000000000E+00 0. -1.
</event>
<event>
 7    1  0.5487071E-013  0.5052889E+02  0.7816164E-02  0.1300439E+00
        -11   -1    0    0    0    0  0.00000000000E+00  0.00000000000E+00  0.45593999997E+02  0.45594000000E+02  0.51100000000E-03 0.  1.
         11   -1    0    0    0    0 -0.00000000000E+00 -0.00000000000E+00 -0.45593999997E+02  0.45594000000E+02  0.51100000000E-03 0. -1.
    9900012    2    1    2    0    0 -0.15652128674E+02  0.14752532541E+02 -0.34504161253E+02  0.50528886726E+02  0.30000081693E+02 0.  0.
        -12    1    1    2    0    0  0.15652128674E+02 -0.14752532541E+02  0.34504161253E+02  0.40659113274E+02  0.00000000000E+00 0.  1.
         11    1    3    3    0    0  0.37622774110E+01  0.57243794477E+01 -0.91332926327E+01  0.11416667025E+02  0.51100000000E-03 0.  1.
        -11    1    3    3    0    0 -0.64040241482E+01  0.10288375691E+02 -0.22756335982E+02  0.25782029153E+02  0.51100000000E-03 0. -1.
         12    1    3    3    0    0 -0.13010381937E+02 -0.12602225980E+01 -0.26145326391E+01  0.13330190549E+02  0.00000000000E+00 0. -1.
</event>
<event>
 7    1  0.5487071E-013  0.5052885E+02  0.7816164E-02  0.1300439E+00
        -11   -1    0    0    0    0  0.00000000000E+00  0.00000000000E+00  0.45593999997E+02  0.45594000000E+02  0.51100000000E-03 0.  1.
         11   -1    0    0    0    0 -0.00000000000E+00 -0.00000000000E+00 -0.45593999997E+02  0.45594000000E+02  0.51100000000E-03 0. -1.
    9900012    2    1    2    0    0  0.17931968677E+02 -0.36235631094E+02 -0.43116111015E+01  0.50528850333E+02  0.29999971071E+02 0.  0.
        -12    1    1    2    0    0 -0.17931968677E+02  0.36235631094E+02  0.43116111015E+01  0.40659149667E+02  0.00000000000E+00 0.  1.
         11    1    3    3    0    0  0.31096783280E+01 -0.71712966418E+01 -0.38471498589E+01  0.87119548396E+01  0.51100000000E-03 0. -1.
        -11    1    3    3    0    0  0.26264114422E+00 -0.27011312494E+02  0.10671320117E+01  0.27033659649E+02  0.51100000000E-03 0.  1.
        -12    1    3    3    0    0  0.14559649205E+02 -0.20530219577E+01 -0.15315932544E+01  0.14783235844E+02  0.00000000000E+00 0.  1.
</event>
<event>
 7    1  0.5487071E-013  0.5052886E+02  0.7816164E-02  0.1300439E+00
        -11   -1    0    0    0    0  0.00000000000E+00  0.00000000000E+00  0.45593999997E+02  0.45594000000E+02  0.51100000000E-03 0.  1.
         11   -1    0    0    0    0 -0.00000000000E+00 -0.00000000000E+00 -0.45593999997E+02  0.45594000000E+02  0.51100000000E-03 0. -1.
    9900012    2    1    2    0    0  0.47396534882E+01  0.17862864970E+02 -0.36216283768E+02  0.50528862404E+02  0.30000007762E+02 0.  0.
        -12    1    1    2    0    0 -0.47396534882E+01 -0.17862864970E+02  0.36216283768E+02  0.40659137596E+02  0.00000000000E+00 0.  1.
         11    1    3    3    0    0  0.41237937065E+01  0.19440495758E+02 -0.24237410074E+02  0.31343110841E+02  0.51100000000E-03 0. -1.
        -11    1    3    3    0    0  0.10356958667E+01  0.65743838719E+01 -0.68204115170E+01  0.95295961481E+01  0.51100000000E-03 0.  1.
        -12    1    3    3    0    0 -0.41983608501E+00 -0.81520146600E+01 -0.51584621769E+01  0.96561554143E+01  0.00000000000E+00 0.  1.
</event>
<event>
 7    1  0.5487071E-013  0.5052889E+02  0.7816164E-02  0.1300439E+00
        -11   -1    0    0    0    0  0.00000000000E+00  0.00000000000E+00  0.45593999997E+02  0.45594000000E+02  0.51100000000E-03 0.  1.
         11   -1    0    0    0    0 -0.00000000000E+00 -0.00000000000E+00 -0.45593999997E+02  0.45594000000E+02  0.51100000000E-03 0. -1.
    9900012    2    1    2    0    0 -0.24865021354E+02  0.25846945764E+02 -0.19152786275E+02  0.50528891373E+02  0.30000095818E+02 0.  0.
        -12    1    1    2    0    0  0.24865021354E+02 -0.25846945764E+02  0.19152786275E+02  0.40659108627E+02  0.00000000000E+00 0.  1.
         11    1    3    3    0    0 -0.22482062719E+02  0.50595262048E+01 -0.36967931874E+01  0.23338985189E+02  0.51100000000E-03 0. -1.
        -11    1    3    3    0    0 -0.50584484866E+01  0.10007560849E+02 -0.86679501246E+01  0.14172950817E+02  0.51100000000E-03 0.  1.
        -12    1    3    3    0    0  0.26754898522E+01  0.10779858710E+02 -0.67880429627E+01  0.13016955367E+02  0.00000000000E+00 0.  1.
</event>
<event>
 7    1  0.5487071E-013  0.5052886E+02  0.7816164E-02  0.1300439E+00
        -11   -1    0    0    0    0  0.00000000000E+00  0.00000000000E+00  0.45593999997E+02  0.45594000000E+02  0.51100000000E-03 0.  1.
         11   -1    0    0    0    0 -0.00000000000E+00 -0.00000000000E+00 -0.45593999997E+02  0.45594000000E+02  0.51100000000E-03 0. -1.
    9900012    2    1    2    0    0  0.33637189550E+02  0.20994091457E+02  0.89973950542E+01  0.50528861855E+02  0.30000006094E+02 0.  0.
        -12    1    1    2    0    0 -0.33637189550E+02 -0.20994091457E+02 -0.89973950542E+01  0.40659138145E+02  0.00000000000E+00 0.  1.
         11    1    3    3    0    0  0.52137297883E+01  0.14390182601E+02  0.40687398958E+00  0.15310972546E+02  0.51100000000E-03 0. -1.
        -11    1    3    3    0    0  0.10052088992E+01  0.11443885772E+01 -0.42049369658E+01  0.44723109567E+01  0.51100000000E-03 0.  1.
         12    1    3    3    0    0  0.27418250862E+02  0.54595202796E+01  0.12795458030E+02  0.30745578353E+02  0.00000000000E+00 0. -1.
</event>
<event>
 7    1  0.5487071E-013  0.5052886E+02  0.7816164E-02  0.1300439E+00
        -11   -1    0    0    0    0  0.00000000000E+00  0.00000000000E+00  0.45593999997E+02  0.45594000000E+02  0.51100000000E-03 0. -1.
         11   -1    0    0    0    0 -0.00000000000E+00 -0.00000000000E+00 -0.45593999997E+02  0.45594000000E+02  0.51100000000E-03 0.  1.
    9900012    2    1    2    0    0  0.17877559650E+02  0.20983285334E+02  0.29887463549E+02  0.50528857365E+02  0.29999992447E+02 0.  0.
        -12    1    1    2    0    0 -0.17877559650E+02 -0.20983285334E+02 -0.29887463549E+02  0.40659142635E+02  0.00000000000E+00 0.  1.
         11    1    3    3    0    0  0.34011362651E+01  0.90058479900E+01 -0.10231541311E+01  0.96809023624E+01  0.51100000000E-03 0. -1.
        -11    1    3    3    0    0  0.53759912682E+01 -0.25124277137E+00 -0.10087547147E+01  0.54755813739E+01  0.51100000000E-03 0.  1.
         12    1    3    3    0    0  0.91004321162E+01  0.12228680115E+02  0.31919372395E+02  0.35372373629E+02  0.00000000000E+00 0. -1.
</event>
<event>
 7    1  0.5487071E-013  0.5052879E+02  0.7816164E-02  0.1300439E+00
        -11   -1    0    0    0    0  0.00000000000E+00  0.00000000000E+00  0.45593999997E+02  0.45594000000E+02  0.51100000000E-03 0. -1.
         11   -1    0    0    0    0 -0.00000000000E+00 -0.00000000000E+00 -0.45593999997E+02  0.45594000000E+02  0.51100000000E-03 0.  1.
    9900012    2    1    2    0    0 -0.93151080217E+01 -0.26502244113E+02  0.29394408569E+02  0.50528789044E+02  0.29999784778E+02 0.  0.
        -12    1    1    2    0    0  0.93151080217E+01  0.26502244113E+02 -0.29394408569E+02  0.40659210956E+02  0.00000000000E+00 0.  1.
         11    1    3    3    0    0 -0.16144845268E+01 -0.54287260873E+01  0.75124931905E+01  0.94082507098E+01  0.51100000000E-03 0. -1.
        -11    1    3    3    0    0 -0.67007346914E+01 -0.26289750741E+02  0.23144684276E+02  0.35661285029E+02  0.51100000000E-03 0.  1.
        -12    1    3    3    0    0 -0.99988880355E+00  0.52162327159E+01 -0.12627688974E+01  0.54592533055E+01  0.00000000000E+00 0.  1.
</event>
<event>
 7    1  0.5487071E-013  0.5052876E+02  0.7816164E-02  0.1300439E+00
        -11   -1    0    0    0    0  0.00000000000E+00  0.00000000000E+00  0.45593999997E+02  0.45594000000E+02  0.51100000000E-03 0.  1.
         11   -1    0    0    0    0 -0.00000000000E+00 -0.00000000000E+00 -0.45593999997E+02  0.45594000000E+02  0.51100000000E-03 0. -1.
    9900012    2    1    2    0    0  0.20176040502E+02  0.25694864025E+02 -0.24204860925E+02  0.50528758246E+02  0.29999691163E+02 0.  0.
        -12    1    1    2    0    0 -0.20176040502E+02 -0.25694864025E+02  0.24204860925E+02  0.40659241754E+02  0.00000000000E+00 0.  1.
         11    1    3    3    0    0  0.10229485903E+02  0.10484664774E+02 -0.23230094259E+01  0.14831282828E+02  0.51100000000E-03 0. -1.
        -11    1    3    3    0    0  0.56502163376E+01  0.29455073977E+00  0.29748874957E+01  0.63923126232E+01  0.51100000000E-03 0.  1.
        -12    1    3    3    0    0  0.42963382610E+01  0.14915648511E+02 -0.24856738995E+02  0.29305162795E+02  0.00000000000E+00 0.  1.
</event>
<event>
 7    1  0.5487071E-013  0.5052888E+02  0.7816164E-02  0.1300439E+00
        -11   -1    0    0    0    0  0.00000000000E+00  0.00000000000E+00  0.45593999997E+02  0.45594000000E+02  0.51100000000E-03 0. -1.
         11   -1    0    0    0    0 -0.00000000000E+00 -0.00000000000E+00 -0.45593999997E+02  0.45594000000E+02  0.51100000000E-03 0.  1.
    9900012    2    1    2    0    0  0.32817869968E+02  0.11126274522E+02  0.21268702194E+02  0.50528877199E+02  0.30000052733E+02 0.  0.
        -12    1    1    2    0    0 -0.32817869968E+02 -0.11126274522E+02 -0.21268702194E+02  0.40659122801E+02  0.00000000000E+00 0.  1.
         11    1    3    3    0    0  0.20028240252E+02  0.12169964780E+02  0.68198038793E+00  0.23445757566E+02  0.51100000000E-03 0. -1.
        -11    1    3    3    0    0  0.13451616761E+01  0.44043445042E+01  0.79340682712E+01  0.91737206214E+01  0.51100000000E-03 0.  1.
        -12    1    3    3    0    0  0.11444468040E+02 -0.54480347622E+01  0.12652653535E+02  0.17909399012E+02  0.00000000000E+00 0.  1.
</event>
<event>
 7    1  0.5487071E-013  0.5052888E+02  0.7816164E-02  0.1300439E+00
        -11   -1    0    0    0    0  0.00000000000E+00  0.00000000000E+00  0.45593999997E+02  0.45594000000E+02  0.51100000000E-03 0. -1.
         11   -1    0    0    0    0 -0.00000000000E+00 -0.00000000000E+00 -0.45593999997E+02  0.45594000000E+02  0.51100000000E-03 0.  1.
    9900012    2    1    2    0    0 -0.19556698297E+00 -0.40532018282E+02  0.32064827211E+01  0.50528876990E+02  0.30000052100E+02 0.  0.
        -12    1    1    2    0    0  0.19556698297E+00  0.40532018282E+02 -0.32064827211E+01  0.40659123010E+02  0.00000000000E+00 0.  1.
         11    1    3    3    0    0  0.99262764286E+00  0.23844234841E+00 -0.21897926880E+01  0.24160622236E+01  0.51100000000E-03 0. -1.
        -11    1    3    3    0    0  0.58240015648E+01 -0.33204616444E+01 -0.52921582180E+01  0.85411590914E+01  0.51100000000E-03 0.  1.
         12    1    3    3    0    0 -0.70121961906E+01 -0.37449998986E+02  0.10688433627E+02  0.39571655675E+02  0.00000000000E+00 0. -1.
</event>
<event>
 7    1  0.5487071E-013  0.5052886E+02  0.7816164E-02  0.1300439E+00
        -11   -1    0    0    0    0  0.00000000000E+00  0.00000000000E+00  0.45593999997E+02  0.45594000000E+02  0.51100000000E-03 0. -1.
         11   -1    0    0    0    0 -0.00000000000E+00 -0.00000000000E+00 -0.45593999997E+02  0.45594000000E+02  0.51100000000E-03 0.  1.
    9900012    2    1    2    0    0 -0.32257052577E+02 -0.74807561609E+01  0.23594196563E+02  0.50528864924E+02  0.30000015422E+02 0.  0.
        -12    1    1    2    0    0  0.32257052577E+02  0.74807561609E+01 -0.23594196563E+02  0.40659135076E+02  0.00000000000E+00 0.  1.
         11    1    3    3    0    0  0.18163385221E+01  0.22740793012E+01 -0.32825740393E+01  0.43870052291E+01  0.51100000000E-03 0. -1.
        -11    1    3    3    0    0 -0.65351508767E+01  0.11729000102E+01  0.82653968045E+00  0.66908190469E+01  0.51100000000E-03 0.  1.
         12    1    3    3    0    0 -0.27538240222E+02 -0.10927735472E+02  0.26050230922E+02  0.39451040648E+02  0.00000000000E+00 0. -1.
</event>
<event>
 7    1 -0.5487071E-013  0.5052896E+02  0.7816164E-02  0.1300438E+00
        -11   -1    0    0    0    0  0.00000000000E+00  0.00000000000E+00  0.45593999997E+02  0.45594000000E+02  0.51100000000E-03 0.  1.
         11   -1    0    0    0    0 -0.00000000000E+00 -0.00000000000E+00 -0.45593999997E+02  0.45594000000E+02  0.51100000000E-03 0. -1.
    9900012    2    1    2    0    0  0.60277766351E+00 -0.18586225170E+02 -0.36157244907E+02  0.50528960830E+02  0.30000306936E+02 0.  0.
        -12    1    1    2    0    0 -0.60277766351E+00  0.18586225170E+02  0.36157244907E+02  0.40659039170E+02  0.00000000000E+00 0.  1.
         11    1    3    3    0    0  0.28418407954E+01 -0.16783680180E+01 -0.40762261325E+01  0.52448639692E+01  0.51100000000E-03 0. -1.
        -11    1    3    3    0    0 -0.29951409065E+01  0.71446965776E+01 -0.97650723901E+01  0.12464918663E+02  0.51100000000E-03 0.  1.
        -12    1    3    3    0    0  0.75607777461E+00 -0.24052553729E+02 -0.22315946385E+02  0.32819178197E+02  0.00000000000E+00 0.  1.
</event>
<event>
 7    1  0.5487071E-013  0.5052886E+02  0.7816164E-02  0.1300439E+00
        -11   -1    0    0    0    0  0.00000000000E+00  0.00000000000E+00  0.45593999997E+02  0.45594000000E+02  0.51100000000E-03 0.  1.
         11   -1    0    0    0    0 -0.00000000000E+00 -0.00000000000E+00 -0.45593999997E+02  0.45594000000E+02  0.51100000000E-03 0. -1.
    9900012    2    1    2    0    0  0.16756893970E+02  0.35332771984E+02 -0.11134051584E+02  0.50528863557E+02  0.30000011269E+02 0.  0.
        -12    1    1    2    0    0 -0.16756893970E+02 -0.35332771984E+02  0.11134051584E+02  0.40659136443E+02  0.00000000000E+00 0.  1.
         11    1    3    3    0    0  0.68264673644E+01  0.19690623468E+02 -0.72141773705E+01  0.22053699568E+02  0.51100000000E-03 0. -1.
        -11    1    3    3    0    0  0.89082209124E+01  0.15662409055E+02  0.56246621222E+01  0.18876023985E+02  0.51100000000E-03 0.  1.
        -12    1    3    3    0    0  0.10222056931E+01 -0.20260538657E-01 -0.95445363358E+01  0.95991400049E+01  0.00000000000E+00 0.  1.
</event>
<event>
 7    1  0.5487071E-013  0.5052878E+02  0.7816164E-02  0.1300439E+00
        -11   -1    0    0    0    0  0.00000000000E+00  0.00000000000E+00  0.45593999997E+02  0.45594000000E+02  0.51100000000E-03 0. -1.
         11   -1    0    0    0    0 -0.00000000000E+00 -0.00000000000E+00 -0.45593999997E+02  0.45594000000E+02  0.51100000000E-03 0.  1.
    9900012    2    1    2    0    0 -0.32883804388E+02 -0.20621546617E+02  0.12106995098E+02  0.50528780797E+02  0.29999759711E+02 0.  0.
        -12    1    1    2    0    0  0.32883804388E+02  0.20621546617E+02 -0.12106995098E+02  0.40659219203E+02  0.00000000000E+00 0.  1.
         11    1    3    3    0    0 -0.13279687490E+02 -0.90267314930E+01  0.21067684478E+01  0.16194766279E+02  0.51100000000E-03 0. -1.
        -11    1    3    3    0    0 -0.29066146114E+01  0.58602654339E+01 -0.26603228136E+01  0.70617587886E+01  0.51100000000E-03 0.  1.
         12    1    3    3    0    0 -0.16697502286E+02 -0.17455080558E+02  0.12660549464E+02  0.27272255730E+02  0.00000000000E+00 0. -1.
</event>
<event>
 7    1  0.5487071E-013  0.5052884E+02  0.7816164E-02  0.1300439E+00
        -11   -1    0    0    0    0  0.00000000000E+00  0.00000000000E+00  0.45593999997E+02  0.45594000000E+02  0.51100000000E-03 0. -1.
         11   -1    0    0    0    0 -0.00000000000E+00 -0.00000000000E+00 -0.45593999997E+02  0.45594000000E+02  0.51100000000E-03 0.  1.
    9900012    2    1    2    0    0 -0.34463887512E+02 -0.12343710051E+02  0.17692959810E+02  0.50528836861E+02  0.29999930124E+02 0.  0.
        -12    1    1    2    0    0  0.34463887512E+02  0.12343710051E+02 -0.17692959810E+02  0.40659163139E+02  0.00000000000E+00 0.  1.
         11    1    3    3    0    0 -0.29757066224E+02 -0.71069155021E+01  0.73457731886E+01  0.31463496662E+02  0.51100000000E-03 0. -1.
        -11    1    3    3    0    0 -0.38925228945E+01 -0.93143603885E+01  0.28455499477E+01  0.10488383989E+02  0.51100000000E-03 0.  1.
         12    1    3    3    0    0 -0.81429839377E+00  0.40775658394E+01  0.75016366738E+01  0.85769562103E+01  0.00000000000E+00 0. -1.
</event>
<event>
 7    1  0.5487071E-013  0.5052886E+02  0.7816164E-02  0.1300439E+00
        -11   -1    0    0    0    0  0.00000000000E+00  0.00000000000E+00  0.45593999997E+02  0.45594000000E+02  0.51100000000E-03 0. -1.
         11   -1    0    0    0    0 -0.00000000000E+00 -0.00000000000E+00 -0.45593999997E+02  0.45594000000E+02  0.51100000000E-03 0.  1.
    9900012    2    1    2    0    0 -0.24492348506E+02  0.88712686309E+01  0.31218446150E+02  0.50528856841E+02  0.29999990853E+02 0.  0.
        -12    1    1    2    0    0  0.24492348506E+02 -0.88712686309E+01 -0.31218446150E+02  0.40659143159E+02  0.00000000000E+00 0.  1.
         11    1    3    3    0    0  0.82832608585E-01 -0.25764042961E+01  0.99492048731E+01  0.10277713666E+02  0.51100000000E-03 0. -1.
        -11    1    3    3    0    0 -0.39116281555E+01 -0.40708516861E+01  0.11151421393E+02  0.12499074671E+02  0.51100000000E-03 0.  1.
        -12    1    3    3    0    0 -0.20663552959E+02  0.15518524613E+02  0.10117819884E+02  0.27752068504E+02  0.00000000000E+00 0.  1.
</event>
<event>
 7    1  0.5487071E-013  0.5052886E+02  0.7816164E-02  0.1300439E+00
        -11   -1    0    0    0    0  0.00000000000E+00  0.00000000000E+00  0.45593999997E+02  0.45594000000E+02  0.51100000000E-03 0.  1.
         11   -1    0    0    0    0 -0.00000000000E+00 -0.00000000000E+00 -0.45593999997E+02  0.45594000000E+02  0.51100000000E-03 0. -1.
    9900012    2    1    2    0    0  0.39969481224E+02 -0.29858044088E+01  0.68331067009E+01  0.50528858292E+02  0.29999995264E+02 0.  0.
        -12    1    1    2    0    0 -0.39969481224E+02  0.29858044088E+01 -0.68331067009E+01  0.40659141708E+02  0.00000000000E+00 0.  1.
         11    1    3    3    0    0  0.29059599063E+02 -0.32393089858E+01  0.21496743171E+01  0.29318501331E+02  0.51100000000E-03 0. -1.
        -11    1    3    3    0    0  0.13897221345E+02 -0.45181126874E+01  0.13682381964E+01  0.14677131171E+02  0.51100000000E-03 0.  1.
        -12    1    3    3    0    0 -0.29873391845E+01  0.47716172644E+01  0.33151941873E+01  0.65332257899E+01  0.00000000000E+00 0.  1.
</event>
<event>
 7    1  0.5487071E-013  0.5052886E+02  0.7816164E-02  0.1300439E+00
        -11   -1    0    0    0    0  0.00000000000E+00  0.00000000000E+00  0.45593999997E+02  0.45594000000E+02  0.51100000000E-03 0.  1.
         11   -1    0    0    0    0 -0.00000000000E+00 -0.00000000000E+00 -0.45593999997E+02  0.45594000000E+02  0.51100000000E-03 0. -1.
    9900012    2    1    2    0    0  0.26746863071E+02 -0.25193829755E+02 -0.17408101037E+02  0.50528859286E+02  0.29999998287E+02 0.  0.
        -12    1    1    2    0    0 -0.26746863071E+02  0.25193829755E+02  0.17408101037E+02  0.40659140714E+02  0.00000000000E+00 0.  1.
         11    1    3    3    0    0  0.51434351050E+01 -0.37044497334E+01 -0.79148401867E+01  0.10140146348E+02  0.51100000000E-03 0. -1.
        -11    1    3    3    0    0  0.23098965503E+02 -0.87801898273E+01 -0.44380508268E+00  0.24715398114E+02  0.51100000000E-03 0.  1.
         12    1    3    3    0    0 -0.14955375368E+01 -0.12709190195E+02 -0.90494557672E+01  0.15673314825E+02  0.00000000000E+00 0. -1.
</event>
<event>
 7    1  0.5487071E-013  0.5052891E+02  0.7816164E-02  0.1300439E+00
        -11   -1    0    0    0    0  0.00000000000E+00  0.00000000000E+00  0.45593999997E+02  0.45594000000E+02  0.51100000000E-03 0.  1.
         11   -1    0    0    0    0 -0.00000000000E+00 -0.00000000000E+00 -0.45593999997E+02  0.45594000000E+02  0.51100000000E-03 0. -1.
    9900012    2    1    2    0    0  0.27224763541E+02  0.57898394390E+01 -0.29638685824E+02  0.50528908914E+02  0.30000149134E+02 0.  0.
        -12    1    1    2    0    0 -0.27224763541E+02 -0.57898394390E+01  0.29638685824E+02  0.40659091086E+02  0.00000000000E+00 0.  1.
         11    1    3    3    0    0  0.10765540166E+02 -0.67449879661E+01 -0.10437018215E+02  0.16441504408E+02  0.51100000000E-03 0. -1.
        -11    1    3    3    0    0  0.20234890265E+02  0.69767395870E+01 -0.15388854395E+02  0.26361762444E+02  0.51100000000E-03 0.  1.
        -12    1    3    3    0    0 -0.37756668898E+01  0.55580878180E+01 -0.38128132146E+01  0.77256420617E+01  0.00000000000E+00 0.  1.
</event>
<event>
 7    1  0.5487071E-013  0.5052886E+02  0.7816164E-02  0.1300439E+00
        -11   -1    0    0    0    0  0.00000000000E+00  0.00000000000E+00  0.45593999997E+02  0.45594000000E+02  0.51100000000E-03 0. -1.
         11   -1    0    0    0    0 -0.00000000000E+00 -0.00000000000E+00 -0.45593999997E+02  0.45594000000E+02  0.51100000000E-03 0.  1.
    9900012    2    1    2    0    0 -0.19819863022E+02 -0.34668463473E+02 -0.76443710860E+01  0.50528859095E+02  0.29999997706E+02 0.  0.
        -12    1    1    2    0    0  0.19819863022E+02  0.34668463473E+02  0.76443710860E+01  0.40659140905E+02  0.00000000000E+00 0.  1.
         11    1    3    3    0    0 -0.12856216319E+02 -0.80272591781E+01  0.60618339963E+01  0.16323756296E+02  0.51100000000E-03 0. -1.
        -11    1    3    3    0    0  0.85473076865E+00  0.74966811693E+00  0.15262633871E+01  0.19031676648E+01  0.51100000000E-03 0.  1.
        -12    1    3    3    0    0 -0.78183774724E+01 -0.27390872412E+02 -0.15232468469E+02  0.32301935135E+02  0.00000000000E+00 0.  1.
</event>
<event>
 7    1  0.5487071E-013  0.5052887E+02  0.7816164E-02  0.1300439E+00
        -11   -1    0    0    0    0  0.00000000000E+00  0.00000000000E+00  0.45593999997E+02  0.45594000000E+02  0.51100000000E-03 0.  1.
         11   -1    0    0    0    0 -0.00000000000E+00 -0.00000000000E+00 -0.45593999997E+02  0.45594000000E+02  0.51100000000E-03 0. -1.
    9900012    2    1    2    0    0 -0.27386337555E+02 -0.13291076342E+02 -0.26953679697E+02  0.50528867640E+02  0.30000023680E+02 0.  0.
        -12    1    1    2    0    0  0.27386337555E+02  0.13291076342E+02  0.26953679697E+02  0.40659132360E+02  0.00000000000E+00 0.  1.
         11    1    3    3    0    0 -0.24900191606E+01 -0.42198994650E+01 -0.14850043003E+02  0.15637503777E+02  0.51100000000E-03 0. -1.
        -11    1    3    3    0    0 -0.15149139287E+02  0.40095243103E+01 -0.96266298686E+01  0.18391430320E+02  0.51100000000E-03 0.  1.
        -12    1    3    3    0    0 -0.97471791073E+01 -0.13080701188E+02 -0.24770068252E+01  0.16499933543E+02  0.00000000000E+00 0.  1.
</event>
<event>
 7    1  0.5487071E-013  0.5052886E+02  0.7816164E-02  0.1300439E+00
        -11   -1    0    0    0    0  0.00000000000E+00  0.00000000000E+00  0.45593999997E+02  0.45594000000E+02  0.51100000000E-03 0.  1.
         11   -1    0    0    0    0 -0.00000000000E+00 -0.00000000000E+00 -0.45593999997E+02  0.45594000000E+02  0.51100000000E-03 0. -1.
    9900012    2    1    2    0    0  0.34007173921E+02  0.22116842446E+02  0.27428318172E+01  0.50528859278E+02  0.29999998261E+02 0.  0.
        -12    1    1    2    0    0 -0.34007173921E+02 -0.22116842446E+02 -0.27428318172E+01  0.40659140722E+02  0.00000000000E+00 0.  1.
         11    1    3    3    0    0 -0.37397428597E+00  0.50615115496E+01  0.10487213385E+01  0.51825257009E+01  0.51100000000E-03 0. -1.
        -11    1    3    3    0    0  0.10358861534E+02  0.93925452236E+01  0.11686598385E+02  0.18223679653E+02  0.51100000000E-03 0.  1.
         12    1    3    3    0    0  0.24022286674E+02  0.76627856727E+01 -0.99924879058E+01  0.27122653923E+02  0.00000000000E+00 0. -1.
</event>
<event>
 7    1  0.5487071E-013  0.5052886E+02  0.7816164E-02  0.1300439E+00
        -11   -1    0    0    0    0  0.00000000000E+00  0.00000000000E+00  0.45593999997E+02  0.45594000000E+02  0.51100000000E-03 0.  1.
         11   -1    0    0    0    0 -0.00000000000E+00 -0.00000000000E+00 -0.45593999997E+02  0.45594000000E+02  0.51100000000E-03 0. -1.
    9900012    2    1    2    0    0  0.75369892138E+01  0.16471994612E+02 -0.36401002914E+02  0.50528858026E+02  0.29999994457E+02 0.  0.
        -12    1    1    2    0    0 -0.75369892138E+01 -0.16471994612E+02  0.36401002914E+02  0.40659141974E+02  0.00000000000E+00 0.  1.
         11    1    3    3    0    0 -0.54951499540E+01  0.68405312459E+01 -0.37110263680E+01  0.95268702997E+01  0.51100000000E-03 0. -1.
        -11    1    3    3    0    0  0.16327428020E+01  0.10514520558E+01  0.24205401136E+01  0.31032910250E+01  0.51100000000E-03 0.  1.
         12    1    3    3    0    0  0.11399396366E+02  0.85800113102E+01 -0.35110516659E+02  0.37898696702E+02  0.00000000000E+00 0. -1.
</event>
<event>
 7    1  0.5487071E-013  0.5052886E+02  0.7816164E-02  0.1300439E+00
        -11   -1    0    0    0    0  0.00000000000E+00  0.00000000000E+00  0.45593999997E+02  0.45594000000E+02  0.51100000000E-03 0.  1.
         11   -1    0    0    0    0 -0.00000000000E+00 -0.00000000000E+00 -0.45593999997E+02  0.45594000000E+02  0.51100000000E-03 0. -1.
    9900012    2    1    2    0    0  0.35569967299E+02  0.12067760964E+02  0.15566370499E+02  0.50528864264E+02  0.30000013416E+02 0.  0.
        -12    1    1    2    0    0 -0.35569967299E+02 -0.12067760964E+02 -0.15566370499E+02  0.40659135736E+02  0.00000000000E+00 0.  1.
         11    1    3    3    0    0  0.17268225246E+02 -0.23701899174E+01  0.87413659989E+01  0.19499253401E+02  0.51100000000E-03 0. -1.
        -11    1    3    3    0    0  0.16577125292E+02  0.12561528820E+01  0.14422912959E+01  0.16687097035E+02  0.51100000000E-03 0.  1.
        -12    1    3    3    0    0  0.17246167604E+01  0.13181798000E+02  0.53827132039E+01  0.14342513828E+02  0.00000000000E+00 0.  1.
</event>
<event>
 7    1  0.5487071E-013  0.5052886E+02  0.7816164E-02  0.1300439E+00
        -11   -1    0    0    0    0  0.00000000000E+00  0.00000000000E+00  0.45593999997E+02  0.45594000000E+02  0.51100000000E-03 0. -1.
         11   -1    0    0    0    0 -0.00000000000E+00 -0.00000000000E+00 -0.45593999997E+02  0.45594000000E+02  0.51100000000E-03 0.  1.
    9900012    2    1    2    0    0  0.33258302577E+02 -0.23248596022E+02 -0.25600728604E+01  0.50528857358E+02  0.29999992427E+02 0.  0.
        -12    1    1    2    0    0 -0.33258302577E+02  0.23248596022E+02  0.25600728604E+01  0.40659142642E+02  0.00000000000E+00 0.  1.
         11    1    3    3    0    0  0.30464318837E+01 -0.37005363080E+00 -0.35996493499E+01  0.47302391710E+01  0.51100000000E-03 0. -1.
        -11    1    3    3    0    0  0.31062007133E+02 -0.10204829237E+02 -0.19357270843E+01  0.32752616178E+02  0.51100000000E-03 0.  1.
         12    1    3    3    0    0 -0.85013643982E+00 -0.12673713154E+02  0.29753035738E+01  0.13046002009E+02  0.00000000000E+00 0. -1.
</event>
<event>
 7    1  0.5487071E-013  0.5052886E+02  0.7816164E-02  0.1300439E+00
        -11   -1    0    0    0    0  0.00000000000E+00  0.00000000000E+00  0.45593999997E+02  0.45594000000E+02  0.51100000000E-03 0.  1.
         11   -1    0    0    0    0 -0.00000000000E+00 -0.00000000000E+00 -0.45593999997E+02  0.45594000000E+02  0.51100000000E-03 0. -1.
    9900012    2    1    2    0    0 -0.17720113069E+02 -0.87247536490E+01 -0.35539296642E+02  0.50528864013E+02  0.30000012653E+02 0.  0.
        -12    1    1    2    0    0  0.17720113069E+02  0.87247536490E+01  0.35539296642E+02  0.40659135987E+02  0.00000000000E+00 0.  1.
         11    1    3    3    0    0 -0.44716102326E+01 -0.79194383248E+01  0.29445163354E+01  0.95594444484E+01  0.51100000000E-03 0.  1.
        -11    1    3    3    0    0  0.63531506898E-01 -0.70062044220E+00 -0.13657248223E+01  0.15362648885E+01  0.51100000000E-03 0. -1.
        -12    1    3    3    0    0 -0.13312034343E+02 -0.10469488204E+00 -0.37118088155E+02  0.39433154676E+02  0.00000000000E+00 0.  1.
</event>
<event>
 7    1  0.5487071E-013  0.5052884E+02  0.7816164E-02  0.1300439E+00
        -11   -1    0    0    0    0  0.00000000000E+00  0.00000000000E+00  0.45593999997E+02  0.45594000000E+02  0.51100000000E-03 0.  1.
         11   -1    0    0    0    0 -0.00000000000E+00 -0.00000000000E+00 -0.45593999997E+02  0.45594000000E+02  0.51100000000E-03 0. -1.
    9900012    2    1    2    0    0 -0.19834901765E+02 -0.32380558046E+02 -0.14534216296E+02  0.50528839768E+02  0.29999938958E+02 0.  0.
        -12    1    1    2    0    0  0.19834901765E+02  0.32380558046E+02  0.14534216296E+02  0.40659160232E+02  0.00000000000E+00 0.  1.
         11    1    3    3    0    0  0.35202460879E+00 -0.54700735573E+01 -0.13440287682E+01  0.56437611252E+01  0.51100000000E-03 0. -1.
        -11    1    3    3    0    0 -0.78072754538E+01 -0.27937664172E+02 -0.36801891181E+01  0.29240561240E+02  0.51100000000E-03 0.  1.
         12    1    3    3    0    0 -0.12379650920E+02  0.10271796833E+01 -0.95099984096E+01  0.15644517403E+02  0.00000000000E+00 0. -1.
</event>
<event>
 7    1  0.5487071E-013  0.5052886E+02  0.7816164E-02  0.1300439E+00
        -11   -1    0    0    0    0  0.00000000000E+00  0.00000000000E+00  0.45593999997E+02  0.45594000000E+02  0.51100000000E-03 0.  1.
         11   -1    0    0    0    0 -0.00000000000E+00 -0.00000000000E+00 -0.45593999997E+02  0.45594000000E+02  0.51100000000E-03 0. -1.
    9900012    2    1    2    0    0 -0.21607648226E+02  0.17039102402E+02 -0.29932324409E+02  0.50528861826E+02  0.30000006005E+02 0.  0.
        -12    1    1    2    0    0  0.21607648226E+02 -0.17039102402E+02  0.29932324409E+02  0.40659138174E+02  0.00000000000E+00 0.  1.
         11    1    3    3    0    0 -0.97648933791E+01  0.62170096014E+01 -0.11405503610E+02  0.16250841946E+02  0.51100000000E-03 0. -1.
        -11    1    3    3    0    0 -0.17942197544E+02  0.12271879124E+02 -0.10636886198E+02  0.24200512767E+02  0.51100000000E-03 0.  1.
        -12    1    3    3    0    0  0.60994426969E+01 -0.14497863232E+01 -0.78899346015E+01  0.10077507113E+02  0.00000000000E+00 0.  1.
</event>
<event>
 7    1  0.5487071E-013  0.5052885E+02  0.7816164E-02  0.1300439E+00
        -11   -1    0    0    0    0  0.00000000000E+00  0.00000000000E+00  0.45593999997E+02  0.45594000000E+02  0.51100000000E-03 0.  1.
         11   -1    0    0    0    0 -0.00000000000E+00 -0.00000000000E+00 -0.45593999997E+02  0.45594000000E+02  0.51100000000E-03 0. -1.
    9900012    2    1    2    0    0 -0.32522528331E+02  0.12650444680E+02 -0.20866670161E+02  0.50528849452E+02  0.29999968395E+02 0.  0.
        -12    1    1    2    0    0  0.32522528331E+02 -0.12650444680E+02  0.20866670161E+02  0.40659150548E+02  0.00000000000E+00 0.  1.
         11    1    3    3    0    0  0.18325603020E+01 -0.18118711638E+01  0.39806540402E+01  0.47420207954E+01  0.51100000000E-03 0. -1.
        -11    1    3    3    0    0 -0.32092277048E+01 -0.90644699101E-01 -0.54191240257E+01  0.62987510182E+01  0.51100000000E-03 0.  1.
        -12    1    3    3    0    0 -0.31145860928E+02  0.14552960543E+02 -0.19428200176E+02  0.39488077639E+02  0.00000000000E+00 0.  1.
</event>
<event>
 7    1  0.5487071E-013  0.5052888E+02  0.7816164E-02  0.1300439E+00
        -11   -1    0    0    0    0  0.00000000000E+00  0.00000000000E+00  0.45593999997E+02  0.45594000000E+02  0.51100000000E-03 0.  1.
         11   -1    0    0    0    0 -0.00000000000E+00 -0.00000000000E+00 -0.45593999997E+02  0.45594000000E+02  0.51100000000E-03 0. -1.
    9900012    2    1    2    0    0 -0.10485166074E+02  0.88133569509E+01 -0.38282508044E+02  0.50528875680E+02  0.30000048118E+02 0.  0.
        -12    1    1    2    0    0  0.10485166074E+02 -0.88133569509E+01  0.38282508044E+02  0.40659124320E+02  0.00000000000E+00 0.  1.
         11    1    3    3    0    0 -0.13432219933E+01 -0.30030390656E+01 -0.39385282404E+00  0.33132475399E+01  0.51100000000E-03 0. -1.
        -11    1    3    3    0    0  0.76886943550E+01  0.14217200788E+01 -0.67752432035E+01  0.10346073149E+02  0.51100000000E-03 0.  1.
         12    1    3    3    0    0 -0.16830638436E+02  0.10394675938E+02 -0.31113412016E+02  0.36869554992E+02  0.00000000000E+00 0. -1.
</event>
<event>
 7    1  0.5487071E-013  0.5052886E+02  0.7816164E-02  0.1300439E+00
        -11   -1    0    0    0    0  0.00000000000E+00  0.00000000000E+00  0.45593999997E+02  0.45594000000E+02  0.51100000000E-03 0. -1.
         11   -1    0    0    0    0 -0.00000000000E+00 -0.00000000000E+00 -0.45593999997E+02  0.45594000000E+02  0.51100000000E-03 0.  1.
    9900012    2    1    2    0    0  0.29772337125E+02  0.21436623556E+02  0.17528407110E+02  0.50528856586E+02  0.29999990078E+02 0.  0.
        -12    1    1    2    0    0 -0.29772337125E+02 -0.21436623556E+02 -0.17528407110E+02  0.40659143414E+02  0.00000000000E+00 0.  1.
         11    1    3    3    0    0  0.72887576098E+00 -0.42139141809E+01  0.26176329167E+01  0.50140138558E+01  0.51100000000E-03 0. -1.
        -11    1    3    3    0    0  0.11134819308E+02  0.74295728747E+01 -0.37218299301E+01  0.13893695419E+02  0.51100000000E-03 0.  1.
         12    1    3    3    0    0  0.17908642056E+02  0.18220964862E+02  0.18632604123E+02  0.31621147310E+02  0.00000000000E+00 0. -1.
</event>
<event>
 7    1  0.5487071E-013  0.5052886E+02  0.7816164E-02  0.1300439E+00
        -11   -1    0    0    0    0  0.00000000000E+00  0.00000000000E+00  0.45593999997E+02  0.45594000000E+02  0.51100000000E-03 0.  1.
         11   -1    0    0    0    0 -0.00000000000E+00 -0.00000000000E+00 -0.45593999997E+02  0.45594000000E+02  0.51100000000E-03 0. -1.
    9900012    2    1    2    0    0 -0.18328854945E+02  0.21321639335E+02 -0.29370164382E+02  0.50528858551E+02  0.29999996051E+02 0.  0.
        -12    1    1    2    0    0  0.18328854945E+02 -0.21321639335E+02  0.29370164382E+02  0.40659141449E+02  0.00000000000E+00 0.  1.
         11    1    3    3    0    0 -0.72249380041E+01 -0.33706035046E+01 -0.23243076479E+01  0.83044026547E+01  0.51100000000E-03 0. -1.
        -11    1    3    3    0    0 -0.10305695580E+02  0.31086527612E+01 -0.10253439003E+02  0.14866206477E+02  0.51100000000E-03 0.  1.
         12    1    3    3    0    0 -0.79822136165E+00  0.21583590078E+02 -0.16792417732E+02  0.27358249419E+02  0.00000000000E+00 0. -1.
</event>
<event>
 7    1  0.5487071E-013  0.5052885E+02  0.7816164E-02  0.1300439E+00
        -11   -1    0    0    0    0  0.00000000000E+00  0.00000000000E+00  0.45593999997E+02  0.45594000000E+02  0.51100000000E-03 0.  1.
         11   -1    0    0    0    0 -0.00000000000E+00 -0.00000000000E+00 -0.45593999997E+02  0.45594000000E+02  0.51100000000E-03 0. -1.
    9900012    2    1    2    0    0  0.22809312425E+02  0.17004398689E+02 -0.29047405592E+02  0.50528854907E+02  0.29999984975E+02 0.  0.
        -12    1    1    2    0    0 -0.22809312425E+02 -0.17004398689E+02  0.29047405592E+02  0.40659145093E+02  0.00000000000E+00 0.  1.
         11    1    3    3    0    0  0.13763403395E+02  0.10823485077E+02 -0.57394807311E+01  0.18426088612E+02  0.51100000000E-03 0. -1.
        -11    1    3    3    0    0  0.65484612307E+01  0.66977393535E+01 -0.74553797406E+00  0.93966953802E+01  0.51100000000E-03 0.  1.
        -12    1    3    3    0    0  0.24974477997E+01 -0.51682574143E+00 -0.22562386887E+02  0.22706070915E+02  0.00000000000E+00 0.  1.
</event>
<event>
 7    1  0.5487071E-013  0.5052886E+02  0.7816164E-02  0.1300439E+00
        -11   -1    0    0    0    0  0.00000000000E+00  0.00000000000E+00  0.45593999997E+02  0.45594000000E+02  0.51100000000E-03 0. -1.
         11   -1    0    0    0    0 -0.00000000000E+00 -0.00000000000E+00 -0.45593999997E+02  0.45594000000E+02  0.51100000000E-03 0.  1.
    9900012    2    1    2    0    0 -0.27603244215E+02 -0.11455599937E+02  0.27568025820E+02  0.50528857010E+02  0.29999991368E+02 0.  0.
        -12    1    1    2    0    0  0.27603244215E+02  0.11455599937E+02 -0.27568025820E+02  0.40659142990E+02  0.00000000000E+00 0.  1.
         11    1    3    3    0    0 -0.19855517291E+02 -0.29511805717E+01  0.21577396479E+02  0.29470919102E+02  0.51100000000E-03 0. -1.
        -11    1    3    3    0    0  0.33459143835E+01 -0.12863536436E+00  0.63215130730E+01  0.71535458279E+01  0.51100000000E-03 0.  1.
        -12    1    3    3    0    0 -0.11093641307E+02 -0.83757840007E+01 -0.33088373204E+00  0.13904392080E+02  0.00000000000E+00 0.  1.
</event>
<event>
 7    1  0.5487071E-013  0.5052885E+02  0.7816164E-02  0.1300439E+00
        -11   -1    0    0    0    0  0.00000000000E+00  0.00000000000E+00  0.45593999997E+02  0.45594000000E+02  0.51100000000E-03 0.  1.
         11   -1    0    0    0    0 -0.00000000000E+00 -0.00000000000E+00 -0.45593999997E+02  0.45594000000E+02  0.51100000000E-03 0. -1.
    9900012    2    1    2    0    0 -0.34228149599E+02  0.15267265185E+02  0.15764227508E+02  0.50528849983E+02  0.29999970008E+02 0.  0.
        -12    1    1    2    0    0  0.34228149599E+02 -0.15267265185E+02 -0.15764227508E+02  0.40659150017E+02  0.00000000000E+00 0.  1.
         11    1    3    3    0    0 -0.19511735286E+01  0.29742453200E+01 -0.20797629360E+01  0.41205130134E+01  0.51100000000E-03 0. -1.
        -11    1    3    3    0    0  0.41597431875E+01  0.17398721715E+01  0.39982010372E+01  0.60262949110E+01  0.51100000000E-03 0.  1.
         12    1    3    3    0    0 -0.36436719258E+02  0.10553147693E+02  0.13845789407E+02  0.40382042058E+02  0.00000000000E+00 0. -1.
</event>
<event>
 7    1  0.5487071E-013  0.5052886E+02  0.7816164E-02  0.1300439E+00
        -11   -1    0    0    0    0  0.00000000000E+00  0.00000000000E+00  0.45593999997E+02  0.45594000000E+02  0.51100000000E-03 0.  1.
         11   -1    0    0    0    0 -0.00000000000E+00 -0.00000000000E+00 -0.45593999997E+02  0.45594000000E+02  0.51100000000E-03 0. -1.
    9900012    2    1    2    0    0  0.21523435594E+02  0.33279026159E+02 -0.90782259540E+01  0.50528855293E+02  0.29999986149E+02 0.  0.
        -12    1    1    2    0    0 -0.21523435594E+02 -0.33279026159E+02  0.90782259540E+01  0.40659144707E+02  0.00000000000E+00 0.  1.
         11    1    3    3    0    0  0.10103720487E+02 -0.15291973035E+01 -0.73409109590E+01  0.12582232951E+02  0.51100000000E-03 0. -1.
        -11    1    3    3    0    0  0.91109716755E+01  0.16433271217E+02  0.24804763720E+01  0.18952967342E+02  0.51100000000E-03 0.  1.
        -12    1    3    3    0    0  0.23087434312E+01  0.18374952245E+02 -0.42177913670E+01  0.18993655000E+02  0.00000000000E+00 0.  1.
</event>
<event>
 7    1  0.5487071E-013  0.5052886E+02  0.7816164E-02  0.1300439E+00
        -11   -1    0    0    0    0  0.00000000000E+00  0.00000000000E+00  0.45593999997E+02  0.45594000000E+02  0.51100000000E-03 0.  1.
         11   -1    0    0    0    0 -0.00000000000E+00 -0.00000000000E+00 -0.45593999997E+02  0.45594000000E+02  0.51100000000E-03 0. -1.
    9900012    2    1    2    0    0 -0.22371140622E+02  0.31804619002E+01 -0.33802110885E+02  0.50528856245E+02  0.29999989041E+02 0.  0.
        -12    1    1    2    0    0  0.22371140622E+02 -0.31804619002E+01  0.33802110885E+02  0.40659143755E+02  0.00000000000E+00 0.  1.
         11    1    3    3    0    0 -0.26684728613E+01  0.64573719089E-01 -0.20576254725E+02  0.20748666847E+02  0.51100000000E-03 0. -1.
        -11    1    3    3    0    0 -0.11609183310E+02  0.33921950659E+01 -0.16985715675E+02  0.20851730426E+02  0.51100000000E-03 0.  1.
        -12    1    3    3    0    0 -0.80934844500E+01 -0.27630688480E+00  0.37598595145E+01  0.89284589715E+01  0.00000000000E+00 0.  1.
</event>
<event>
 7    1  0.5487071E-013  0.5052881E+02  0.7816164E-02  0.1300439E+00
        -11   -1    0    0    0    0  0.00000000000E+00  0.00000000000E+00  0.45593999997E+02  0.45594000000E+02  0.51100000000E-03 0. -1.
         11   -1    0    0    0    0 -0.00000000000E+00 -0.00000000000E+00 -0.45593999997E+02  0.45594000000E+02  0.51100000000E-03 0.  1.
    9900012    2    1    2    0    0 -0.39736969143E+02 -0.81823457216E+01 -0.26818573039E+01  0.50528808458E+02  0.29999843790E+02 0.  0.
        -12    1    1    2    0    0  0.39736969143E+02  0.81823457216E+01  0.26818573039E+01  0.40659191542E+02  0.00000000000E+00 0.  1.
         11    1    3    3    0    0 -0.16641505114E+01 -0.58243324556E+01  0.20105820328E+01  0.63823730579E+01  0.51100000000E-03 0. -1.
        -11    1    3    3    0    0 -0.40150912035E+02 -0.50183510427E+01 -0.37230511546E+01  0.40634230577E+02  0.51100000000E-03 0.  1.
         12    1    3    3    0    0  0.20780934027E+01  0.26603377767E+01 -0.96938818216E+00  0.35122048238E+01  0.00000000000E+00 0. -1.
</event>
<event>
 7    1  0.5487071E-013  0.5052887E+02  0.7816164E-02  0.1300439E+00
        -11   -1    0    0    0    0  0.00000000000E+00  0.00000000000E+00  0.45593999997E+02  0.45594000000E+02  0.51100000000E-03 0.  1.
         11   -1    0    0    0    0 -0.00000000000E+00 -0.00000000000E+00 -0.45593999997E+02  0.45594000000E+02  0.51100000000E-03 0. -1.
    9900012    2    1    2    0    0  0.31412390492E+02 -0.25799417588E+02 -0.90363248087E+00  0.50528870939E+02  0.30000033707E+02 0.  0.
        -12    1    1    2    0    0 -0.31412390492E+02  0.25799417588E+02  0.90363248087E+00  0.40659129061E+02  0.00000000000E+00 0.  1.
         11    1    3    3    0    0  0.85041162605E+01 -0.93380137732E+01  0.45201437172E+00  0.12638149068E+02  0.51100000000E-03 0. -1.
        -11    1    3    3    0    0 -0.16513975091E+01 -0.62000563550E+01 -0.81959160307E+01  0.10408691194E+02  0.51100000000E-03 0.  1.
         12    1    3    3    0    0  0.24559671741E+02 -0.10261347460E+02  0.68402691781E+01  0.27482030677E+02  0.00000000000E+00 0. -1.
</event>
<event>
 7    1  0.5487071E-013  0.5052884E+02  0.7816164E-02  0.1300439E+00
        -11   -1    0    0    0    0  0.00000000000E+00  0.00000000000E+00  0.45593999997E+02  0.45594000000E+02  0.51100000000E-03 0.  1.
         11   -1    0    0    0    0 -0.00000000000E+00 -0.00000000000E+00 -0.45593999997E+02  0.45594000000E+02  0.51100000000E-03 0. -1.
    9900012    2    1    2    0    0  0.88731410647E+01  0.30968736008E+02 -0.24806693738E+02  0.50528839944E+02  0.29999939493E+02 0.  0.
        -12    1    1    2    0    0 -0.88731410647E+01 -0.30968736008E+02  0.24806693738E+02  0.40659160056E+02  0.00000000000E+00 0.  1.
         11    1    3    3    0    0  0.10940838906E+02  0.12637803089E+02 -0.14659811493E+02  0.22233445441E+02  0.51100000000E-03 0. -1.
        -11    1    3    3    0    0  0.80624335190E+01  0.11659634944E+02 -0.67403986976E+01  0.15696588678E+02  0.51100000000E-03 0.  1.
         12    1    3    3    0    0 -0.10130131360E+02  0.66712979746E+01 -0.34064835475E+01  0.12598805825E+02  0.00000000000E+00 0. -1.
</event>
<event>
 7    1  0.5487071E-013  0.5052885E+02  0.7816164E-02  0.1300439E+00
        -11   -1    0    0    0    0  0.00000000000E+00  0.00000000000E+00  0.45593999997E+02  0.45594000000E+02  0.51100000000E-03 0.  1.
         11   -1    0    0    0    0 -0.00000000000E+00 -0.00000000000E+00 -0.45593999997E+02  0.45594000000E+02  0.51100000000E-03 0. -1.
    9900012    2    1    2    0    0  0.83468660270E+01 -0.29117000394E+01 -0.39686499698E+02  0.50528850625E+02  0.29999971960E+02 0.  0.
        -12    1    1    2    0    0 -0.83468660270E+01  0.29117000394E+01  0.39686499698E+02  0.40659149375E+02  0.00000000000E+00 0.  1.
         11    1    3    3    0    0 -0.94275086964E+01 -0.19052975141E+01 -0.11507138993E+02  0.14997410674E+02  0.51100000000E-03 0. -1.
        -11    1    3    3    0    0 -0.79318868604E+00 -0.23719728998E+01 -0.12583250457E+01  0.27997831899E+01  0.51100000000E-03 0.  1.
        -12    1    3    3    0    0  0.18567563409E+02  0.13655703745E+01 -0.26921035659E+02  0.32731656762E+02  0.00000000000E+00 0.  1.
</event>
<event>
 7    1  0.5487071E-013  0.5052887E+02  0.7816164E-02  0.1300439E+00
        -11   -1    0    0    0    0  0.00000000000E+00  0.00000000000E+00  0.45593999997E+02  0.45594000000E+02  0.51100000000E-03 0. -1.
         11   -1    0    0    0    0 -0.00000000000E+00 -0.00000000000E+00 -0.45593999997E+02  0.45594000000E+02  0.51100000000E-03 0.  1.
    9900012    2    1    2    0    0 -0.14070751903E+02 -0.28676126128E+02  0.25156684324E+02  0.50528867754E+02  0.30000024026E+02 0.  0.
        -12    1    1    2    0    0  0.14070751903E+02  0.28676126128E+02 -0.25156684324E+02  0.40659132246E+02  0.00000000000E+00 0.  1.
         11    1    3    3    0    0 -0.12765108364E+02 -0.11162486197E+02  0.17637001854E+02  0.24466567481E+02  0.51100000000E-03 0. -1.
        -11    1    3    3    0    0 -0.20624200867E+01 -0.21063347188E+02  0.74342522873E+01  0.22431813986E+02  0.51100000000E-03 0.  1.
        -12    1    3    3    0    0  0.75677654714E+00  0.35497072581E+01  0.85430182199E-01  0.36304862865E+01  0.00000000000E+00 0.  1.
</event>
<event>
 7    1  0.5487071E-013  0.5052886E+02  0.7816164E-02  0.1300439E+00
        -11   -1    0    0    0    0  0.00000000000E+00  0.00000000000E+00  0.45593999997E+02  0.45594000000E+02  0.51100000000E-03 0.  1.
         11   -1    0    0    0    0 -0.00000000000E+00 -0.00000000000E+00 -0.45593999997E+02  0.45594000000E+02  0.51100000000E-03 0. -1.
    9900012    2    1    2    0    0  0.31282160904E+02  0.20704178415E-01 -0.25972896836E+02  0.50528863394E+02  0.30000010773E+02 0.  0.
        -12    1    1    2    0    0 -0.31282160904E+02 -0.20704178415E-01  0.25972896836E+02  0.40659136606E+02  0.00000000000E+00 0.  1.
         11    1    3    3    0    0  0.88073656225E+01  0.84897367076E+01 -0.85375568660E+01  0.14917613619E+02  0.51100000000E-03 0. -1.
        -11    1    3    3    0    0 -0.21290115629E+01 -0.33404208332E+01 -0.76995845147E+01  0.86587934228E+01  0.51100000000E-03 0.  1.
         12    1    3    3    0    0  0.24603806844E+02 -0.51286116960E+01 -0.97357554554E+01  0.26952456353E+02  0.00000000000E+00 0. -1.
</event>
<event>
 7    1  0.5487071E-013  0.5052886E+02  0.7816164E-02  0.1300439E+00
        -11   -1    0    0    0    0  0.00000000000E+00  0.00000000000E+00  0.45593999997E+02  0.45594000000E+02  0.51100000000E-03 0. -1.
         11   -1    0    0    0    0 -0.00000000000E+00 -0.00000000000E+00 -0.45593999997E+02  0.45594000000E+02  0.51100000000E-03 0.  1.
    9900012    2    1    2    0    0 -0.14218462858E+02 -0.12106104928E+02  0.36117076274E+02  0.50528860054E+02  0.30000000620E+02 0.  0.
        -12    1    1    2    0    0  0.14218462858E+02  0.12106104928E+02 -0.36117076274E+02  0.40659139946E+02  0.00000000000E+00 0.  1.
         11    1    3    3    0    0 -0.19664780790E+02 -0.39454127020E+01  0.26455350282E+02  0.33198726538E+02  0.51100000000E-03 0.  1.
        -11    1    3    3    0    0  0.55367214425E+01  0.28353661617E+00  0.58669502244E+01  0.80719751326E+01  0.51100000000E-03 0. -1.
        -12    1    3    3    0    0 -0.90403510735E-01 -0.84442288423E+01  0.37947757669E+01  0.92581583837E+01  0.00000000000E+00 0.  1.
</event>
<event>
 7    1  0.5487071E-013  0.5052886E+02  0.7816164E-02  0.1300439E+00
        -11   -1    0    0    0    0  0.00000000000E+00  0.00000000000E+00  0.45593999997E+02  0.45594000000E+02  0.51100000000E-03 0.  1.
         11   -1    0    0    0    0 -0.00000000000E+00 -0.00000000000E+00 -0.45593999997E+02  0.45594000000E+02  0.51100000000E-03 0. -1.
    9900012    2    1    2    0    0 -0.15496560377E+01 -0.23287742487E+02 -0.33293316932E+02  0.50528864049E+02  0.30000012764E+02 0.  0.
        -12    1    1    2    0    0  0.15496560377E+01  0.23287742487E+02  0.33293316932E+02  0.40659135951E+02  0.00000000000E+00 0.  1.
         11    1    3    3    0    0  0.53480398242E+01 -0.22651840446E+02 -0.17028449797E+02  0.28838784792E+02  0.51100000000E-03 0. -1.
        -11    1    3    3    0    0  0.22586518919E+01 -0.27196286654E+01 -0.84324193950E+00  0.36344113245E+01  0.51100000000E-03 0.  1.
        -12    1    3    3    0    0 -0.91563477538E+01  0.20837266242E+01 -0.15421625195E+02  0.18055667932E+02  0.00000000000E+00 0.  1.
</event>
<event>
 7    1  0.5487071E-013  0.5052888E+02  0.7816164E-02  0.1300439E+00
        -11   -1    0    0    0    0  0.00000000000E+00  0.00000000000E+00  0.45593999997E+02  0.45594000000E+02  0.51100000000E-03 0.  1.
         11   -1    0    0    0    0 -0.00000000000E+00 -0.00000000000E+00 -0.45593999997E+02  0.45594000000E+02  0.51100000000E-03 0. -1.
    9900012    2    1    2    0    0 -0.16925241635E+02 -0.12598426903E+01 -0.36947438139E+02  0.50528878108E+02  0.30000055498E+02 0.  0.
        -12    1    1    2    0    0  0.16925241635E+02  0.12598426903E+01  0.36947438139E+02  0.40659121892E+02  0.00000000000E+00 0.  1.
         11    1    3    3    0    0 -0.84010851970E+01 -0.52777889093E+00 -0.46339113464E+01  0.96088458034E+01  0.51100000000E-03 0. -1.
        -11    1    3    3    0    0 -0.23442159522E+01  0.22879047844E+01  0.32991907099E+01  0.46491414621E+01  0.51100000000E-03 0.  1.
         12    1    3    3    0    0 -0.61799404855E+01 -0.30199685838E+01 -0.35612717502E+02  0.36270890843E+02  0.00000000000E+00 0. -1.
</event>
<event>
 7    1  0.5487071E-013  0.5052885E+02  0.7816164E-02  0.1300439E+00
        -11   -1    0    0    0    0  0.00000000000E+00  0.00000000000E+00  0.45593999997E+02  0.45594000000E+02  0.51100000000E-03 0.  1.
         11   -1    0    0    0    0 -0.00000000000E+00 -0.00000000000E+00 -0.45593999997E+02  0.45594000000E+02  0.51100000000E-03 0. -1.
    9900012    2    1    2    0    0 -0.31094380887E+01 -0.18192426734E+02 -0.36228903744E+02  0.50528850204E+02  0.29999970679E+02 0.  0.
        -12    1    1    2    0    0  0.31094380887E+01  0.18192426734E+02  0.36228903744E+02  0.40659149796E+02  0.00000000000E+00 0.  1.
         11    1    3    3    0    0  0.14706738025E+01 -0.96752590628E+00 -0.57748333791E+01  0.60371921148E+01  0.51100000000E-03 0. -1.
        -11    1    3    3    0    0  0.10103671791E+02 -0.67332873071E+00 -0.74320255447E+01  0.12560754722E+02  0.51100000000E-03 0.  1.
        -12    1    3    3    0    0 -0.14683783682E+02 -0.16551572097E+02 -0.23022044820E+02  0.31930903366E+02  0.00000000000E+00 0.  1.
</event>
<event>
 7    1  0.5487071E-013  0.5052886E+02  0.7816164E-02  0.1300439E+00
        -11   -1    0    0    0    0  0.00000000000E+00  0.00000000000E+00  0.45593999997E+02  0.45594000000E+02  0.51100000000E-03 0. -1.
         11   -1    0    0    0    0 -0.00000000000E+00 -0.00000000000E+00 -0.45593999997E+02  0.45594000000E+02  0.51100000000E-03 0.  1.
    9900012    2    1    2    0    0 -0.43720019276E+01 -0.31669233096E+02  0.25121919185E+02  0.50528861430E+02  0.30000004802E+02 0.  0.
        -12    1    1    2    0    0  0.43720019276E+01  0.31669233096E+02 -0.25121919185E+02  0.40659138570E+02  0.00000000000E+00 0.  1.
         11    1    3    3    0    0 -0.28158160625E+00 -0.84132276183E+00 -0.43895249067E+01  0.44782855378E+01  0.51100000000E-03 0. -1.
        -11    1    3    3    0    0  0.15026889153E+00 -0.14831302270E+01 -0.21870160473E+01  0.26467518702E+01  0.51100000000E-03 0.  1.
         12    1    3    3    0    0 -0.42406892129E+01 -0.29344780107E+02  0.31698460139E+02  0.43403824022E+02  0.00000000000E+00 0. -1.
</event>
<event>
 7    1  0.5487071E-013  0.5052875E+02  0.7816164E-02  0.1300439E+00
        -11   -1    0    0    0    0  0.00000000000E+00  0.00000000000E+00  0.45593999997E+02  0.45594000000E+02  0.51100000000E-03 0. -1.
         11   -1    0    0    0    0 -0.00000000000E+00 -0.00000000000E+00 -0.45593999997E+02  0.45594000000E+02  0.51100000000E-03 0.  1.
    9900012    2    1    2    0    0  0.14805283314E+02  0.33893110478E+02  0.16888916251E+02  0.50528747129E+02  0.29999657371E+02 0.  0.
        -12    1    1    2    0    0 -0.14805283314E+02 -0.33893110478E+02 -0.16888916251E+02  0.40659252871E+02  0.00000000000E+00 0.  1.
         11    1    3    3    0    0  0.14287210443E+02  0.16611168426E+02  0.17275343243E+02  0.27901483530E+02  0.51100000000E-03 0. -1.
        -11    1    3    3    0    0  0.70896086738E+01  0.49816460507E+01  0.23094853732E+00  0.86679112830E+01  0.51100000000E-03 0.  1.
         12    1    3    3    0    0 -0.65715358033E+01  0.12300296002E+02 -0.61737552940E+00  0.13959352316E+02  0.00000000000E+00 0. -1.
</event>
<event>
 7    1  0.5487071E-013  0.5052884E+02  0.7816164E-02  0.1300439E+00
        -11   -1    0    0    0    0  0.00000000000E+00  0.00000000000E+00  0.45593999997E+02  0.45594000000E+02  0.51100000000E-03 0. -1.
         11   -1    0    0    0    0 -0.00000000000E+00 -0.00000000000E+00 -0.45593999997E+02  0.45594000000E+02  0.51100000000E-03 0.  1.
    9900012    2    1    2    0    0 -0.24692666034E+02  0.26861324844E+02  0.17941819402E+02  0.50528838527E+02  0.29999935187E+02 0.  0.
        -12    1    1    2    0    0  0.24692666034E+02 -0.26861324844E+02 -0.17941819402E+02  0.40659161473E+02  0.00000000000E+00 0.  1.
         11    1    3    3    0    0 -0.99814901938E+01  0.15813142788E+01  0.31384419323E+01  0.10582084830E+02  0.51100000000E-03 0. -1.
        -11    1    3    3    0    0 -0.91152347357E+01  0.22200220002E+01  0.13158558610E+02  0.16160558992E+02  0.51100000000E-03 0.  1.
         12    1    3    3    0    0 -0.55959411045E+01  0.23059988565E+02  0.16448188597E+01  0.23786194705E+02  0.00000000000E+00 0. -1.
</event>
<event>
 7    1  0.5487071E-013  0.5052890E+02  0.7816164E-02  0.1300439E+00
        -11   -1    0    0    0    0  0.00000000000E+00  0.00000000000E+00  0.45593999997E+02  0.45594000000E+02  0.51100000000E-03 0.  1.
         11   -1    0    0    0    0 -0.00000000000E+00 -0.00000000000E+00 -0.45593999997E+02  0.45594000000E+02  0.51100000000E-03 0. -1.
    9900012    2    1    2    0    0  0.22640776322E+02  0.27684359284E+02  0.19342533046E+02  0.50528904018E+02  0.30000134252E+02 0.  0.
        -12    1    1    2    0    0 -0.22640776322E+02 -0.27684359284E+02 -0.19342533046E+02  0.40659095982E+02  0.00000000000E+00 0.  1.
         11    1    3    3    0    0  0.71306357266E+01  0.14698880437E+02  0.15818511700E+02  0.22740456561E+02  0.51100000000E-03 0. -1.
        -11    1    3    3    0    0 -0.35462762334E+01  0.60599957508E+01 -0.76824277963E+00  0.70632726730E+01  0.51100000000E-03 0.  1.
         12    1    3    3    0    0  0.19056416829E+02  0.69254830969E+01  0.42922641257E+01  0.20725174783E+02  0.00000000000E+00 0. -1.
</event>
<event>
 7    1  0.5487071E-013  0.5052891E+02  0.7816164E-02  0.1300439E+00
        -11   -1    0    0    0    0  0.00000000000E+00  0.00000000000E+00  0.45593999997E+02  0.45594000000E+02  0.51100000000E-03 0.  1.
         11   -1    0    0    0    0 -0.00000000000E+00 -0.00000000000E+00 -0.45593999997E+02  0.45594000000E+02  0.51100000000E-03 0. -1.
    9900012    2    1    2    0    0  0.33406377008E+01  0.25295142890E+02 -0.31656871104E+02  0.50528909969E+02  0.30000152341E+02 0.  0.
        -12    1    1    2    0    0 -0.33406377008E+01 -0.25295142890E+02  0.31656871104E+02  0.40659090031E+02  0.00000000000E+00 0.  1.
         11    1    3    3    0    0  0.34918193111E+01  0.28526308349E+02 -0.19580983059E+02  0.34775824476E+02  0.51100000000E-03 0. -1.
        -11    1    3    3    0    0 -0.37735125611E+01  0.15001091546E+01 -0.59819580306E+01  0.72300447208E+01  0.51100000000E-03 0.  1.
        -12    1    3    3    0    0  0.36223309508E+01 -0.47312746139E+01 -0.60939300140E+01  0.85230407722E+01  0.00000000000E+00 0.  1.
</event>
<event>
 7    1  0.5487071E-013  0.5052886E+02  0.7816164E-02  0.1300439E+00
        -11   -1    0    0    0    0  0.00000000000E+00  0.00000000000E+00  0.45593999997E+02  0.45594000000E+02  0.51100000000E-03 0. -1.
         11   -1    0    0    0    0 -0.00000000000E+00 -0.00000000000E+00 -0.45593999997E+02  0.45594000000E+02  0.51100000000E-03 0.  1.
    9900012    2    1    2    0    0  0.36359981384E+02 -0.49524272273E+01  0.17509744580E+02  0.50528856662E+02  0.29999990310E+02 0.  0.
        -12    1    1    2    0    0 -0.36359981384E+02  0.49524272273E+01 -0.17509744580E+02  0.40659143338E+02  0.00000000000E+00 0.  1.
         11    1    3    3    0    0  0.17103454518E+02 -0.13554344397E+02  0.79196466341E+01  0.23215710447E+02  0.51100000000E-03 0. -1.
        -11    1    3    3    0    0  0.18202612315E+02  0.13609694414E+01  0.66409528050E+01  0.19423943660E+02  0.51100000000E-03 0.  1.
        -12    1    3    3    0    0  0.10539145520E+01  0.72409477287E+01  0.29491451408E+01  0.78892025551E+01  0.00000000000E+00 0.  1.
</event>
<event>
 7    1  0.5487071E-013  0.5052886E+02  0.7816164E-02  0.1300439E+00
        -11   -1    0    0    0    0  0.00000000000E+00  0.00000000000E+00  0.45593999997E+02  0.45594000000E+02  0.51100000000E-03 0.  1.
         11   -1    0    0    0    0 -0.00000000000E+00 -0.00000000000E+00 -0.45593999997E+02  0.45594000000E+02  0.51100000000E-03 0. -1.
    9900012    2    1    2    0    0 -0.28037331069E+02  0.74856783072E+01 -0.28478734900E+02  0.50528860133E+02  0.30000000861E+02 0.  0.
        -12    1    1    2    0    0  0.28037331069E+02 -0.74856783072E+01  0.28478734900E+02  0.40659139867E+02  0.00000000000E+00 0.  1.
         11    1    3    3    0    0  0.22840265140E+01  0.35484038982E+01 -0.10096632503E+02  0.10943031367E+02  0.51100000000E-03 0. -1.
        -11    1    3    3    0    0  0.66307424190E+00 -0.31952933654E+01 -0.16298443836E+01  0.36477335589E+01  0.51100000000E-03 0.  1.
        -12    1    3    3    0    0 -0.30984431825E+02  0.71325677744E+01 -0.16752258013E+02  0.35938095207E+02  0.00000000000E+00 0.  1.
</event>
<event>
 7    1  0.5487071E-013  0.5052886E+02  0.7816164E-02  0.1300439E+00
        -11   -1    0    0    0    0  0.00000000000E+00  0.00000000000E+00  0.45593999997E+02  0.45594000000E+02  0.51100000000E-03 0. -1.
         11   -1    0    0    0    0 -0.00000000000E+00 -0.00000000000E+00 -0.45593999997E+02  0.45594000000E+02  0.51100000000E-03 0.  1.
    9900012    2    1    2    0    0 -0.35620105441E+02  0.17833675020E+02  0.81445448860E+01  0.50528862186E+02  0.30000007102E+02 0.  0.
        -12    1    1    2    0    0  0.35620105441E+02 -0.17833675020E+02 -0.81445448860E+01  0.40659137814E+02  0.00000000000E+00 0.  1.
         11    1    3    3    0    0 -0.62038231409E+01  0.16367922508E+02  0.70746800299E+01  0.18879814792E+02  0.51100000000E-03 0. -1.
        -11    1    3    3    0    0 -0.28037002403E+01  0.25984937926E+01 -0.27921990292E+01  0.47338441786E+01  0.51100000000E-03 0.  1.
         12    1    3    3    0    0 -0.26612582060E+02 -0.11327412806E+01  0.38620638854E+01  0.26915203216E+02  0.00000000000E+00 0. -1.
</event>
<event>
 7    1  0.5487071E-013  0.5052888E+02  0.7816164E-02  0.1300439E+00
        -11   -1    0    0    0    0  0.00000000000E+00  0.00000000000E+00  0.45593999997E+02  0.45594000000E+02  0.51100000000E-03 0. -1.
         11   -1    0    0    0    0 -0.00000000000E+00 -0.00000000000E+00 -0.45593999997E+02  0.45594000000E+02  0.51100000000E-03 0.  1.
    9900012    2    1    2    0    0  0.11068364506E+01  0.13086384536E+02  0.38479676449E+02  0.50528879906E+02  0.30000060964E+02 0.  0.
        -12    1    1    2    0    0 -0.11068364506E+01 -0.13086384536E+02 -0.38479676449E+02  0.40659120094E+02  0.00000000000E+00 0.  1.
         11    1    3    3    0    0  0.69940105684E+01  0.35487045618E+01  0.76879785009E+01  0.10982463366E+02  0.51100000000E-03 0. -1.
        -11    1    3    3    0    0 -0.23840719058E+01  0.12942054190E+02  0.63323924284E+01  0.14604100781E+02  0.51100000000E-03 0.  1.
        -12    1    3    3    0    0 -0.35031022119E+01 -0.34043742156E+01  0.24459305520E+02  0.24942315759E+02  0.00000000000E+00 0.  1.
</event>
<event>
 7    1  0.5487071E-013  0.5052886E+02  0.7816164E-02  0.1300439E+00
        -11   -1    0    0    0    0  0.00000000000E+00  0.00000000000E+00  0.45593999997E+02  0.45594000000E+02  0.51100000000E-03 0. -1.
         11   -1    0    0    0    0 -0.00000000000E+00 -0.00000000000E+00 -0.45593999997E+02  0.45594000000E+02  0.51100000000E-03 0.  1.
    9900012    2    1    2    0    0  0.33878775848E+02  0.22288417883E+02 -0.29361129416E+01  0.50528858545E+02  0.29999996033E+02 0.  0.
        -12    1    1    2    0    0 -0.33878775848E+02 -0.22288417883E+02  0.29361129416E+01  0.40659141455E+02  0.00000000000E+00 0.  1.
         11    1    3    3    0    0  0.20884612818E+02  0.13522211376E+02 -0.96326126514E+00  0.24898697267E+02  0.51100000000E-03 0. -1.
        -11    1    3    3    0    0  0.17041995349E+02  0.13388405872E+01 -0.14180943178E+01  0.17153223935E+02  0.51100000000E-03 0.  1.
        -12    1    3    3    0    0 -0.40478323199E+01  0.74273659190E+01 -0.55475735866E+00  0.84769373427E+01  0.00000000000E+00 0.  1.
</event>
<event>
 7    1  0.5487071E-013  0.5052886E+02  0.7816164E-02  0.1300439E+00
        -11   -1    0    0    0    0  0.00000000000E+00  0.00000000000E+00  0.45593999997E+02  0.45594000000E+02  0.51100000000E-03 0.  1.
         11   -1    0    0    0    0 -0.00000000000E+00 -0.00000000000E+00 -0.45593999997E+02  0.45594000000E+02  0.51100000000E-03 0. -1.
    9900012    2    1    2    0    0 -0.39719589529E+02 -0.58470415605E+01 -0.64289903612E+01  0.50528860752E+02  0.30000002741E+02 0.  0.
        -12    1    1    2    0    0  0.39719589529E+02  0.58470415605E+01  0.64289903612E+01  0.40659139248E+02  0.00000000000E+00 0.  1.
         11    1    3    3    0    0 -0.93697431669E+01 -0.48843260054E+00 -0.43224165008E+01  0.10330243854E+02  0.51100000000E-03 0. -1.
        -11    1    3    3    0    0 -0.61056505496E+01  0.92724931620E+01 -0.40432758333E+01  0.11815505821E+02  0.51100000000E-03 0.  1.
        -12    1    3    3    0    0 -0.24244195812E+02 -0.14631102122E+02  0.19367019729E+01  0.28383111077E+02  0.00000000000E+00 0.  1.
</event>
<event>
 7    1  0.5487071E-013  0.5052888E+02  0.7816164E-02  0.1300439E+00
        -11   -1    0    0    0    0  0.00000000000E+00  0.00000000000E+00  0.45593999997E+02  0.45594000000E+02  0.51100000000E-03 0.  1.
         11   -1    0    0    0    0 -0.00000000000E+00 -0.00000000000E+00 -0.45593999997E+02  0.45594000000E+02  0.51100000000E-03 0. -1.
    9900012    2    1    2    0    0 -0.27408663577E+02  0.87661662026E+01 -0.28724269772E+02  0.50528878233E+02  0.30000055876E+02 0.  0.
        -12    1    1    2    0    0  0.27408663577E+02 -0.87661662026E+01  0.28724269772E+02  0.40659121767E+02  0.00000000000E+00 0.  1.
         11    1    3    3    0    0 -0.21954886878E+02  0.11059628955E+02 -0.13691064530E+02  0.28138544715E+02  0.51100000000E-03 0. -1.
        -11    1    3    3    0    0 -0.27090901907E+01  0.58834619353E+01 -0.20325149010E+01  0.67886236521E+01  0.51100000000E-03 0.  1.
        -12    1    3    3    0    0 -0.27446865080E+01 -0.81769246880E+01 -0.13000690341E+02  0.15601709866E+02  0.00000000000E+00 0.  1.
</event>
<event>
 7    1  0.5487071E-013  0.5052887E+02  0.7816164E-02  0.1300439E+00
        -11   -1    0    0    0    0  0.00000000000E+00  0.00000000000E+00  0.45593999997E+02  0.45594000000E+02  0.51100000000E-03 0.  1.
         11   -1    0    0    0    0 -0.00000000000E+00 -0.00000000000E+00 -0.45593999997E+02  0.45594000000E+02  0.51100000000E-03 0. -1.
    9900012    2    1    2    0    0 -0.32605869869E+02  0.87024924637E+01 -0.22677939342E+02  0.50528867474E+02  0.30000023174E+02 0.  0.
        -12    1    1    2    0    0  0.32605869869E+02 -0.87024924637E+01  0.22677939342E+02  0.40659132526E+02  0.00000000000E+00 0.  1.
         11    1    3    3    0    0 -0.19515051725E+02  0.83016382172E+00 -0.18656678078E+02  0.27011072784E+02  0.51100000000E-03 0. -1.
        -11    1    3    3    0    0  0.91891850952E+00  0.70160945677E+01 -0.60830188776E+01  0.93312975055E+01  0.51100000000E-03 0.  1.
        -12    1    3    3    0    0 -0.14009736654E+02  0.85623407426E+00  0.20617576144E+01  0.14186497184E+02  0.00000000000E+00 0.  1.
</event>
<event>
 7    1  0.5487071E-013  0.5052886E+02  0.7816164E-02  0.1300439E+00
        -11   -1    0    0    0    0  0.00000000000E+00  0.00000000000E+00  0.45593999997E+02  0.45594000000E+02  0.51100000000E-03 0.  1.
         11   -1    0    0    0    0 -0.00000000000E+00 -0.00000000000E+00 -0.45593999997E+02  0.45594000000E+02  0.51100000000E-03 0. -1.
    9900012    2    1    2    0    0  0.39883280241E+02 -0.44389083519E+01  0.65410491160E+01  0.50528864819E+02  0.30000015105E+02 0.  0.
        -12    1    1    2    0    0 -0.39883280241E+02  0.44389083519E+01 -0.65410491160E+01  0.40659135181E+02  0.00000000000E+00 0.  1.
         11    1    3    3    0    0  0.17676077201E+02  0.58195937920E+01  0.12362979039E+02  0.22341768688E+02  0.51100000000E-03 0. -1.
        -11    1    3    3    0    0 -0.13607151589E+01 -0.45947406545E+00 -0.18719146918E+01  0.23593912425E+01  0.51100000000E-03 0.  1.
         12    1    3    3    0    0  0.23567918199E+02 -0.97990280785E+01 -0.39500152315E+01  0.25827704889E+02  0.00000000000E+00 0. -1.
</event>
<event>
 7    1  0.5487071E-013  0.5052881E+02  0.7816164E-02  0.1300439E+00
        -11   -1    0    0    0    0  0.00000000000E+00  0.00000000000E+00  0.45593999997E+02  0.45594000000E+02  0.51100000000E-03 0. -1.
         11   -1    0    0    0    0 -0.00000000000E+00 -0.00000000000E+00 -0.45593999997E+02  0.45594000000E+02  0.51100000000E-03 0.  1.
    9900012    2    1    2    0    0 -0.33052419159E+02  0.19837863752E+02  0.12929292731E+02  0.50528808407E+02  0.29999843632E+02 0.  0.
        -12    1    1    2    0    0  0.33052419159E+02 -0.19837863752E+02 -0.12929292731E+02  0.40659191593E+02  0.00000000000E+00 0.  1.
         11    1    3    3    0    0 -0.12439870082E+02 -0.18087914062E+01  0.41573885158E+01  0.13240316217E+02  0.51100000000E-03 0. -1.
        -11    1    3    3    0    0 -0.23891945790E+02  0.18847881248E+02  0.37370401985E+01  0.30659960386E+02  0.51100000000E-03 0.  1.
        -12    1    3    3    0    0  0.32793967128E+01  0.27987739106E+01  0.50348640167E+01  0.66285318034E+01  0.00000000000E+00 0.  1.
</event>
<event>
 7    1  0.5487071E-013  0.5052886E+02  0.7816164E-02  0.1300439E+00
        -11   -1    0    0    0    0  0.00000000000E+00  0.00000000000E+00  0.45593999997E+02  0.45594000000E+02  0.51100000000E-03 0.  1.
         11   -1    0    0    0    0 -0.00000000000E+00 -0.00000000000E+00 -0.45593999997E+02  0.45594000000E+02  0.51100000000E-03 0. -1.
    9900012    2    1    2    0    0  0.84100447892E+01 -0.13297442931E+02 -0.37491530692E+02  0.50528859386E+02  0.29999998589E+02 0.  0.
        -12    1    1    2    0    0 -0.84100447892E+01  0.13297442931E+02  0.37491530692E+02  0.40659140614E+02  0.00000000000E+00 0.  1.
         11    1    3    3    0    0  0.11754388873E+02 -0.69016505930E+01 -0.24293987844E+02  0.27856709861E+02  0.51100000000E-03 0. -1.
        -11    1    3    3    0    0  0.52193089333E+01  0.27423645868E+01 -0.46618509797E+01  0.75162892497E+01  0.51100000000E-03 0.  1.
        -12    1    3    3    0    0 -0.85636530172E+01 -0.91381569249E+01 -0.85356918686E+01  0.15155860274E+02  0.00000000000E+00 0.  1.
</event>
<event>
 7    1  0.5487071E-013  0.5052886E+02  0.7816164E-02  0.1300439E+00
        -11   -1    0    0    0    0  0.00000000000E+00  0.00000000000E+00  0.45593999997E+02  0.45594000000E+02  0.51100000000E-03 0. -1.
         11   -1    0    0    0    0 -0.00000000000E+00 -0.00000000000E+00 -0.45593999997E+02  0.45594000000E+02  0.51100000000E-03 0.  1.
    9900012    2    1    2    0    0 -0.36092298090E+02 -0.53888132431E+01  0.17929648257E+02  0.50528861099E+02  0.30000003795E+02 0.  0.
        -12    1    1    2    0    0  0.36092298090E+02  0.53888132431E+01 -0.17929648257E+02  0.40659138901E+02  0.00000000000E+00 0.  1.
         11    1    3    3    0    0 -0.43290181233E+01  0.45429219564E+01  0.13195808760E+02  0.14611909762E+02  0.51100000000E-03 0. -1.
        -11    1    3    3    0    0 -0.42460068791E+01 -0.33693276433E+01  0.53572841436E+01  0.76211178210E+01  0.51100000000E-03 0.  1.
        -12    1    3    3    0    0 -0.27517273087E+02 -0.65624075562E+01 -0.62344464598E+00  0.28295833515E+02  0.00000000000E+00 0.  1.
</event>
<event>
 7    1  0.5487071E-013  0.5052888E+02  0.7816164E-02  0.1300439E+00
        -11   -1    0    0    0    0  0.00000000000E+00  0.00000000000E+00  0.45593999997E+02  0.45594000000E+02  0.51100000000E-03 0.  1.
         11   -1    0    0    0    0 -0.00000000000E+00 -0.00000000000E+00 -0.45593999997E+02  0.45594000000E+02  0.51100000000E-03 0. -1.
    9900012    2    1    2    0    0  0.35023474782E+02  0.18817762629E+02 -0.85095439986E+01  0.50528876606E+02  0.30000050931E+02 0.  0.
        -12    1    1    2    0    0 -0.35023474782E+02 -0.18817762629E+02  0.85095439986E+01  0.40659123394E+02  0.00000000000E+00 0.  1.
         11    1    3    3    0    0  0.16539663375E+02  0.31439989056E+01 -0.18449843508E+01  0.16936621895E+02  0.51100000000E-03 0. -1.
        -11    1    3    3    0    0  0.15987611225E+02  0.18295214403E+01  0.32048450020E+01  0.16407982604E+02  0.51100000000E-03 0.  1.
         12    1    3    3    0    0  0.24962001815E+01  0.13844242283E+02 -0.98694046498E+01  0.17184272108E+02  0.00000000000E+00 0. -1.
</event>
<event>
 7    1  0.5487071E-013  0.5052886E+02  0.7816164E-02  0.1300439E+00
        -11   -1    0    0    0    0  0.00000000000E+00  0.00000000000E+00  0.45593999997E+02  0.45594000000E+02  0.51100000000E-03 0. -1.
         11   -1    0    0    0    0 -0.00000000000E+00 -0.00000000000E+00 -0.45593999997E+02  0.45594000000E+02  0.51100000000E-03 0.  1.
    9900012    2    1    2    0    0  0.83784304430E+01  0.31500669451E+02  0.24303816716E+02  0.50528858598E+02  0.29999996196E+02 0.  0.
        -12    1    1    2    0    0 -0.83784304430E+01 -0.31500669451E+02 -0.24303816716E+02  0.40659141402E+02  0.00000000000E+00 0.  1.
         11    1    3    3    0    0  0.41007624264E+00  0.35497412088E+01  0.76804059603E+01  0.84709775794E+01  0.51100000000E-03 0. -1.
        -11    1    3    3    0    0 -0.48790681725E+01  0.18641775046E+02  0.17687552450E+02  0.26156654890E+02  0.51100000000E-03 0.  1.
        -12    1    3    3    0    0  0.12847422373E+02  0.93091531971E+01 -0.10641416947E+01  0.15901226129E+02  0.00000000000E+00 0.  1.
</event>
<event>
 7    1  0.5487071E-013  0.5052893E+02  0.7816164E-02  0.1300439E+00
        -11   -1    0    0    0    0  0.00000000000E+00  0.00000000000E+00  0.45593999997E+02  0.45594000000E+02  0.51100000000E-03 0. -1.
         11   -1    0    0    0    0 -0.00000000000E+00 -0.00000000000E+00 -0.45593999997E+02  0.45594000000E+02  0.51100000000E-03 0.  1.
    9900012    2    1    2    0    0 -0.29257526475E+02  0.27332086757E+02 -0.70791223470E+01  0.50528932190E+02  0.30000219885E+02 0.  0.
        -12    1    1    2    0    0  0.29257526475E+02 -0.27332086757E+02  0.70791223470E+01  0.40659067810E+02  0.00000000000E+00 0.  1.
         11    1    3    3    0    0 -0.18898085606E+02  0.21781657196E+02  0.67441629432E+01  0.29615231957E+02  0.51100000000E-03 0. -1.
        -11    1    3    3    0    0 -0.84765229664E+01  0.84485160651E+01 -0.89729672010E+01  0.14958041515E+02  0.51100000000E-03 0.  1.
        -12    1    3    3    0    0 -0.18829179025E+01 -0.28980865039E+01 -0.48503180892E+01  0.59556587190E+01  0.00000000000E+00 0.  1.
</event>
<event>
 7    1  0.5487071E-013  0.5052885E+02  0.7816164E-02  0.1300439E+00
        -11   -1    0    0    0    0  0.00000000000E+00  0.00000000000E+00  0.45593999997E+02  0.45594000000E+02  0.51100000000E-03 0.  1.
         11   -1    0    0    0    0 -0.00000000000E+00 -0.00000000000E+00 -0.45593999997E+02  0.45594000000E+02  0.51100000000E-03 0. -1.
    9900012    2    1    2    0    0 -0.36039685347E+02  0.12386102787E+02 -0.14173643723E+02  0.50528848035E+02  0.29999964087E+02 0.  0.
        -12    1    1    2    0    0  0.36039685347E+02 -0.12386102787E+02  0.14173643723E+02  0.40659151965E+02  0.00000000000E+00 0.  1.
         11    1    3    3    0    0 -0.10417344645E+02  0.62799759261E+01 -0.75211653271E+01  0.14301296977E+02  0.51100000000E-03 0. -1.
        -11    1    3    3    0    0 -0.87187188983E+01  0.14174764956E+02 -0.10392190534E+01  0.16673931669E+02  0.51100000000E-03 0.  1.
        -12    1    3    3    0    0 -0.16903621803E+02 -0.80686380951E+01 -0.56132593427E+01  0.19553619389E+02  0.00000000000E+00 0.  1.
</event>
<event>
 7    1  0.5487071E-013  0.5052886E+02  0.7816164E-02  0.1300439E+00
        -11   -1    0    0    0    0  0.00000000000E+00  0.00000000000E+00  0.45593999997E+02  0.45594000000E+02  0.51100000000E-03 0. -1.
         11   -1    0    0    0    0 -0.00000000000E+00 -0.00000000000E+00 -0.45593999997E+02  0.45594000000E+02  0.51100000000E-03 0.  1.
    9900012    2    1    2    0    0 -0.17780353823E+02  0.27544057169E+02  0.24048891766E+02  0.50528864955E+02  0.30000015517E+02 0.  0.
        -12    1    1    2    0    0  0.17780353823E+02 -0.27544057169E+02 -0.24048891766E+02  0.40659135045E+02  0.00000000000E+00 0.  1.
         11    1    3    3    0    0 -0.41415481927E+01  0.71630347928E+01  0.49430950386E+00  0.82888980584E+01  0.51100000000E-03 0.  1.
        -11    1    3    3    0    0 -0.99710456854E+01  0.23616633055E+02  0.26220264130E+02  0.36669733572E+02  0.51100000000E-03 0. -1.
        -12    1    3    3    0    0 -0.36677599450E+01 -0.32356106781E+01 -0.26656818675E+01  0.55702333248E+01  0.00000000000E+00 0.  1.
</event>
<event>
 7    1  0.5487071E-013  0.5052892E+02  0.7816164E-02  0.1300439E+00
        -11   -1    0    0    0    0  0.00000000000E+00  0.00000000000E+00  0.45593999997E+02  0.45594000000E+02  0.51100000000E-03 0. -1.
         11   -1    0    0    0    0 -0.00000000000E+00 -0.00000000000E+00 -0.45593999997E+02  0.45594000000E+02  0.51100000000E-03 0.  1.
    9900012    2    1    2    0    0  0.22921004022E+02 -0.15734145617E+02  0.29668583985E+02  0.50528921808E+02  0.30000188328E+02 0.  0.
        -12    1    1    2    0    0 -0.22921004022E+02  0.15734145617E+02 -0.29668583985E+02  0.40659078192E+02  0.00000000000E+00 0.  1.
         11    1    3    3    0    0 -0.24260232428E+01 -0.23167157500E+00 -0.21261139745E+01  0.32341337923E+01  0.51100000000E-03 0. -1.
        -11    1    3    3    0    0  0.15458154763E+02  0.83393202956E+00  0.10576363413E+02  0.18748585403E+02  0.51100000000E-03 0.  1.
         12    1    3    3    0    0  0.98888725024E+01 -0.16336406072E+02  0.21218334546E+02  0.28546202613E+02  0.00000000000E+00 0. -1.
</event>
<event>
 7    1  0.5487071E-013  0.5052886E+02  0.7816164E-02  0.1300439E+00
        -11   -1    0    0    0    0  0.00000000000E+00  0.00000000000E+00  0.45593999997E+02  0.45594000000E+02  0.51100000000E-03 0.  1.
         11   -1    0    0    0    0 -0.00000000000E+00 -0.00000000000E+00 -0.45593999997E+02  0.45594000000E+02  0.51100000000E-03 0. -1.
    9900012    2    1    2    0    0  0.71824371567E+01  0.39801696457E+02 -0.41716940047E+01  0.50528862340E+02  0.30000007570E+02 0.  0.
        -12    1    1    2    0    0 -0.71824371567E+01 -0.39801696457E+02  0.41716940047E+01  0.40659137660E+02  0.00000000000E+00 0.  1.
         11    1    3    3    0    0  0.94685958245E+01  0.24569873786E+02 -0.52933402999E+01  0.26858005446E+02  0.51100000000E-03 0. -1.
        -11    1    3    3    0    0  0.33663288764E+00  0.11488914193E+02 -0.76312707500E+01  0.13796549009E+02  0.51100000000E-03 0.  1.
        -12    1    3    3    0    0 -0.26227915554E+01  0.37429084784E+01  0.87529170452E+01  0.98743078857E+01  0.00000000000E+00 0.  1.
</event>
<event>
 7    1  0.5487071E-013  0.5052886E+02  0.7816164E-02  0.1300439E+00
        -11   -1    0    0    0    0  0.00000000000E+00  0.00000000000E+00  0.45593999997E+02  0.45594000000E+02  0.51100000000E-03 0. -1.
         11   -1    0    0    0    0 -0.00000000000E+00 -0.00000000000E+00 -0.45593999997E+02  0.45594000000E+02  0.51100000000E-03 0.  1.
    9900012    2    1    2    0    0  0.25487032330E+02 -0.14244922260E+02  0.28295916870E+02  0.50528861560E+02  0.30000005197E+02 0.  0.
        -12    1    1    2    0    0 -0.25487032330E+02  0.14244922260E+02 -0.28295916870E+02  0.40659138440E+02  0.00000000000E+00 0.  1.
         11    1    3    3    0    0  0.49324405129E+01 -0.43318651588E+01  0.20187298259E+01  0.68679906478E+01  0.51100000000E-03 0. -1.
        -11    1    3    3    0    0  0.46793992800E+01  0.11923264499E+01 -0.49478349212E+01  0.69137175712E+01  0.51100000000E-03 0.  1.
        -12    1    3    3    0    0  0.15875192537E+02 -0.11105383551E+02  0.31225021966E+02  0.36747153341E+02  0.00000000000E+00 0.  1.
</event>
<event>
 7    1  0.5487071E-013  0.5052886E+02  0.7816164E-02  0.1300439E+00
        -11   -1    0    0    0    0  0.00000000000E+00  0.00000000000E+00  0.45593999997E+02  0.45594000000E+02  0.51100000000E-03 0.  1.
         11   -1    0    0    0    0 -0.00000000000E+00 -0.00000000000E+00 -0.45593999997E+02  0.45594000000E+02  0.51100000000E-03 0. -1.
    9900012    2    1    2    0    0 -0.16454064525E+02 -0.35588982355E+02  0.10763521334E+02  0.50528864545E+02  0.30000014272E+02 0.  0.
        -12    1    1    2    0    0  0.16454064525E+02  0.35588982355E+02 -0.10763521334E+02  0.40659135455E+02  0.00000000000E+00 0.  1.
         11    1    3    3    0    0  0.38153427562E+01 -0.87917262649E+01 -0.42814645586E+01  0.10496772365E+02  0.51100000000E-03 0. -1.
        -11    1    3    3    0    0 -0.19826359563E+01 -0.87898298694E+01 -0.19908670386E+01  0.92279741165E+01  0.51100000000E-03 0.  1.
        -12    1    3    3    0    0 -0.18286771324E+02 -0.18007426220E+02  0.17035852932E+02  0.30804118063E+02  0.00000000000E+00 0.  1.
</event>
<event>
 7    1  0.5487071E-013  0.5052886E+02  0.7816164E-02  0.1300439E+00
        -11   -1    0    0    0    0  0.00000000000E+00  0.00000000000E+00  0.45593999997E+02  0.45594000000E+02  0.51100000000E-03 0. -1.
         11   -1    0    0    0    0 -0.00000000000E+00 -0.00000000000E+00 -0.45593999997E+02  0.45594000000E+02  0.51100000000E-03 0.  1.
    9900012    2    1    2    0    0  0.11012476333E+02 -0.34710269035E+02  0.18085585800E+02  0.50528858036E+02  0.29999994487E+02 0.  0.
        -12    1    1    2    0    0 -0.11012476333E+02  0.34710269035E+02 -0.18085585800E+02  0.40659141964E+02  0.00000000000E+00 0.  1.
         11    1    3    3    0    0  0.11436917620E+02 -0.28193817729E+02  0.46454202946E+01  0.30777822742E+02  0.51100000000E-03 0. -1.
        -11    1    3    3    0    0  0.60931712506E+01 -0.46975906115E+01  0.75596992204E+01  0.10786248004E+02  0.51100000000E-03 0.  1.
        -12    1    3    3    0    0 -0.65176125379E+01 -0.18188606950E+01  0.58804662851E+01  0.89647872898E+01  0.00000000000E+00 0.  1.
</event>
<event>
 7    1  0.5487071E-013  0.5052886E+02  0.7816164E-02  0.1300439E+00
        -11   -1    0    0    0    0  0.00000000000E+00  0.00000000000E+00  0.45593999997E+02  0.45594000000E+02  0.51100000000E-03 0.  1.
         11   -1    0    0    0    0 -0.00000000000E+00 -0.00000000000E+00 -0.45593999997E+02  0.45594000000E+02  0.51100000000E-03 0. -1.
    9900012    2    1    2    0    0 -0.32556412092E+02  0.71256552540E+00 -0.24346216807E+02  0.50528856001E+02  0.29999988300E+02 0.  0.
        -12    1    1    2    0    0  0.32556412092E+02 -0.71256552540E+00  0.24346216807E+02  0.40659143999E+02  0.00000000000E+00 0.  1.
         11    1    3    3    0    0 -0.86563183996E+01  0.89334411766E+01 -0.14086583678E+02  0.18792819359E+02  0.51100000000E-03 0. -1.
        -11    1    3    3    0    0 -0.23719216409E+01  0.40493854554E+01  0.50377275111E+00  0.47198858125E+01  0.51100000000E-03 0.  1.
         12    1    3    3    0    0 -0.21528172051E+02 -0.12270261107E+02 -0.10763405881E+02  0.27016150830E+02  0.00000000000E+00 0. -1.
</event>
<event>
 7    1  0.5487071E-013  0.5052886E+02  0.7816164E-02  0.1300439E+00
        -11   -1    0    0    0    0  0.00000000000E+00  0.00000000000E+00  0.45593999997E+02  0.45594000000E+02  0.51100000000E-03 0.  1.
         11   -1    0    0    0    0 -0.00000000000E+00 -0.00000000000E+00 -0.45593999997E+02  0.45594000000E+02  0.51100000000E-03 0. -1.
    9900012    2    1    2    0    0 -0.19835249977E+02  0.78796224127E+01 -0.34606940926E+02  0.50528856486E+02  0.29999989775E+02 0.  0.
        -12    1    1    2    0    0  0.19835249977E+02 -0.78796224127E+01  0.34606940926E+02  0.40659143514E+02  0.00000000000E+00 0.  1.
         11    1    3    3    0    0 -0.16141732241E+02  0.51441200146E+01 -0.17328801254E+02  0.24234373184E+02  0.51100000000E-03 0. -1.
        -11    1    3    3    0    0 -0.19598978010E+01  0.10914968485E+02 -0.12310892576E+02  0.16569122267E+02  0.51100000000E-03 0.  1.
         12    1    3    3    0    0 -0.17336199354E+01 -0.81794660870E+01 -0.49672470954E+01  0.97253610348E+01  0.00000000000E+00 0. -1.
</event>
<event>
 7    1  0.5487071E-013  0.5052886E+02  0.7816164E-02  0.1300439E+00
        -11   -1    0    0    0    0  0.00000000000E+00  0.00000000000E+00  0.45593999997E+02  0.45594000000E+02  0.51100000000E-03 0.  1.
         11   -1    0    0    0    0 -0.00000000000E+00 -0.00000000000E+00 -0.45593999997E+02  0.45594000000E+02  0.51100000000E-03 0. -1.
    9900012    2    1    2    0    0 -0.24245732195E+02 -0.31434728582E+02  0.87845074448E+01  0.50528864966E+02  0.30000015551E+02 0.  0.
        -12    1    1    2    0    0  0.24245732195E+02  0.31434728582E+02 -0.87845074448E+01  0.40659135034E+02  0.00000000000E+00 0.  1.
         11    1    3    3    0    0 -0.65569785533E+00 -0.46115117829E+01 -0.30971522741E+01  0.55935975071E+01  0.51100000000E-03 0. -1.
        -11    1    3    3    0    0  0.40707932177E+01 -0.81725736944E+01  0.63431966465E+01  0.11117484525E+02  0.51100000000E-03 0.  1.
        -12    1    3    3    0    0 -0.27660827557E+02 -0.18650643104E+02  0.55384630724E+01  0.33817782934E+02  0.00000000000E+00 0.  1.
</event>
<event>
 7    1  0.5487071E-013  0.5052886E+02  0.7816164E-02  0.1300439E+00
        -11   -1    0    0    0    0  0.00000000000E+00  0.00000000000E+00  0.45593999997E+02  0.45594000000E+02  0.51100000000E-03 0.  1.
         11   -1    0    0    0    0 -0.00000000000E+00 -0.00000000000E+00 -0.45593999997E+02  0.45594000000E+02  0.51100000000E-03 0. -1.
    9900012    2    1    2    0    0  0.36205530254E+02  0.88499932455E+00 -0.18480854261E+02  0.50528860573E+02  0.30000002197E+02 0.  0.
        -12    1    1    2    0    0 -0.36205530254E+02 -0.88499932455E+00  0.18480854261E+02  0.40659139427E+02  0.00000000000E+00 0.  1.
         11    1    3    3    0    0  0.17590853018E+02  0.36621913946E+00  0.20941087178E+01  0.17718846406E+02  0.51100000000E-03 0. -1.
        -11    1    3    3    0    0  0.22559250249E+01  0.23559267707E+01  0.27464121798E+01  0.42640788911E+01  0.51100000000E-03 0.  1.
         12    1    3    3    0    0  0.16358752210E+02 -0.18371465857E+01 -0.23321375159E+02  0.28545935276E+02  0.00000000000E+00 0. -1.
</event>
<event>
 7    1  0.5487071E-013  0.5052886E+02  0.7816164E-02  0.1300439E+00
        -11   -1    0    0    0    0  0.00000000000E+00  0.00000000000E+00  0.45593999997E+02  0.45594000000E+02  0.51100000000E-03 0.  1.
         11   -1    0    0    0    0 -0.00000000000E+00 -0.00000000000E+00 -0.45593999997E+02  0.45594000000E+02  0.51100000000E-03 0. -1.
    9900012    2    1    2    0    0  0.33636260411E+02 -0.64239806440E+01 -0.21920304016E+02  0.50528864866E+02  0.30000015245E+02 0.  0.
        -12    1    1    2    0    0 -0.33636260411E+02  0.64239806440E+01  0.21920304016E+02  0.40659135134E+02  0.00000000000E+00 0.  1.
         11    1    3    3    0    0  0.79600797410E+01  0.19968508415E+01 -0.55181993100E+01  0.98894290357E+01  0.51100000000E-03 0.  1.
        -11    1    3    3    0    0  0.24876879563E+02 -0.95393694368E+01 -0.22200515495E+02  0.34680276737E+02  0.51100000000E-03 0. -1.
        -12    1    3    3    0    0  0.79930110622E+00  0.11185379514E+01  0.57984107894E+01  0.59591590925E+01  0.00000000000E+00 0.  1.
</event>
<event>
 7    1  0.5487071E-013  0.5052892E+02  0.7816164E-02  0.1300439E+00
        -11   -1    0    0    0    0  0.00000000000E+00  0.00000000000E+00  0.45593999997E+02  0.45594000000E+02  0.51100000000E-03 0. -1.
         11   -1    0    0    0    0 -0.00000000000E+00 -0.00000000000E+00 -0.45593999997E+02  0.45594000000E+02  0.51100000000E-03 0.  1.
    9900012    2    1    2    0    0 -0.54123157225E+01 -0.29856253237E+02  0.27064212253E+02  0.50528922247E+02  0.30000189661E+02 0.  0.
        -12    1    1    2    0    0  0.54123157225E+01  0.29856253237E+02 -0.27064212253E+02  0.40659077753E+02  0.00000000000E+00 0.  1.
         11    1    3    3    0    0  0.73556586405E+00 -0.27439163120E+01 -0.10842308642E+01  0.30406727374E+01  0.51100000000E-03 0. -1.
        -11    1    3    3    0    0  0.13394934943E+00  0.52614820410E+01  0.35943032960E+01  0.63733940833E+01  0.51100000000E-03 0.  1.
         12    1    3    3    0    0 -0.62818309360E+01 -0.32373818966E+02  0.24554139821E+02  0.41114855426E+02  0.00000000000E+00 0. -1.
</event>
<event>
 7    1  0.5487071E-013  0.5052887E+02  0.7816164E-02  0.1300439E+00
        -11   -1    0    0    0    0  0.00000000000E+00  0.00000000000E+00  0.45593999997E+02  0.45594000000E+02  0.51100000000E-03 0.  1.
         11   -1    0    0    0    0 -0.00000000000E+00 -0.00000000000E+00 -0.45593999997E+02  0.45594000000E+02  0.51100000000E-03 0. -1.
    9900012    2    1    2    0    0 -0.31388708399E+02 -0.63344326311E+01 -0.25055705824E+02  0.50528874997E+02  0.30000046039E+02 0.  0.
        -12    1    1    2    0    0  0.31388708399E+02  0.63344326311E+01  0.25055705824E+02  0.40659125003E+02  0.00000000000E+00 0.  1.
         11    1    3    3    0    0  0.34603456427E+00 -0.75362692919E+01 -0.76957310195E+00  0.75833592675E+01  0.51100000000E-03 0. -1.
        -11    1    3    3    0    0 -0.85639993018E+01  0.61819153728E+01 -0.27310010793E+01  0.10909469688E+02  0.51100000000E-03 0.  1.
         12    1    3    3    0    0 -0.23170743661E+02 -0.49800787119E+01 -0.21555131643E+02  0.32036046041E+02  0.00000000000E+00 0. -1.
</event>
<event>
 7    1  0.5487071E-013  0.5052887E+02  0.7816164E-02  0.1300439E+00
        -11   -1    0    0    0    0  0.00000000000E+00  0.00000000000E+00  0.45593999997E+02  0.45594000000E+02  0.51100000000E-03 0.  1.
         11   -1    0    0    0    0 -0.00000000000E+00 -0.00000000000E+00 -0.45593999997E+02  0.45594000000E+02  0.51100000000E-03 0. -1.
    9900012    2    1    2    0    0 -0.19086034686E+02 -0.23279232955E+02 -0.27330668787E+02  0.50528869864E+02  0.30000030440E+02 0.  0.
        -12    1    1    2    0    0  0.19086034686E+02  0.23279232955E+02  0.27330668787E+02  0.40659130136E+02  0.00000000000E+00 0.  1.
         11    1    3    3    0    0  0.40663400511E+01 -0.90956354392E+01 -0.62894165287E+01  0.11782294598E+02  0.51100000000E-03 0.  1.
        -11    1    3    3    0    0  0.10957844886E+01 -0.60540344725E+01 -0.78397604124E+01  0.99656369904E+01  0.51100000000E-03 0. -1.
        -12    1    3    3    0    0 -0.24248159225E+02 -0.81295630436E+01 -0.13201491846E+02  0.28780938276E+02  0.00000000000E+00 0.  1.
</event>
<event>
 7    1  0.5487071E-013  0.5052884E+02  0.7816164E-02  0.1300439E+00
        -11   -1    0    0    0    0  0.00000000000E+00  0.00000000000E+00  0.45593999997E+02  0.45594000000E+02  0.51100000000E-03 0. -1.
         11   -1    0    0    0    0 -0.00000000000E+00 -0.00000000000E+00 -0.45593999997E+02  0.45594000000E+02  0.51100000000E-03 0.  1.
    9900012    2    1    2    0    0 -0.36078665788E+02  0.86082827914E+01  0.16655168353E+02  0.50528840017E+02  0.29999939716E+02 0.  0.
        -12    1    1    2    0    0  0.36078665788E+02 -0.86082827914E+01 -0.16655168353E+02  0.40659159983E+02  0.00000000000E+00 0.  1.
         11    1    3    3    0    0 -0.20155240999E+02 -0.37484557488E+01  0.68124229359E+01  0.21603096230E+02  0.51100000000E-03 0. -1.
        -11    1    3    3    0    0 -0.18241806074E+02  0.47962687694E+01  0.92162487928E+01  0.20993020865E+02  0.51100000000E-03 0.  1.
        -12    1    3    3    0    0  0.23183812848E+01  0.75604697708E+01  0.62649662423E+00  0.79327229220E+01  0.00000000000E+00 0.  1.
</event>
<event>
 7    1  0.5487071E-013  0.5052886E+02  0.7816164E-02  0.1300439E+00
        -11   -1    0    0    0    0  0.00000000000E+00  0.00000000000E+00  0.45593999997E+02  0.45594000000E+02  0.51100000000E-03 0.  1.
         11   -1    0    0    0    0 -0.00000000000E+00 -0.00000000000E+00 -0.45593999997E+02  0.45594000000E+02  0.51100000000E-03 0. -1.
    9900012    2    1    2    0    0  0.22161609174E+01  0.40096015803E+02  0.63689782610E+01  0.50528859126E+02  0.29999997801E+02 0.  0.
        -12    1    1    2    0    0 -0.22161609174E+01 -0.40096015803E+02 -0.63689782610E+01  0.40659140874E+02  0.00000000000E+00 0.  1.
         11    1    3    3    0    0  0.11619707958E+01  0.26894779459E+02  0.35505769175E+01  0.27153009686E+02  0.51100000000E-03 0. -1.
        -11    1    3    3    0    0 -0.65552131228E+01  0.13829406434E+02  0.20512591811E+00  0.15305730244E+02  0.51100000000E-03 0.  1.
         12    1    3    3    0    0  0.76094032444E+01 -0.62817009018E+00  0.26132754254E+01  0.80701191966E+01  0.00000000000E+00 0. -1.
</event>
<event>
 7    1  0.5487071E-013  0.5052886E+02  0.7816164E-02  0.1300439E+00
        -11   -1    0    0    0    0  0.00000000000E+00  0.00000000000E+00  0.45593999997E+02  0.45594000000E+02  0.51100000000E-03 0.  1.
         11   -1    0    0    0    0 -0.00000000000E+00 -0.00000000000E+00 -0.45593999997E+02  0.45594000000E+02  0.51100000000E-03 0. -1.
    9900012    2    1    2    0    0 -0.11626954054E+02  0.15290307212E+02 -0.35835545077E+02  0.50528857779E+02  0.29999993704E+02 0.  0.
        -12    1    1    2    0    0  0.11626954054E+02 -0.15290307212E+02  0.35835545077E+02  0.40659142221E+02  0.00000000000E+00 0.  1.
         11    1    3    3    0    0 -0.62902527082E+01  0.44152146738E+00 -0.24023403282E+02  0.24837192391E+02  0.51100000000E-03 0. -1.
        -11    1    3    3    0    0 -0.28519467580E+01 -0.13451210013E+01 -0.83786050510E+01  0.89523166656E+01  0.51100000000E-03 0.  1.
        -12    1    3    3    0    0 -0.24847545874E+01  0.16193906746E+02 -0.34335367436E+01  0.16739348722E+02  0.00000000000E+00 0.  1.
</event>
<event>
 7    1  0.5487071E-013  0.5052886E+02  0.7816164E-02  0.1300439E+00
        -11   -1    0    0    0    0  0.00000000000E+00  0.00000000000E+00  0.45593999997E+02  0.45594000000E+02  0.51100000000E-03 0.  1.
         11   -1    0    0    0    0 -0.00000000000E+00 -0.00000000000E+00 -0.45593999997E+02  0.45594000000E+02  0.51100000000E-03 0. -1.
    9900012    2    1    2    0    0 -0.11216903977E+02  0.43712850300E+01 -0.38836051311E+02  0.50528856514E+02  0.29999989859E+02 0.  0.
        -12    1    1    2    0    0  0.11216903977E+02 -0.43712850300E+01  0.38836051311E+02  0.40659143486E+02  0.00000000000E+00 0.  1.
         11    1    3    3    0    0  0.11121548889E+01 -0.56084740432E+01 -0.59268922579E+00  0.57483171772E+01  0.51100000000E-03 0. -1.
        -11    1    3    3    0    0 -0.12106882630E+00  0.33802706724E+01  0.68623734452E+00  0.34513489296E+01  0.51100000000E-03 0.  1.
        -12    1    3    3    0    0 -0.12207990040E+02  0.65994884007E+01 -0.38929599429E+02  0.41329190407E+02  0.00000000000E+00 0.  1.
</event>
<event>
 7    1  0.5487071E-013  0.5052886E+02  0.7816164E-02  0.1300439E+00
        -11   -1    0    0    0    0  0.00000000000E+00  0.00000000000E+00  0.45593999997E+02  0.45594000000E+02  0.51100000000E-03 0.  1.
         11   -1    0    0    0    0 -0.00000000000E+00 -0.00000000000E+00 -0.45593999997E+02  0.45594000000E+02  0.51100000000E-03 0. -1.
    9900012    2    1    2    0    0  0.17029126982E+02  0.30273220115E+02 -0.21135443766E+02  0.50528855825E+02  0.29999987766E+02 0.  0.
        -12    1    1    2    0    0 -0.17029126982E+02 -0.30273220115E+02  0.21135443766E+02  0.40659144175E+02  0.00000000000E+00 0.  1.
         11    1    3    3    0    0  0.12171099625E+02  0.23408496290E+01 -0.61269612824E+01  0.13825877834E+02  0.51100000000E-03 0. -1.
        -11    1    3    3    0    0  0.10462058824E+02  0.10255866244E+02 -0.42057103318E+01  0.15242226442E+02  0.51100000000E-03 0.  1.
        -12    1    3    3    0    0 -0.56040314672E+01  0.17676504241E+02 -0.10802772152E+02  0.21460751549E+02  0.00000000000E+00 0.  1.
</event>
<event>
 7    1  0.5487071E-013  0.5052885E+02  0.7816164E-02  0.1300439E+00
        -11   -1    0    0    0    0  0.00000000000E+00  0.00000000000E+00  0.45593999997E+02  0.45594000000E+02  0.51100000000E-03 0. -1.
         11   -1    0    0    0    0 -0.00000000000E+00 -0.00000000000E+00 -0.45593999997E+02  0.45594000000E+02  0.51100000000E-03 0.  1.
    9900012    2    1    2    0    0  0.32868383609E+02 -0.21641463403E+02  0.10221700311E+02  0.50528846830E+02  0.29999960424E+02 0.  0.
        -12    1    1    2    0    0 -0.32868383609E+02  0.21641463403E+02 -0.10221700311E+02  0.40659153170E+02  0.00000000000E+00 0.  1.
         11    1    3    3    0    0  0.13958619968E+02 -0.62515943277E+00 -0.33318728232E+01  0.14364375117E+02  0.51100000000E-03 0. -1.
        -11    1    3    3    0    0  0.95373364839E+01  0.96453965218E+00  0.30225825868E+01  0.10051225284E+02  0.51100000000E-03 0.  1.
         12    1    3    3    0    0  0.93724271562E+01 -0.21980843622E+02  0.10530990548E+02  0.26113246429E+02  0.00000000000E+00 0. -1.
</event>
<event>
 7    1  0.5487071E-013  0.5052886E+02  0.7816164E-02  0.1300439E+00
        -11   -1    0    0    0    0  0.00000000000E+00  0.00000000000E+00  0.45593999997E+02  0.45594000000E+02  0.51100000000E-03 0. -1.
         11   -1    0    0    0    0 -0.00000000000E+00 -0.00000000000E+00 -0.45593999997E+02  0.45594000000E+02  0.51100000000E-03 0.  1.
    9900012    2    1    2    0    0 -0.38171902858E+02 -0.83364872549E+01 -0.11250533663E+02  0.50528859635E+02  0.29999999347E+02 0.  0.
        -12    1    1    2    0    0  0.38171902858E+02  0.83364872549E+01  0.11250533663E+02  0.40659140365E+02  0.00000000000E+00 0.  1.
         11    1    3    3    0    0 -0.18844354298E+02 -0.10833244123E+02 -0.27823650797E+01  0.21913703997E+02  0.51100000000E-03 0. -1.
        -11    1    3    3    0    0  0.38727920572E+01  0.12503220751E+01 -0.17467644014E+01  0.44286577815E+01  0.51100000000E-03 0.  1.
         12    1    3    3    0    0 -0.23200340617E+02  0.12464347930E+01 -0.67214041816E+01  0.24186497857E+02  0.00000000000E+00 0. -1.
</event>
<event>
 7    1  0.5487071E-013  0.5052885E+02  0.7816164E-02  0.1300439E+00
        -11   -1    0    0    0    0  0.00000000000E+00  0.00000000000E+00  0.45593999997E+02  0.45594000000E+02  0.51100000000E-03 0.  1.
         11   -1    0    0    0    0 -0.00000000000E+00 -0.00000000000E+00 -0.45593999997E+02  0.45594000000E+02  0.51100000000E-03 0. -1.
    9900012    2    1    2    0    0 -0.82029388656E+01 -0.36633190594E+02 -0.15616892113E+02  0.50528853693E+02  0.29999981285E+02 0.  0.
        -12    1    1    2    0    0  0.82029388656E+01  0.36633190594E+02  0.15616892113E+02  0.40659146307E+02  0.00000000000E+00 0.  1.
         11    1    3    3    0    0 -0.18810536554E+02 -0.22787865988E+02 -0.74598937024E+01  0.30475779499E+02  0.51100000000E-03 0. -1.
        -11    1    3    3    0    0  0.15303029554E+01 -0.33852268976E+00 -0.22468291000E+01  0.27394645485E+01  0.51100000000E-03 0.  1.
        -12    1    3    3    0    0  0.90772947332E+01 -0.13506801916E+02 -0.59101693105E+01  0.17313609645E+02  0.00000000000E+00 0.  1.
</event>
<event>
 7    1  0.5487071E-013  0.5052886E+02  0.7816164E-02  0.1300439E+00
        -11   -1    0    0    0    0  0.00000000000E+00  0.00000000000E+00  0.45593999997E+02  0.45594000000E+02  0.51100000000E-03 0.  1.
         11   -1    0    0    0    0 -0.00000000000E+00 -0.00000000000E+00 -0.45593999997E+02  0.45594000000E+02  0.51100000000E-03 0. -1.
    9900012    2    1    2    0    0 -0.82550773867E+01 -0.56715512583E+01 -0.39406255175E+02  0.50528859045E+02  0.29999997552E+02 0.  0.
        -12    1    1    2    0    0  0.82550773867E+01  0.56715512583E+01  0.39406255175E+02  0.40659140955E+02  0.00000000000E+00 0.  1.
         11    1    3    3    0    0  0.51272500308E+01  0.69257208504E+01 -0.12213205630E+02  0.14947129965E+02  0.51100000000E-03 0. -1.
        -11    1    3    3    0    0  0.47387711543E+00 -0.77885843402E+01 -0.61680372689E+01  0.99464209421E+01  0.51100000000E-03 0.  1.
         12    1    3    3    0    0 -0.13856204533E+02 -0.48086877685E+01 -0.21025012276E+02  0.25635308138E+02  0.00000000000E+00 0. -1.
</event>
<event>
 7    1  0.5487071E-013  0.5052886E+02  0.7816164E-02  0.1300439E+00
        -11   -1    0    0    0    0  0.00000000000E+00  0.00000000000E+00  0.45593999997E+02  0.45594000000E+02  0.51100000000E-03 0. -1.
         11   -1    0    0    0    0 -0.00000000000E+00 -0.00000000000E+00 -0.45593999997E+02  0.45594000000E+02  0.51100000000E-03 0.  1.
    9900012    2    1    2    0    0 -0.11196592996E+01  0.36271276382E+02  0.18338662068E+02  0.50528860145E+02  0.30000000896E+02 0.  0.
        -12    1    1    2    0    0  0.11196592996E+01 -0.36271276382E+02 -0.18338662068E+02  0.40659139855E+02  0.00000000000E+00 0.  1.
         11    1    3    3    0    0  0.19561165422E+01  0.67856817734E+01  0.47257294691E+01  0.84973165372E+01  0.51100000000E-03 0. -1.
        -11    1    3    3    0    0  0.36036289823E+01  0.23712152670E+02  0.19922882598E+02  0.31179698161E+02  0.51100000000E-03 0.  1.
        -12    1    3    3    0    0 -0.66794048241E+01  0.57734419382E+01 -0.63099499989E+01  0.10851845447E+02  0.00000000000E+00 0.  1.
</event>
<event>
 7    1  0.5487071E-013  0.5052886E+02  0.7816164E-02  0.1300439E+00
        -11   -1    0    0    0    0  0.00000000000E+00  0.00000000000E+00  0.45593999997E+02  0.45594000000E+02  0.51100000000E-03 0. -1.
         11   -1    0    0    0    0 -0.00000000000E+00 -0.00000000000E+00 -0.45593999997E+02  0.45594000000E+02  0.51100000000E-03 0.  1.
    9900012    2    1    2    0    0 -0.22106417416E+02  0.28130226888E+02  0.19317418062E+02  0.50528855932E+02  0.29999988091E+02 0.  0.
        -12    1    1    2    0    0  0.22106417416E+02 -0.28130226888E+02 -0.19317418062E+02  0.40659144068E+02  0.00000000000E+00 0.  1.
         11    1    3    3    0    0  0.15733445804E+01  0.13528903409E+02  0.69718314405E+01  0.15300754051E+02  0.51100000000E-03 0. -1.
        -11    1    3    3    0    0 -0.73135742882E+01  0.22064950284E+01  0.12555616357E+02  0.14696955179E+02  0.51100000000E-03 0.  1.
        -12    1    3    3    0    0 -0.16366187708E+02  0.12394828451E+02 -0.21002973477E+00  0.20531146702E+02  0.00000000000E+00 0.  1.
</event>
<event>
 7    1  0.5487071E-013  0.5052885E+02  0.7816164E-02  0.1300439E+00
        -11   -1    0    0    0    0  0.00000000000E+00  0.00000000000E+00  0.45593999997E+02  0.45594000000E+02  0.51100000000E-03 0. -1.
         11   -1    0    0    0    0 -0.00000000000E+00 -0.00000000000E+00 -0.45593999997E+02  0.45594000000E+02  0.51100000000E-03 0.  1.
    9900012    2    1    2    0    0  0.10257478889E+02 -0.23544777584E+02  0.31521324734E+02  0.50528851735E+02  0.29999975334E+02 0.  0.
        -12    1    1    2    0    0 -0.10257478889E+02  0.23544777584E+02 -0.31521324734E+02  0.40659148265E+02  0.00000000000E+00 0.  1.
         11    1    3    3    0    0  0.82349317423E+01 -0.77071218858E+01  0.26542092323E+01  0.11587003731E+02  0.51100000000E-03 0. -1.
        -11    1    3    3    0    0 -0.83793210441E+00 -0.10520404700E+02  0.11978632781E+01  0.10621483981E+02  0.51100000000E-03 0.  1.
         12    1    3    3    0    0  0.28604792511E+01 -0.53172509977E+01  0.27669252224E+02  0.28320364022E+02  0.00000000000E+00 0. -1.
</event>
<event>
 7    1  0.5487071E-013  0.5052887E+02  0.7816164E-02  0.1300439E+00
        -11   -1    0    0    0    0  0.00000000000E+00  0.00000000000E+00  0.45593999997E+02  0.45594000000E+02  0.51100000000E-03 0.  1.
         11   -1    0    0    0    0 -0.00000000000E+00 -0.00000000000E+00 -0.45593999997E+02  0.45594000000E+02  0.51100000000E-03 0. -1.
    9900012    2    1    2    0    0  0.32605751702E+02  0.78574677160E+01 -0.22984567010E+02  0.50528866173E+02  0.30000019218E+02 0.  0.
        -12    1    1    2    0    0 -0.32605751702E+02 -0.78574677160E+01  0.22984567010E+02  0.40659133827E+02  0.00000000000E+00 0.  1.
         11    1    3    3    0    0  0.12411002119E+02  0.12100381876E+01 -0.15198398851E+02  0.19659310617E+02  0.51100000000E-03 0. -1.
        -11    1    3    3    0    0 -0.18332118442E-01  0.19146218027E+00 -0.95734341400E+01  0.95753660675E+01  0.51100000000E-03 0.  1.
        -12    1    3    3    0    0  0.20213081701E+02  0.64559673481E+01  0.17872659818E+01  0.21294189488E+02  0.00000000000E+00 0.  1.
</event>
<event>
 7    1  0.5487071E-013  0.5052887E+02  0.7816164E-02  0.1300439E+00
        -11   -1    0    0    0    0  0.00000000000E+00  0.00000000000E+00  0.45593999997E+02  0.45594000000E+02  0.51100000000E-03 0. -1.
         11   -1    0    0    0    0 -0.00000000000E+00 -0.00000000000E+00 -0.45593999997E+02  0.45594000000E+02  0.51100000000E-03 0.  1.
    9900012    2    1    2    0    0  0.17206448042E+02  0.34176185061E+02  0.13751047285E+02  0.50528870878E+02  0.30000033520E+02 0.  0.
        -12    1    1    2    0    0 -0.17206448042E+02 -0.34176185061E+02 -0.13751047285E+02  0.40659129122E+02  0.00000000000E+00 0.  1.
         11    1    3    3    0    0  0.11489282256E+02  0.15972238421E+02  0.57951675388E+01  0.20510972039E+02  0.51100000000E-03 0. -1.
        -11    1    3    3    0    0 -0.14441475004E+01  0.73369603208E+01 -0.69647942194E+01  0.10218850597E+02  0.51100000000E-03 0.  1.
         12    1    3    3    0    0  0.71613132867E+01  0.10866986319E+02  0.14920673966E+02  0.19799048241E+02  0.00000000000E+00 0. -1.
</event>
<event>
 7    1  0.5487071E-013  0.5052885E+02  0.7816164E-02  0.1300439E+00
        -11   -1    0    0    0    0  0.00000000000E+00  0.00000000000E+00  0.45593999997E+02  0.45594000000E+02  0.51100000000E-03 0.  1.
         11   -1    0    0    0    0 -0.00000000000E+00 -0.00000000000E+00 -0.45593999997E+02  0.45594000000E+02  0.51100000000E-03 0. -1.
    9900012    2    1    2    0    0 -0.36557650767E+01 -0.39154573866E+02 -0.10330576218E+02  0.50528854929E+02  0.29999985042E+02 0.  0.
        -12    1    1    2    0    0  0.36557650767E+01  0.39154573866E+02  0.10330576218E+02  0.40659145071E+02  0.00000000000E+00 0.  1.
         11    1    3    3    0    0 -0.19257644264E+01 -0.31572526737E+01 -0.93056700354E+01  0.10013606151E+02  0.51100000000E-03 0. -1.
        -11    1    3    3    0    0  0.17380387317E+00 -0.74194851638E+01  0.75810984589E+01  0.10609053774E+02  0.51100000000E-03 0.  1.
         12    1    3    3    0    0 -0.19038045234E+01 -0.28577836028E+02 -0.86060046415E+01  0.29906195004E+02  0.00000000000E+00 0. -1.
</event>
<event>
 7    1  0.5487071E-013  0.5052887E+02  0.7816164E-02  0.1300439E+00
        -11   -1    0    0    0    0  0.00000000000E+00  0.00000000000E+00  0.45593999997E+02  0.45594000000E+02  0.51100000000E-03 0. -1.
         11   -1    0    0    0    0 -0.00000000000E+00 -0.00000000000E+00 -0.45593999997E+02  0.45594000000E+02  0.51100000000E-03 0.  1.
    9900012    2    1    2    0    0  0.16363362705E+02  0.10328216936E+02  0.35759383902E+02  0.50528865219E+02  0.30000016319E+02 0.  0.
        -12    1    1    2    0    0 -0.16363362705E+02 -0.10328216936E+02 -0.35759383902E+02  0.40659134781E+02  0.00000000000E+00 0.  1.
         11    1    3    3    0    0  0.16335444008E+02  0.48757857984E+01  0.15844670475E+02  0.23273882375E+02  0.51100000000E-03 0. -1.
        -11    1    3    3    0    0  0.58108990669E+01  0.73684142778E+01  0.39758550400E+01  0.10191540634E+02  0.51100000000E-03 0.  1.
        -12    1    3    3    0    0 -0.57829803695E+01 -0.19159831406E+01  0.15938858388E+02  0.17063442210E+02  0.00000000000E+00 0.  1.
</event>
<event>
 7    1  0.5487071E-013  0.5052872E+02  0.7816164E-02  0.1300439E+00
        -11   -1    0    0    0    0  0.00000000000E+00  0.00000000000E+00  0.45593999997E+02  0.45594000000E+02  0.51100000000E-03 0.  1.
         11   -1    0    0    0    0 -0.00000000000E+00 -0.00000000000E+00 -0.45593999997E+02  0.45594000000E+02  0.51100000000E-03 0. -1.
    9900012    2    1    2    0    0  0.17340344744E+02  0.36514893372E+02 -0.43762867012E+01  0.50528722103E+02  0.29999581300E+02 0.  0.
        -12    1    1    2    0    0 -0.17340344744E+02 -0.36514893372E+02  0.43762867012E+01  0.40659277897E+02  0.00000000000E+00 0.  1.
         11    1    3    3    0    0  0.85241392991E+01  0.22389486601E+02  0.23872596551E+01  0.24075902267E+02  0.51100000000E-03 0. -1.
        -11    1    3    3    0    0  0.13558809217E+02  0.35993774587E+01 -0.37168598229E+01  0.14512473004E+02  0.51100000000E-03 0.  1.
         12    1    3    3    0    0 -0.47426037722E+01  0.10526029312E+02 -0.30466865334E+01  0.11940346832E+02  0.00000000000E+00 0. -1.
</event>
<event>
 7    1  0.5487071E-013  0.5052886E+02  0.7816164E-02  0.1300439E+00
        -11   -1    0    0    0    0  0.00000000000E+00  0.00000000000E+00  0.45593999997E+02  0.45594000000E+02  0.51100000000E-03 0. -1.
         11   -1    0    0    0    0 -0.00000000000E+00 -0.00000000000E+00 -0.45593999997E+02  0.45594000000E+02  0.51100000000E-03 0.  1.
    9900012    2    1    2    0    0  0.37668625872E+02 -0.10416750151E+02 -0.11213002732E+02  0.50528862170E+02  0.30000007052E+02 0.  0.
        -12    1    1    2    0    0 -0.37668625872E+02  0.10416750151E+02  0.11213002732E+02  0.40659137830E+02  0.00000000000E+00 0.  1.
         11    1    3    3    0    0  0.18333104146E+02  0.90889985989E+00 -0.14538645658E+01  0.18413107533E+02  0.51100000000E-03 0. -1.
        -11    1    3    3    0    0  0.15879118094E+01  0.55672876079E+01 -0.37166565835E+01  0.68796578145E+01  0.51100000000E-03 0.  1.
        -12    1    3    3    0    0  0.17747609917E+02 -0.16892937619E+02 -0.60424815831E+01  0.25236096823E+02  0.00000000000E+00 0.  1.
</event>
<event>
 7    1  0.5487071E-013  0.5052887E+02  0.7816164E-02  0.1300439E+00
        -11   -1    0    0    0    0  0.00000000000E+00  0.00000000000E+00  0.45593999997E+02  0.45594000000E+02  0.51100000000E-03 0.  1.
         11   -1    0    0    0    0 -0.00000000000E+00 -0.00000000000E+00 -0.45593999997E+02  0.45594000000E+02  0.51100000000E-03 0. -1.
    9900012    2    1    2    0    0  0.12140362281E+02 -0.21683795620E+02 -0.32180574200E+02  0.50528871324E+02  0.30000034878E+02 0.  0.
        -12    1    1    2    0    0 -0.12140362281E+02  0.21683795620E+02  0.32180574200E+02  0.40659128676E+02  0.00000000000E+00 0.  1.
         11    1    3    3    0    0  0.12135370017E+02 -0.16285220136E+02 -0.14755289005E+02  0.25103668142E+02  0.51100000000E-03 0. -1.
        -11    1    3    3    0    0 -0.20053953690E+01 -0.54349314753E+01  0.18222345442E+01  0.60729424271E+01  0.51100000000E-03 0.  1.
         12    1    3    3    0    0  0.20103876329E+01  0.36355991688E-01 -0.19247519740E+02  0.19352260755E+02  0.00000000000E+00 0. -1.
</event>
<event>
 7    1  0.5487071E-013  0.5052886E+02  0.7816164E-02  0.1300439E+00
        -11   -1    0    0    0    0  0.00000000000E+00  0.00000000000E+00  0.45593999997E+02  0.45594000000E+02  0.51100000000E-03 0.  1.
         11   -1    0    0    0    0 -0.00000000000E+00 -0.00000000000E+00 -0.45593999997E+02  0.45594000000E+02  0.51100000000E-03 0. -1.
    9900012    2    1    2    0    0  0.68750637861E+01  0.16172039352E+02 -0.36665572235E+02  0.50528861468E+02  0.30000004919E+02 0.  0.
        -12    1    1    2    0    0 -0.68750637861E+01 -0.16172039352E+02  0.36665572235E+02  0.40659138532E+02  0.00000000000E+00 0.  1.
         11    1    3    3    0    0  0.20980584689E+01  0.89318573401E+01 -0.19089632379E+02  0.21180037524E+02  0.51100000000E-03 0. -1.
        -11    1    3    3    0    0  0.55836123837E+01  0.11359665882E+02 -0.20598052665E+02  0.24176403993E+02  0.51100000000E-03 0.  1.
        -12    1    3    3    0    0 -0.80660706646E+00 -0.41194838704E+01  0.30221128093E+01  0.51724199511E+01  0.00000000000E+00 0.  1.
</event>
<event>
 7    1  0.5487071E-013  0.5052886E+02  0.7816164E-02  0.1300439E+00
        -11   -1    0    0    0    0  0.00000000000E+00  0.00000000000E+00  0.45593999997E+02  0.45594000000E+02  0.51100000000E-03 0. -1.
         11   -1    0    0    0    0 -0.00000000000E+00 -0.00000000000E+00 -0.45593999997E+02  0.45594000000E+02  0.51100000000E-03 0.  1.
    9900012    2    1    2    0    0  0.21350120511E+02 -0.13219460721E+02  0.31977869771E+02  0.50528856592E+02  0.29999990097E+02 0.  0.
        -12    1    1    2    0    0 -0.21350120511E+02  0.13219460721E+02 -0.31977869771E+02  0.40659143408E+02  0.00000000000E+00 0.  1.
         11    1    3    3    0    0  0.68579151522E+01 -0.28259550152E+01  0.27023765068E+02  0.28023220741E+02  0.51100000000E-03 0. -1.
        -11    1    3    3    0    0  0.14534428286E+02 -0.10723943706E+02  0.77752653899E+01  0.19664875447E+02  0.51100000000E-03 0.  1.
        -12    1    3    3    0    0 -0.42222926659E-01  0.33043800003E+00 -0.28211606875E+01  0.28407604038E+01  0.00000000000E+00 0.  1.
</event>
<event>
 7    1  0.5487071E-013  0.5052886E+02  0.7816164E-02  0.1300439E+00
        -11   -1    0    0    0    0  0.00000000000E+00  0.00000000000E+00  0.45593999997E+02  0.45594000000E+02  0.51100000000E-03 0.  1.
         11   -1    0    0    0    0 -0.00000000000E+00 -0.00000000000E+00 -0.45593999997E+02  0.45594000000E+02  0.51100000000E-03 0. -1.
    9900012    2    1    2    0    0  0.44660218892E+00  0.37376159883E+02 -0.15999655651E+02  0.50528858813E+02  0.29999996847E+02 0.  0.
        -12    1    1    2    0    0 -0.44660218892E+00 -0.37376159883E+02  0.15999655651E+02  0.40659141187E+02  0.00000000000E+00 0.  1.
         11    1    3    3    0    0  0.12939305141E+01  0.83465489436E+01  0.50565390066E+01  0.98441720032E+01  0.51100000000E-03 0. -1.
        -11    1    3    3    0    0 -0.55960378367E+01  0.51570099801E+00 -0.54765607862E+01  0.78469296732E+01  0.51100000000E-03 0.  1.
         12    1    3    3    0    0  0.47487095115E+01  0.28513909942E+02 -0.15579633871E+02  0.32837757136E+02  0.00000000000E+00 0. -1.
</event>
<event>
 7    1  0.5487071E-013  0.5052881E+02  0.7816164E-02  0.1300439E+00
        -11   -1    0    0    0    0  0.00000000000E+00  0.00000000000E+00  0.45593999997E+02  0.45594000000E+02  0.51100000000E-03 0.  1.
         11   -1    0    0    0    0 -0.00000000000E+00 -0.00000000000E+00 -0.45593999997E+02  0.45594000000E+02  0.51100000000E-03 0. -1.
    9900012    2    1    2    0    0  0.31585500583E+02 -0.23808667208E+02 -0.94166302052E+01  0.50528814006E+02  0.29999860651E+02 0.  0.
        -12    1    1    2    0    0 -0.31585500583E+02  0.23808667208E+02  0.94166302052E+01  0.40659185994E+02  0.00000000000E+00 0.  1.
         11    1    3    3    0    0  0.11878687354E+02 -0.56575157193E+01 -0.54145215948E+01  0.14227710348E+02  0.51100000000E-03 0. -1.
        -11    1    3    3    0    0  0.16511665159E+02 -0.22232219837E+02 -0.89820983787E+01  0.29113309271E+02  0.51100000000E-03 0.  1.
         12    1    3    3    0    0  0.31951480700E+01  0.40810683480E+01  0.49799897683E+01  0.71877943865E+01  0.00000000000E+00 0. -1.
</event>
<event>
 7    1  0.5487071E-013  0.5052891E+02  0.7816164E-02  0.1300439E+00
        -11   -1    0    0    0    0  0.00000000000E+00  0.00000000000E+00  0.45593999997E+02  0.45594000000E+02  0.51100000000E-03 0.  1.
         11   -1    0    0    0    0 -0.00000000000E+00 -0.00000000000E+00 -0.45593999997E+02  0.45594000000E+02  0.51100000000E-03 0. -1.
    9900012    2    1    2    0    0  0.23637588660E+02 -0.54574912296E+01 -0.32628843344E+02  0.50528914593E+02  0.30000166396E+02 0.  0.
        -12    1    1    2    0    0 -0.23637588660E+02  0.54574912296E+01  0.32628843344E+02  0.40659085407E+02  0.00000000000E+00 0.  1.
         11    1    3    3    0    0 -0.44092357102E+01  0.21661351095E+01 -0.70274549223E+01  0.85743001934E+01  0.51100000000E-03 0. -1.
        -11    1    3    3    0    0 -0.67974959382E+00 -0.23661325832E+01  0.79734917686E+00  0.25877420432E+01  0.51100000000E-03 0.  1.
        -12    1    3    3    0    0  0.28726573964E+02 -0.52574937560E+01 -0.26398737599E+02  0.39366872356E+02  0.00000000000E+00 0.  1.
</event>
<event>
 7    1  0.5487071E-013  0.5052886E+02  0.7816164E-02  0.1300439E+00
        -11   -1    0    0    0    0  0.00000000000E+00  0.00000000000E+00  0.45593999997E+02  0.45594000000E+02  0.51100000000E-03 0.  1.
         11   -1    0    0    0    0 -0.00000000000E+00 -0.00000000000E+00 -0.45593999997E+02  0.45594000000E+02  0.51100000000E-03 0. -1.
    9900012    2    1    2    0    0 -0.10299206327E+02  0.37155659266E+02 -0.12905370889E+02  0.50528864936E+02  0.30000015458E+02 0.  0.
        -12    1    1    2    0    0  0.10299206327E+02 -0.37155659266E+02  0.12905370889E+02  0.40659135064E+02  0.00000000000E+00 0.  1.
         11    1    3    3    0    0 -0.16194933709E+01  0.14049060787E+02 -0.15803413617E+02  0.21207233435E+02  0.51100000000E-03 0. -1.
        -11    1    3    3    0    0 -0.28224799878E+01  0.22939055682E+02  0.89593871077E+00  0.23129404992E+02  0.51100000000E-03 0.  1.
         12    1    3    3    0    0 -0.58572329681E+01  0.16754279671E+00  0.20021040174E+01  0.61922265081E+01  0.00000000000E+00 0. -1.
</event>
<event>
 7    1  0.5487071E-013  0.5052888E+02  0.7816164E-02  0.1300439E+00
        -11   -1    0    0    0    0  0.00000000000E+00  0.00000000000E+00  0.45593999997E+02  0.45594000000E+02  0.51100000000E-03 0. -1.
         11   -1    0    0    0    0 -0.00000000000E+00 -0.00000000000E+00 -0.45593999997E+02  0.45594000000E+02  0.51100000000E-03 0.  1.
    9900012    2    1    2    0    0 -0.10388798291E+02  0.28642866823E+02  0.26922545206E+02  0.50528875684E+02  0.30000048129E+02 0.  0.
        -12    1    1    2    0    0  0.10388798291E+02 -0.28642866823E+02 -0.26922545206E+02  0.40659124316E+02  0.00000000000E+00 0.  1.
         11    1    3    3    0    0 -0.34676705118E+00  0.15854997384E+02  0.10425973943E+02  0.18978991605E+02  0.51100000000E-03 0. -1.
        -11    1    3    3    0    0  0.61099486097E+00  0.49358892898E+01 -0.45154333553E+01  0.67175483957E+01  0.51100000000E-03 0.  1.
         12    1    3    3    0    0 -0.10653026101E+02  0.78519801491E+01  0.21012004618E+02  0.24832335683E+02  0.00000000000E+00 0. -1.
</event>
<event>
 7    1  0.5487071E-013  0.5052887E+02  0.7816164E-02  0.1300439E+00
        -11   -1    0    0    0    0  0.00000000000E+00  0.00000000000E+00  0.45593999997E+02  0.45594000000E+02  0.51100000000E-03 0.  1.
         11   -1    0    0    0    0 -0.00000000000E+00 -0.00000000000E+00 -0.45593999997E+02  0.45594000000E+02  0.51100000000E-03 0. -1.
    9900012    2    1    2    0    0 -0.59471326956E+01 -0.14426022634E+02 -0.37545784552E+02  0.50528874899E+02  0.30000045744E+02 0.  0.
        -12    1    1    2    0    0  0.59471326956E+01  0.14426022634E+02  0.37545784552E+02  0.40659125101E+02  0.00000000000E+00 0.  1.
         11    1    3    3    0    0 -0.11349271183E+01  0.42986229043E+01 -0.75405982894E+01  0.87536758714E+01  0.51100000000E-03 0. -1.
        -11    1    3    3    0    0 -0.96241731167E+01 -0.58296458160E+00 -0.62097441551E+01  0.11468455808E+02  0.51100000000E-03 0.  1.
         12    1    3    3    0    0  0.48119675395E+01 -0.18141680957E+02 -0.23795442107E+02  0.30306743220E+02  0.00000000000E+00 0. -1.
</event>
<event>
 7    1  0.5487071E-013  0.5052886E+02  0.7816164E-02  0.1300439E+00
        -11   -1    0    0    0    0  0.00000000000E+00  0.00000000000E+00  0.45593999997E+02  0.45594000000E+02  0.51100000000E-03 0. -1.
         11   -1    0    0    0    0 -0.00000000000E+00 -0.00000000000E+00 -0.45593999997E+02  0.45594000000E+02  0.51100000000E-03 0.  1.
    9900012    2    1    2    0    0 -0.39431359236E+02  0.72925690845E+01  0.67195428502E+01  0.50528856980E+02  0.29999991275E+02 0.  0.
        -12    1    1    2    0    0  0.39431359236E+02 -0.72925690845E+01 -0.67195428502E+01  0.40659143020E+02  0.00000000000E+00 0.  1.
         11    1    3    3    0    0 -0.24379941133E+02  0.67398977540E+00  0.11221940752E+02  0.26847118028E+02  0.51100000000E-03 0. -1.
        -11    1    3    3    0    0 -0.14607287606E+01  0.66421633215E+01  0.37654644103E+01  0.77737239845E+01  0.51100000000E-03 0.  1.
        -12    1    3    3    0    0 -0.13590689342E+02 -0.23584012344E-01 -0.82678623123E+01  0.15908014967E+02  0.00000000000E+00 0.  1.
</event>
<event>
 7    1  0.5487071E-013  0.5052886E+02  0.7816164E-02  0.1300439E+00
        -11   -1    0    0    0    0  0.00000000000E+00  0.00000000000E+00  0.45593999997E+02  0.45594000000E+02  0.51100000000E-03 0.  1.
         11   -1    0    0    0    0 -0.00000000000E+00 -0.00000000000E+00 -0.45593999997E+02  0.45594000000E+02  0.51100000000E-03 0. -1.
    9900012    2    1    2    0    0  0.81932242613E+01  0.48165715788E+01 -0.39532739101E+02  0.50528859005E+02  0.29999997433E+02 0.  0.
        -12    1    1    2    0    0 -0.81932242613E+01 -0.48165715788E+01  0.39532739101E+02  0.40659140995E+02  0.00000000000E+00 0.  1.
         11    1    3    3    0    0  0.61258456330E+01  0.11615372833E+02 -0.15867373431E+02  0.20596514526E+02  0.51100000000E-03 0. -1.
        -11    1    3    3    0    0  0.11639954242E+01  0.45145036965E+01 -0.14841126894E+02  0.15556178089E+02  0.51100000000E-03 0.  1.
        -12    1    3    3    0    0  0.90338320412E+00 -0.11313304951E+02 -0.88242387765E+01  0.14376166391E+02  0.00000000000E+00 0.  1.
</event>
<event>
 7    1  0.5487071E-013  0.5052888E+02  0.7816164E-02  0.1300439E+00
        -11   -1    0    0    0    0  0.00000000000E+00  0.00000000000E+00  0.45593999997E+02  0.45594000000E+02  0.51100000000E-03 0. -1.
         11   -1    0    0    0    0 -0.00000000000E+00 -0.00000000000E+00 -0.45593999997E+02  0.45594000000E+02  0.51100000000E-03 0.  1.
    9900012    2    1    2    0    0  0.31362340617E+02  0.25627751877E+02 -0.35757317186E+01  0.50528881311E+02  0.30000065233E+02 0.  0.
        -12    1    1    2    0    0 -0.31362340617E+02 -0.25627751877E+02  0.35757317186E+01  0.40659118689E+02  0.00000000000E+00 0.  1.
         11    1    3    3    0    0  0.21702328051E+02  0.11128818415E+02  0.39182242361E+01  0.24702107675E+02  0.51100000000E-03 0. -1.
        -11    1    3    3    0    0 -0.27319157784E+01 -0.20219242856E+01  0.92879619561E+00  0.35233796660E+01  0.51100000000E-03 0.  1.
         12    1    3    3    0    0  0.12391928344E+02  0.16520857748E+02 -0.84227521504E+01  0.22303393970E+02  0.00000000000E+00 0. -1.
</event>
<event>
 7    1  0.5487071E-013  0.5052886E+02  0.7816164E-02  0.1300439E+00
        -11   -1    0    0    0    0  0.00000000000E+00  0.00000000000E+00  0.45593999997E+02  0.45594000000E+02  0.51100000000E-03 0.  1.
         11   -1    0    0    0    0 -0.00000000000E+00 -0.00000000000E+00 -0.45593999997E+02  0.45594000000E+02  0.51100000000E-03 0. -1.
    9900012    2    1    2    0    0 -0.10910102891E-02  0.18517196026E+02 -0.36197775467E+02  0.50528862053E+02  0.30000006697E+02 0.  0.
        -12    1    1    2    0    0  0.10910102891E-02 -0.18517196026E+02  0.36197775467E+02  0.40659137947E+02  0.00000000000E+00 0.  1.
         11    1    3    3    0    0 -0.79579728639E+01  0.83052783613E+01 -0.13152781311E+02  0.17472911527E+02  0.51100000000E-03 0. -1.
        -11    1    3    3    0    0  0.21531925109E+01  0.44674140373E+01  0.29760515587E+01  0.57836761071E+01  0.51100000000E-03 0.  1.
         12    1    3    3    0    0  0.58036893427E+01  0.57445036274E+01 -0.26021045715E+02  0.27272274419E+02  0.00000000000E+00 0. -1.
</event>
<event>
 7    1  0.5487071E-013  0.5052886E+02  0.7816164E-02  0.1300439E+00
        -11   -1    0    0    0    0  0.00000000000E+00  0.00000000000E+00  0.45593999997E+02  0.45594000000E+02  0.51100000000E-03 0.  1.
         11   -1    0    0    0    0 -0.00000000000E+00 -0.00000000000E+00 -0.45593999997E+02  0.45594000000E+02  0.51100000000E-03 0. -1.
    9900012    2    1    2    0    0 -0.31059995888E+02 -0.15760751057E+02 -0.20977147476E+02  0.50528864069E+02  0.30000012824E+02 0.  0.
        -12    1    1    2    0    0  0.31059995888E+02  0.15760751057E+02  0.20977147476E+02  0.40659135931E+02  0.00000000000E+00 0.  1.
         11    1    3    3    0    0 -0.13139340239E+02 -0.18235918633E+02 -0.17183654035E+02  0.28292560092E+02  0.51100000000E-03 0. -1.
        -11    1    3    3    0    0 -0.60127795976E+01 -0.38531957157E+01 -0.49690859458E+01  0.87001408673E+01  0.51100000000E-03 0.  1.
        -12    1    3    3    0    0 -0.11907876051E+02  0.63283632912E+01  0.11755925049E+01  0.13536163110E+02  0.00000000000E+00 0.  1.
</event>
<event>
 7    1  0.5487071E-013  0.5052896E+02  0.7816164E-02  0.1300438E+00
        -11   -1    0    0    0    0  0.00000000000E+00  0.00000000000E+00  0.45593999997E+02  0.45594000000E+02  0.51100000000E-03 0. -1.
         11   -1    0    0    0    0 -0.00000000000E+00 -0.00000000000E+00 -0.45593999997E+02  0.45594000000E+02  0.51100000000E-03 0.  1.
    9900012    2    1    2    0    0  0.30947218576E+02  0.26314532710E+02 -0.17241713937E+01  0.50528957508E+02  0.30000296841E+02 0.  0.
        -12    1    1    2    0    0 -0.30947218576E+02 -0.26314532710E+02  0.17241713937E+01  0.40659042492E+02  0.00000000000E+00 0.  1.
         11    1    3    3    0    0  0.12916038909E+02  0.83769254016E+01 -0.40674225909E+01  0.15922966655E+02  0.51100000000E-03 0.  1.
        -11    1    3    3    0    0  0.23736151838E+02  0.14216245955E+02  0.11563012500E+01  0.27691940812E+02  0.51100000000E-03 0. -1.
        -12    1    3    3    0    0 -0.57049721712E+01  0.37213613535E+01  0.11869499472E+01  0.69140500414E+01  0.00000000000E+00 0.  1.
</event>
<event>
 7    1  0.5487071E-013  0.5052881E+02  0.7816164E-02  0.1300439E+00
        -11   -1    0    0    0    0  0.00000000000E+00  0.00000000000E+00  0.45593999997E+02  0.45594000000E+02  0.51100000000E-03 0.  1.
         11   -1    0    0    0    0 -0.00000000000E+00 -0.00000000000E+00 -0.45593999997E+02  0.45594000000E+02  0.51100000000E-03 0. -1.
    9900012    2    1    2    0    0  0.22048101278E+01 -0.22504865993E+02 -0.33791111754E+02  0.50528813896E+02  0.29999860317E+02 0.  0.
        -12    1    1    2    0    0 -0.22048101278E+01  0.22504865993E+02  0.33791111754E+02  0.40659186104E+02  0.00000000000E+00 0.  1.
         11    1    3    3    0    0  0.50664247894E+00  0.30661310362E+01 -0.51280705213E+01  0.59962449638E+01  0.51100000000E-03 0. -1.
        -11    1    3    3    0    0  0.92732492825E+01 -0.18015245618E+02 -0.26918805998E+02  0.33692200040E+02  0.51100000000E-03 0.  1.
        -12    1    3    3    0    0 -0.75750816337E+01 -0.75557514118E+01 -0.17442352347E+01  0.10840368892E+02  0.00000000000E+00 0.  1.
</event>
<event>
 7    1  0.5487071E-013  0.5052885E+02  0.7816164E-02  0.1300439E+00
        -11   -1    0    0    0    0  0.00000000000E+00  0.00000000000E+00  0.45593999997E+02  0.45594000000E+02  0.51100000000E-03 0. -1.
         11   -1    0    0    0    0 -0.00000000000E+00 -0.00000000000E+00 -0.45593999997E+02  0.45594000000E+02  0.51100000000E-03 0.  1.
    9900012    2    1    2    0    0  0.25464815093E+02  0.91158619867E+01  0.30358044553E+02  0.50528848304E+02  0.29999964906E+02 0.  0.
        -12    1    1    2    0    0 -0.25464815093E+02 -0.91158619867E+01 -0.30358044553E+02  0.40659151696E+02  0.00000000000E+00 0.  1.
         11    1    3    3    0    0  0.14995570201E+02  0.25460403015E+01  0.14617169063E+02  0.21095285695E+02  0.51100000000E-03 0. -1.
        -11    1    3    3    0    0  0.15886730665E+02  0.96977589829E+01  0.11601262396E+02  0.21932260028E+02  0.51100000000E-03 0.  1.
        -12    1    3    3    0    0 -0.54174857730E+01 -0.31279372976E+01  0.41396130943E+01  0.75013025808E+01  0.00000000000E+00 0.  1.
</event>
<event>
 7    1  0.5487071E-013  0.5052887E+02  0.7816164E-02  0.1300439E+00
        -11   -1    0    0    0    0  0.00000000000E+00  0.00000000000E+00  0.45593999997E+02  0.45594000000E+02  0.51100000000E-03 0. -1.
         11   -1    0    0    0    0 -0.00000000000E+00 -0.00000000000E+00 -0.45593999997E+02  0.45594000000E+02  0.51100000000E-03 0.  1.
    9900012    2    1    2    0    0  0.15763888879E+02 -0.72228418189E+01 -0.36776281799E+02  0.50528873847E+02  0.30000042546E+02 0.  0.
        -12    1    1    2    0    0 -0.15763888879E+02  0.72228418189E+01  0.36776281799E+02  0.40659126153E+02  0.00000000000E+00 0.  1.
         11    1    3    3    0    0  0.96108318139E+01 -0.13397195214E+02 -0.10123293902E+02  0.19347713236E+02  0.51100000000E-03 0. -1.
        -11    1    3    3    0    0  0.49201739840E+00  0.45420418670E+00  0.16370396832E+01  0.17686949282E+01  0.51100000000E-03 0.  1.
         12    1    3    3    0    0  0.56610396669E+01  0.57201492086E+01 -0.28290027581E+02  0.29412465684E+02  0.00000000000E+00 0. -1.
</event>
<event>
 7    1  0.5487071E-013  0.5052886E+02  0.7816164E-02  0.1300439E+00
        -11   -1    0    0    0    0  0.00000000000E+00  0.00000000000E+00  0.45593999997E+02  0.45594000000E+02  0.51100000000E-03 0.  1.
         11   -1    0    0    0    0 -0.00000000000E+00 -0.00000000000E+00 -0.45593999997E+02  0.45594000000E+02  0.51100000000E-03 0. -1.
    9900012    2    1    2    0    0  0.19612919016E+02  0.23845832434E+01 -0.35536080318E+02  0.50528857929E+02  0.29999994161E+02 0.  0.
        -12    1    1    2    0    0 -0.19612919016E+02 -0.23845832434E+01  0.35536080318E+02  0.40659142071E+02  0.00000000000E+00 0.  1.
         11    1    3    3    0    0  0.52879626116E+00  0.83765375819E+01 -0.41394468444E+01  0.93584735820E+01  0.51100000000E-03 0. -1.
        -11    1    3    3    0    0  0.22911990702E+01  0.51414804282E+01 -0.30779099631E+01  0.64154457502E+01  0.51100000000E-03 0.  1.
        -12    1    3    3    0    0  0.16792923684E+02 -0.11133434767E+02 -0.28318723511E+02  0.34754938597E+02  0.00000000000E+00 0.  1.
</event>
<event>
 7    1  0.5487071E-013  0.5052886E+02  0.7816164E-02  0.1300439E+00
        -11   -1    0    0    0    0  0.00000000000E+00  0.00000000000E+00  0.45593999997E+02  0.45594000000E+02  0.51100000000E-03 0.  1.
         11   -1    0    0    0    0 -0.00000000000E+00 -0.00000000000E+00 -0.45593999997E+02  0.45594000000E+02  0.51100000000E-03 0. -1.
    9900012    2    1    2    0    0 -0.99413624305E+01 -0.22234652293E+02 -0.32556954391E+02  0.50528859222E+02  0.29999998091E+02 0.  0.
        -12    1    1    2    0    0  0.99413624305E+01  0.22234652293E+02  0.32556954391E+02  0.40659140778E+02  0.00000000000E+00 0.  1.
         11    1    3    3    0    0  0.36439349814E+00  0.11628913394E+01  0.20642128434E+00  0.12360052170E+01  0.51100000000E-03 0. -1.
        -11    1    3    3    0    0  0.68208591298E+01 -0.54875850950E+00 -0.16041982468E+01  0.70284214050E+01  0.51100000000E-03 0.  1.
         12    1    3    3    0    0 -0.17126615058E+02 -0.22848785123E+02 -0.31159177429E+02  0.42264432600E+02  0.00000000000E+00 0. -1.
</event>
<event>
 7    1  0.5487071E-013  0.5052886E+02  0.7816164E-02  0.1300439E+00
        -11   -1    0    0    0    0  0.00000000000E+00  0.00000000000E+00  0.45593999997E+02  0.45594000000E+02  0.51100000000E-03 0. -1.
         11   -1    0    0    0    0 -0.00000000000E+00 -0.00000000000E+00 -0.45593999997E+02  0.45594000000E+02  0.51100000000E-03 0.  1.
    9900012    2    1    2    0    0 -0.33661589266E+02  0.15086067593E+02  0.17101864042E+02  0.50528858579E+02  0.29999996138E+02 0.  0.
        -12    1    1    2    0    0  0.33661589266E+02 -0.15086067593E+02 -0.17101864042E+02  0.40659141421E+02  0.00000000000E+00 0.  1.
         11    1    3    3    0    0 -0.59115805178E+01  0.52854676923E+01 -0.35517104713E+01  0.86889355204E+01  0.51100000000E-03 0. -1.
        -11    1    3    3    0    0 -0.27112428886E+00  0.23744951199E+01  0.11786191683E+02  0.12026057130E+02  0.51100000000E-03 0.  1.
         12    1    3    3    0    0 -0.27478884459E+02  0.74261047813E+01  0.88673828310E+01  0.29813865929E+02  0.00000000000E+00 0. -1.
</event>
<event>
 7    1  0.5487071E-013  0.5052887E+02  0.7816164E-02  0.1300439E+00
        -11   -1    0    0    0    0  0.00000000000E+00  0.00000000000E+00  0.45593999997E+02  0.45594000000E+02  0.51100000000E-03 0. -1.
         11   -1    0    0    0    0 -0.00000000000E+00 -0.00000000000E+00 -0.45593999997E+02  0.45594000000E+02  0.51100000000E-03 0.  1.
    9900012    2    1    2    0    0  0.13119680781E+02 -0.38388738260E+02 -0.27099784252E+01  0.50528865331E+02  0.30000016659E+02 0.  0.
        -12    1    1    2    0    0 -0.13119680781E+02  0.38388738260E+02  0.27099784252E+01  0.40659134669E+02  0.00000000000E+00 0.  1.
         11    1    3    3    0    0  0.10379797578E+02 -0.25937238110E+01 -0.25337562095E+01  0.10994886164E+02  0.51100000000E-03 0. -1.
        -11    1    3    3    0    0  0.75095738815E+01 -0.68407095993E+01 -0.72805630537E+00  0.10184256180E+02  0.51100000000E-03 0.  1.
         12    1    3    3    0    0 -0.47696906786E+01 -0.28954304850E+02  0.55183408966E+00  0.29349722986E+02  0.00000000000E+00 0. -1.
</event>
<event>
 7    1  0.5487071E-013  0.5052889E+02  0.7816164E-02  0.1300439E+00
        -11   -1    0    0    0    0  0.00000000000E+00  0.00000000000E+00  0.45593999997E+02  0.45594000000E+02  0.51100000000E-03 0.  1.
         11   -1    0    0    0    0 -0.00000000000E+00 -0.00000000000E+00 -0.45593999997E+02  0.45594000000E+02  0.51100000000E-03 0. -1.
    9900012    2    1    2    0    0  0.18609790832E+02  0.19496581756E+02 -0.30442115949E+02  0.50528887387E+02  0.30000083703E+02 0.  0.
        -12    1    1    2    0    0 -0.18609790832E+02 -0.19496581756E+02  0.30442115949E+02  0.40659112613E+02  0.00000000000E+00 0.  1.
         11    1    3    3    0    0  0.21094396111E+02  0.89185613737E+01 -0.24294585899E+02  0.33387740093E+02  0.51100000000E-03 0. -1.
        -11    1    3    3    0    0  0.21293358917E+01  0.11135174613E+02 -0.40046586009E+01  0.12023455235E+02  0.51100000000E-03 0.  1.
        -12    1    3    3    0    0 -0.46139411712E+01 -0.55715423060E+00 -0.21428714497E+01  0.51176920597E+01  0.00000000000E+00 0.  1.
</event>
<event>
 7    1  0.5487071E-013  0.5052886E+02  0.7816164E-02  0.1300439E+00
        -11   -1    0    0    0    0  0.00000000000E+00  0.00000000000E+00  0.45593999997E+02  0.45594000000E+02  0.51100000000E-03 0.  1.
         11   -1    0    0    0    0 -0.00000000000E+00 -0.00000000000E+00 -0.45593999997E+02  0.45594000000E+02  0.51100000000E-03 0. -1.
    9900012    2    1    2    0    0  0.81939020597E+01  0.38668300353E+02 -0.95283010485E+01  0.50528855838E+02  0.29999987804E+02 0.  0.
        -12    1    1    2    0    0 -0.81939020597E+01 -0.38668300353E+02  0.95283010485E+01  0.40659144162E+02  0.00000000000E+00 0.  1.
         11    1    3    3    0    0  0.18965532377E+00 -0.22661482719E+00 -0.50937770867E+01  0.51023414911E+01  0.51100000000E-03 0. -1.
        -11    1    3    3    0    0 -0.58183507811E+01  0.20718105316E+02 -0.65470703595E+01  0.22493492931E+02  0.51100000000E-03 0.  1.
        -12    1    3    3    0    0  0.13822597517E+02  0.18176809864E+02  0.21125463977E+01  0.22933021415E+02  0.00000000000E+00 0.  1.
</event>
<event>
 7    1  0.5487071E-013  0.5052886E+02  0.7816164E-02  0.1300439E+00
        -11   -1    0    0    0    0  0.00000000000E+00  0.00000000000E+00  0.45593999997E+02  0.45594000000E+02  0.51100000000E-03 0. -1.
         11   -1    0    0    0    0 -0.00000000000E+00 -0.00000000000E+00 -0.45593999997E+02  0.45594000000E+02  0.51100000000E-03 0.  1.
    9900012    2    1    2    0    0 -0.45781870600E+01  0.25069723882E+02  0.31681459718E+02  0.50528859058E+02  0.29999997593E+02 0.  0.
        -12    1    1    2    0    0  0.45781870600E+01 -0.25069723882E+02 -0.31681459718E+02  0.40659140942E+02  0.00000000000E+00 0.  1.
         11    1    3    3    0    0 -0.12961120015E+01  0.60822565906E+00  0.11050874274E+02  0.11143234147E+02  0.51100000000E-03 0. -1.
        -11    1    3    3    0    0 -0.25237550258E+01  0.14708185971E+02  0.24645158719E+02  0.28811177042E+02  0.51100000000E-03 0.  1.
        -12    1    3    3    0    0 -0.75832003271E+00  0.97533122520E+01 -0.40145732751E+01  0.10574447869E+02  0.00000000000E+00 0.  1.
</event>
<event>
 7    1  0.5487071E-013  0.5052883E+02  0.7816164E-02  0.1300439E+00
        -11   -1    0    0    0    0  0.00000000000E+00  0.00000000000E+00  0.45593999997E+02  0.45594000000E+02  0.51100000000E-03 0.  1.
         11   -1    0    0    0    0 -0.00000000000E+00 -0.00000000000E+00 -0.45593999997E+02  0.45594000000E+02  0.51100000000E-03 0. -1.
    9900012    2    1    2    0    0  0.17643975321E+02 -0.33707539833E+02 -0.14340838546E+02  0.50528834281E+02  0.29999922281E+02 0.  0.
        -12    1    1    2    0    0 -0.17643975321E+02  0.33707539833E+02  0.14340838546E+02  0.40659165719E+02  0.00000000000E+00 0.  1.
         11    1    3    3    0    0  0.27471466178E+01 -0.27883436615E-01 -0.15035519268E+01  0.31318142798E+01  0.51100000000E-03 0.  1.
        -11    1    3    3    0    0  0.39325574029E+01  0.43441451970E+01 -0.22990768440E+00  0.58642529809E+01  0.51100000000E-03 0. -1.
         12    1    3    3    0    0  0.10964271301E+02 -0.38023801594E+02 -0.12607378934E+02  0.41532767021E+02  0.00000000000E+00 0. -1.
</event>
<event>
 7    1  0.5487071E-013  0.5052886E+02  0.7816164E-02  0.1300439E+00
        -11   -1    0    0    0    0  0.00000000000E+00  0.00000000000E+00  0.45593999997E+02  0.45594000000E+02  0.51100000000E-03 0.  1.
         11   -1    0    0    0    0 -0.00000000000E+00 -0.00000000000E+00 -0.45593999997E+02  0.45594000000E+02  0.51100000000E-03 0. -1.
    9900012    2    1    2    0    0  0.61524445641E+00  0.34788368473E+02 -0.21037024555E+02  0.50528861926E+02  0.30000006310E+02 0.  0.
        -12    1    1    2    0    0 -0.61524445641E+00 -0.34788368473E+02  0.21037024555E+02  0.40659138074E+02  0.00000000000E+00 0.  1.
         11    1    3    3    0    0  0.42935405838E+01  0.11676033138E+01 -0.12486487382E+02  0.13255570740E+02  0.51100000000E-03 0. -1.
        -11    1    3    3    0    0  0.28156779048E+01  0.96491790662E+00 -0.49401672214E+00  0.30171445794E+01  0.51100000000E-03 0.  1.
         12    1    3    3    0    0 -0.64939740321E+01  0.32655847253E+02 -0.80565204505E+01  0.34256146606E+02  0.00000000000E+00 0. -1.
</event>
<event>
 7    1  0.5487071E-013  0.5052886E+02  0.7816164E-02  0.1300439E+00
        -11   -1    0    0    0    0  0.00000000000E+00  0.00000000000E+00  0.45593999997E+02  0.45594000000E+02  0.51100000000E-03 0. -1.
         11   -1    0    0    0    0 -0.00000000000E+00 -0.00000000000E+00 -0.45593999997E+02  0.45594000000E+02  0.51100000000E-03 0.  1.
    9900012    2    1    2    0    0  0.29525942319E+02 -0.11602450535E+02  0.25431627525E+02  0.50528858263E+02  0.29999995176E+02 0.  0.
        -12    1    1    2    0    0 -0.29525942319E+02  0.11602450535E+02 -0.25431627525E+02  0.40659141737E+02  0.00000000000E+00 0.  1.
         11    1    3    3    0    0  0.58015413195E+01 -0.10677692342E+01 -0.52055668942E+00  0.59219078300E+01  0.51100000000E-03 0. -1.
        -11    1    3    3    0    0  0.19721748462E+02 -0.10957529256E+01  0.36851865716E+01  0.20092999706E+02  0.51100000000E-03 0.  1.
        -12    1    3    3    0    0  0.40026525372E+01 -0.94389283756E+01  0.22266997643E+02  0.24513950727E+02  0.00000000000E+00 0.  1.
</event>
<event>
 7    1  0.5487071E-013  0.5052876E+02  0.7816164E-02  0.1300439E+00
        -11   -1    0    0    0    0  0.00000000000E+00  0.00000000000E+00  0.45593999997E+02  0.45594000000E+02  0.51100000000E-03 0.  1.
         11   -1    0    0    0    0 -0.00000000000E+00 -0.00000000000E+00 -0.45593999997E+02  0.45594000000E+02  0.51100000000E-03 0. -1.
    9900012    2    1    2    0    0 -0.22855594909E+02  0.32949092738E+02  0.67196180610E+01  0.50528755076E+02  0.29999681529E+02 0.  0.
        -12    1    1    2    0    0  0.22855594909E+02 -0.32949092738E+02 -0.67196180610E+01  0.40659244924E+02  0.00000000000E+00 0.  1.
         11    1    3    3    0    0 -0.11650533494E+02  0.16360957101E+02  0.79313105228E+01  0.21594479268E+02  0.51100000000E-03 0. -1.
        -11    1    3    3    0    0 -0.56109023313E+01  0.13439613767E+02  0.88186161175E+01  0.17025669845E+02  0.51100000000E-03 0.  1.
         12    1    3    3    0    0 -0.55941590833E+01  0.31485218698E+01 -0.10030308579E+02  0.11908605964E+02  0.00000000000E+00 0. -1.
</event>
<event>
 7    1  0.5487071E-013  0.5052885E+02  0.7816164E-02  0.1300439E+00
        -11   -1    0    0    0    0  0.00000000000E+00  0.00000000000E+00  0.45593999997E+02  0.45594000000E+02  0.51100000000E-03 0.  1.
         11   -1    0    0    0    0 -0.00000000000E+00 -0.00000000000E+00 -0.45593999997E+02  0.45594000000E+02  0.51100000000E-03 0. -1.
    9900012    2    1    2    0    0 -0.29910415464E+02 -0.33444135357E+01 -0.27337670716E+02  0.50528852256E+02  0.29999976916E+02 0.  0.
        -12    1    1    2    0    0  0.29910415464E+02  0.33444135357E+01  0.27337670716E+02  0.40659147744E+02  0.00000000000E+00 0.  1.
         11    1    3    3    0    0 -0.14153895332E+02  0.39615867515E+01 -0.65767862944E+01  0.16102206088E+02  0.51100000000E-03 0.  1.
        -11    1    3    3    0    0 -0.95889727510E+01  0.63279151483E+01 -0.13702278474E+02  0.17881368633E+02  0.51100000000E-03 0. -1.
        -12    1    3    3    0    0 -0.61675473808E+01 -0.13633915435E+02 -0.70586059476E+01  0.16545277535E+02  0.00000000000E+00 0.  1.
</event>
<event>
 7    1  0.5487071E-013  0.5052886E+02  0.7816164E-02  0.1300439E+00
        -11   -1    0    0    0    0  0.00000000000E+00  0.00000000000E+00  0.45593999997E+02  0.45594000000E+02  0.51100000000E-03 0.  1.
         11   -1    0    0    0    0 -0.00000000000E+00 -0.00000000000E+00 -0.45593999997E+02  0.45594000000E+02  0.51100000000E-03 0. -1.
    9900012    2    1    2    0    0  0.33793404068E+02  0.14306194437E+02 -0.17507265674E+02  0.50528859464E+02  0.29999998825E+02 0.  0.
        -12    1    1    2    0    0 -0.33793404068E+02 -0.14306194437E+02  0.17507265674E+02  0.40659140536E+02  0.00000000000E+00 0.  1.
         11    1    3    3    0    0  0.21737229476E+02  0.31783927108E+01  0.28554967997E+01  0.22153175568E+02  0.51100000000E-03 0. -1.
        -11    1    3    3    0    0  0.82658783552E+01  0.30967273605E+00 -0.92770393266E+01  0.12429163331E+02  0.51100000000E-03 0.  1.
        -12    1    3    3    0    0  0.37902962371E+01  0.10818128990E+02 -0.11085723147E+02  0.15946520565E+02  0.00000000000E+00 0.  1.
</event>
<event>
 7    1  0.5487071E-013  0.5052887E+02  0.7816164E-02  0.1300439E+00
        -11   -1    0    0    0    0  0.00000000000E+00  0.00000000000E+00  0.45593999997E+02  0.45594000000E+02  0.51100000000E-03 0. -1.
         11   -1    0    0    0    0 -0.00000000000E+00 -0.00000000000E+00 -0.45593999997E+02  0.45594000000E+02  0.51100000000E-03 0.  1.
    9900012    2    1    2    0    0  0.18471708951E+02  0.35207658316E+02 -0.85077460561E+01  0.50528868447E+02  0.30000026133E+02 0.  0.
        -12    1    1    2    0    0 -0.18471708951E+02 -0.35207658316E+02  0.85077460561E+01  0.40659131553E+02  0.00000000000E+00 0.  1.
         11    1    3    3    0    0  0.41138921062E+01  0.34686914366E+01  0.51486179232E+01  0.74474287727E+01  0.51100000000E-03 0. -1.
        -11    1    3    3    0    0 -0.46421534207E-01 -0.31235307093E+01 -0.13569306472E+01  0.34058567341E+01  0.51100000000E-03 0.  1.
        -12    1    3    3    0    0  0.14404238379E+02  0.34862497588E+02 -0.12299433332E+02  0.39675582941E+02  0.00000000000E+00 0.  1.
</event>
<event>
 7    1  0.5487071E-013  0.5052887E+02  0.7816164E-02  0.1300439E+00
        -11   -1    0    0    0    0  0.00000000000E+00  0.00000000000E+00  0.45593999997E+02  0.45594000000E+02  0.51100000000E-03 0. -1.
         11   -1    0    0    0    0 -0.00000000000E+00 -0.00000000000E+00 -0.45593999997E+02  0.45594000000E+02  0.51100000000E-03 0.  1.
    9900012    2    1    2    0    0 -0.48840531189E+01  0.37258763311E+02 -0.15527239650E+02  0.50528873233E+02  0.30000040679E+02 0.  0.
        -12    1    1    2    0    0  0.48840531189E+01 -0.37258763311E+02  0.15527239650E+02  0.40659126767E+02  0.00000000000E+00 0.  1.
         11    1    3    3    0    0 -0.51261382019E+01  0.80966225266E+01  0.45489678786E+01  0.10607813075E+02  0.51100000000E-03 0. -1.
        -11    1    3    3    0    0  0.61326780630E+01  0.21034672102E+01 -0.60987157991E+01  0.89010476455E+01  0.51100000000E-03 0.  1.
        -12    1    3    3    0    0 -0.58905929799E+01  0.27058673574E+02 -0.13977491730E+02  0.31020012513E+02  0.00000000000E+00 0.  1.
</event>
<event>
 7    1  0.5487071E-013  0.5052886E+02  0.7816164E-02  0.1300439E+00
        -11   -1    0    0    0    0  0.00000000000E+00  0.00000000000E+00  0.45593999997E+02  0.45594000000E+02  0.51100000000E-03 0. -1.
         11   -1    0    0    0    0 -0.00000000000E+00 -0.00000000000E+00 -0.45593999997E+02  0.45594000000E+02  0.51100000000E-03 0.  1.
    9900012    2    1    2    0    0  0.24259296144E+02 -0.13567755249E+02  0.29674371535E+02  0.50528858864E+02  0.29999997004E+02 0.  0.
        -12    1    1    2    0    0 -0.24259296144E+02  0.13567755249E+02 -0.29674371535E+02  0.40659141136E+02  0.00000000000E+00 0.  1.
         11    1    3    3    0    0  0.24417614720E+02 -0.67081044337E+01  0.17535689220E+02  0.30801281960E+02  0.51100000000E-03 0. -1.
        -11    1    3    3    0    0  0.56315011680E+01 -0.44264751783E+00  0.88107551592E+01  0.10466095211E+02  0.51100000000E-03 0.  1.
        -12    1    3    3    0    0 -0.57898197446E+01 -0.64170032971E+01  0.33279271560E+01  0.92614816928E+01  0.00000000000E+00 0.  1.
</event>
<event>
 7    1  0.5487071E-013  0.5052886E+02  0.7816164E-02  0.1300439E+00
        -11   -1    0    0    0    0  0.00000000000E+00  0.00000000000E+00  0.45593999997E+02  0.45594000000E+02  0.51100000000E-03 0. -1.
         11   -1    0    0    0    0 -0.00000000000E+00 -0.00000000000E+00 -0.45593999997E+02  0.45594000000E+02  0.51100000000E-03 0.  1.
    9900012    2    1    2    0    0  0.75968469627E+01 -0.26403309393E+02  0.29971961819E+02  0.50528864176E+02  0.30000013148E+02 0.  0.
        -12    1    1    2    0    0 -0.75968469627E+01  0.26403309393E+02 -0.29971961819E+02  0.40659135824E+02  0.00000000000E+00 0.  1.
         11    1    3    3    0    0  0.16788278738E+02 -0.97786716797E+01  0.82087418818E+01  0.21091518825E+02  0.51100000000E-03 0. -1.
        -11    1    3    3    0    0  0.24813285052E+00 -0.25834761951E+01  0.49259231327E+01  0.55678216686E+01  0.51100000000E-03 0.  1.
         12    1    3    3    0    0 -0.94395646258E+01 -0.14041161518E+02  0.16837296805E+02  0.23869523682E+02  0.00000000000E+00 0. -1.
</event>
<event>
 7    1  0.5487071E-013  0.5052886E+02  0.7816164E-02  0.1300439E+00
        -11   -1    0    0    0    0  0.00000000000E+00  0.00000000000E+00  0.45593999997E+02  0.45594000000E+02  0.51100000000E-03 0. -1.
         11   -1    0    0    0    0 -0.00000000000E+00 -0.00000000000E+00 -0.45593999997E+02  0.45594000000E+02  0.51100000000E-03 0.  1.
    9900012    2    1    2    0    0 -0.12211115004E+02  0.12890543014E+02  0.36577156226E+02  0.50528858514E+02  0.29999995939E+02 0.  0.
        -12    1    1    2    0    0  0.12211115004E+02 -0.12890543014E+02 -0.36577156226E+02  0.40659141486E+02  0.00000000000E+00 0.  1.
         11    1    3    3    0    0 -0.62210948483E+01  0.10713422962E+02  0.61310876619E+01  0.13822795985E+02  0.51100000000E-03 0. -1.
        -11    1    3    3    0    0 -0.20931834913E+01  0.12557135166E+01 -0.25137586251E+01  0.35038858786E+01  0.51100000000E-03 0.  1.
        -12    1    3    3    0    0 -0.38968366640E+01  0.92140653552E+00  0.32959827189E+02  0.33202176650E+02  0.00000000000E+00 0.  1.
</event>
<event>
 7    1  0.5487071E-013  0.5052886E+02  0.7816164E-02  0.1300439E+00
        -11   -1    0    0    0    0  0.00000000000E+00  0.00000000000E+00  0.45593999997E+02  0.45594000000E+02  0.51100000000E-03 0.  1.
         11   -1    0    0    0    0 -0.00000000000E+00 -0.00000000000E+00 -0.45593999997E+02  0.45594000000E+02  0.51100000000E-03 0. -1.
    9900012    2    1    2    0    0 -0.25304274287E+01  0.30682109745E+01 -0.40464163595E+02  0.50528861827E+02  0.30000006008E+02 0.  0.
        -12    1    1    2    0    0  0.25304274287E+01 -0.30682109745E+01  0.40464163595E+02  0.40659138173E+02  0.00000000000E+00 0.  1.
         11    1    3    3    0    0 -0.45215053194E+01  0.84908769367E+01 -0.32261029132E+01  0.10146267381E+02  0.51100000000E-03 0. -1.
        -11    1    3    3    0    0  0.24545639132E+00 -0.18932243938E+00  0.13586715688E+01  0.13935854904E+01  0.51100000000E-03 0.  1.
         12    1    3    3    0    0  0.17456214993E+01 -0.52333435228E+01 -0.38596732251E+02  0.38989008955E+02  0.00000000000E+00 0. -1.
</event>
<event>
 7    1  0.5487071E-013  0.5052886E+02  0.7816164E-02  0.1300439E+00
        -11   -1    0    0    0    0  0.00000000000E+00  0.00000000000E+00  0.45593999997E+02  0.45594000000E+02  0.51100000000E-03 0.  1.
         11   -1    0    0    0    0 -0.00000000000E+00 -0.00000000000E+00 -0.45593999997E+02  0.45594000000E+02  0.51100000000E-03 0. -1.
    9900012    2    1    2    0    0 -0.15372716127E+01  0.34251315045E+02 -0.21855197576E+02  0.50528862683E+02  0.30000008610E+02 0.  0.
        -12    1    1    2    0    0  0.15372716127E+01 -0.34251315045E+02  0.21855197576E+02  0.40659137317E+02  0.00000000000E+00 0.  1.
         11    1    3    3    0    0  0.44281793007E+00  0.15722101714E+02 -0.93607191610E+01  0.18303104477E+02  0.51100000000E-03 0. -1.
        -11    1    3    3    0    0 -0.47028980821E+00  0.16188754221E+02 -0.19108883051E+02  0.25048879165E+02  0.51100000000E-03 0.  1.
        -12    1    3    3    0    0 -0.15097997345E+01  0.23404591098E+01  0.66144046354E+01  0.71768790406E+01  0.00000000000E+00 0.  1.
</event>
<event>
 7    1  0.5487071E-013  0.5052885E+02  0.7816164E-02  0.1300439E+00
        -11   -1    0    0    0    0  0.00000000000E+00  0.00000000000E+00  0.45593999997E+02  0.45594000000E+02  0.51100000000E-03 0.  1.
         11   -1    0    0    0    0 -0.00000000000E+00 -0.00000000000E+00 -0.45593999997E+02  0.45594000000E+02  0.51100000000E-03 0. -1.
    9900012    2    1    2    0    0  0.11147565132E+02 -0.10296240634E+02 -0.37721159259E+02  0.50528848073E+02  0.29999964202E+02 0.  0.
        -12    1    1    2    0    0 -0.11147565132E+02  0.10296240634E+02  0.37721159259E+02  0.40659151927E+02  0.00000000000E+00 0.  1.
         11    1    3    3    0    0  0.31825779622E+01 -0.20804831997E+00  0.11409128252E+01  0.33872952226E+01  0.51100000000E-03 0. -1.
        -11    1    3    3    0    0 -0.74542724544E+01 -0.74648513052E+01 -0.20225142138E+02  0.22811106015E+02  0.51100000000E-03 0.  1.
         12    1    3    3    0    0  0.15419259624E+02 -0.26233410089E+01 -0.18636929946E+02  0.24330446836E+02  0.00000000000E+00 0. -1.
</event>
<event>
 7    1  0.5487071E-013  0.5052884E+02  0.7816164E-02  0.1300439E+00
        -11   -1    0    0    0    0  0.00000000000E+00  0.00000000000E+00  0.45593999997E+02  0.45594000000E+02  0.51100000000E-03 0. -1.
         11   -1    0    0    0    0 -0.00000000000E+00 -0.00000000000E+00 -0.45593999997E+02  0.45594000000E+02  0.51100000000E-03 0.  1.
    9900012    2    1    2    0    0 -0.30741007705E+02 -0.88332408592E+01  0.25102425168E+02  0.50528838080E+02  0.29999933827E+02 0.  0.
        -12    1    1    2    0    0  0.30741007705E+02  0.88332408592E+01 -0.25102425168E+02  0.40659161920E+02  0.00000000000E+00 0.  1.
         11    1    3    3    0    0 -0.53549814424E+01 -0.15457903671E+00  0.15545572934E+02  0.16442766162E+02  0.51100000000E-03 0. -1.
        -11    1    3    3    0    0  0.28146736389E+01 -0.19036828953E+01  0.25505005281E+01  0.42486997381E+01  0.51100000000E-03 0.  1.
         12    1    3    3    0    0 -0.28200699901E+02 -0.67749789272E+01  0.70063517051E+01  0.29837372180E+02  0.00000000000E+00 0. -1.
</event>
<event>
 7    1  0.5487071E-013  0.5052886E+02  0.7816164E-02  0.1300439E+00
        -11   -1    0    0    0    0  0.00000000000E+00  0.00000000000E+00  0.45593999997E+02  0.45594000000E+02  0.51100000000E-03 0. -1.
         11   -1    0    0    0    0 -0.00000000000E+00 -0.00000000000E+00 -0.45593999997E+02  0.45594000000E+02  0.51100000000E-03 0.  1.
    9900012    2    1    2    0    0 -0.17917471333E+02  0.14689512153E+02  0.33411794594E+02  0.50528861246E+02  0.30000004243E+02 0.  0.
        -12    1    1    2    0    0  0.17917471333E+02 -0.14689512153E+02 -0.33411794594E+02  0.40659138754E+02  0.00000000000E+00 0.  1.
         11    1    3    3    0    0 -0.86771812905E+01  0.16314107657E+01  0.88362737853E+01  0.12491385468E+02  0.51100000000E-03 0. -1.
        -11    1    3    3    0    0 -0.12941119827E+02  0.94355120311E+01  0.27694541322E+02  0.31992016019E+02  0.51100000000E-03 0.  1.
        -12    1    3    3    0    0  0.37008297848E+01  0.36225893559E+01 -0.31190205131E+01  0.60454597591E+01  0.00000000000E+00 0.  1.
</event>
<event>
 7    1  0.5487071E-013  0.5052886E+02  0.7816164E-02  0.1300439E+00
        -11   -1    0    0    0    0  0.00000000000E+00  0.00000000000E+00  0.45593999997E+02  0.45594000000E+02  0.51100000000E-03 0.  1.
         11   -1    0    0    0    0 -0.00000000000E+00 -0.00000000000E+00 -0.45593999997E+02  0.45594000000E+02  0.51100000000E-03 0. -1.
    9900012    2    1    2    0    0  0.25856911934E+02 -0.19518299230E+02 -0.24568715790E+02  0.50528859636E+02  0.29999999350E+02 0.  0.
        -12    1    1    2    0    0 -0.25856911934E+02  0.19518299230E+02  0.24568715790E+02  0.40659140364E+02  0.00000000000E+00 0.  1.
         11    1    3    3    0    0 -0.16411864587E+01 -0.69606394810E-01 -0.30599428606E+01  0.34729797889E+01  0.51100000000E-03 0. -1.
        -11    1    3    3    0    0  0.11248569963E+01  0.52418827657E+01 -0.50169163526E+01  0.73424851475E+01  0.51100000000E-03 0.  1.
         12    1    3    3    0    0  0.26373241396E+02 -0.24690575600E+02 -0.16491856576E+02  0.39713394700E+02  0.00000000000E+00 0. -1.
</event>
<event>
 7    1  0.5487071E-013  0.5052884E+02  0.7816164E-02  0.1300439E+00
        -11   -1    0    0    0    0  0.00000000000E+00  0.00000000000E+00  0.45593999997E+02  0.45594000000E+02  0.51100000000E-03 0.  1.
         11   -1    0    0    0    0 -0.00000000000E+00 -0.00000000000E+00 -0.45593999997E+02  0.45594000000E+02  0.51100000000E-03 0. -1.
    9900012    2    1    2    0    0 -0.39840896876E+02  0.43026670978E+01 -0.68816335393E+01  0.50528844965E+02  0.29999954754E+02 0.  0.
        -12    1    1    2    0    0  0.39840896876E+02 -0.43026670978E+01  0.68816335393E+01  0.40659155035E+02  0.00000000000E+00 0.  1.
         11    1    3    3    0    0 -0.18730640736E+02  0.11103465496E+02 -0.62512321537E+01  0.22653956654E+02  0.51100000000E-03 0. -1.
        -11    1    3    3    0    0  0.19172113471E+01  0.22582089756E+01  0.86040583791E+00  0.30847213155E+01  0.51100000000E-03 0.  1.
         12    1    3    3    0    0 -0.23027467487E+02 -0.90590073735E+01 -0.14908072235E+01  0.24790166995E+02  0.00000000000E+00 0. -1.
</event>
<event>
 7    1  0.5487071E-013  0.5052884E+02  0.7816164E-02  0.1300439E+00
        -11   -1    0    0    0    0  0.00000000000E+00  0.00000000000E+00  0.45593999997E+02  0.45594000000E+02  0.51100000000E-03 0.  1.
         11   -1    0    0    0    0 -0.00000000000E+00 -0.00000000000E+00 -0.45593999997E+02  0.45594000000E+02  0.51100000000E-03 0. -1.
    9900012    2    1    2    0    0 -0.14104211727E+02 -0.29425234844E+02 -0.24256839124E+02  0.50528837707E+02  0.29999932694E+02 0.  0.
        -12    1    1    2    0    0  0.14104211727E+02  0.29425234844E+02  0.24256839124E+02  0.40659162293E+02  0.00000000000E+00 0.  1.
         11    1    3    3    0    0 -0.17636752802E+02 -0.21739918676E+02 -0.17000986000E+02  0.32752292113E+02  0.51100000000E-03 0. -1.
        -11    1    3    3    0    0 -0.14388258447E+01  0.27908372798E+01  0.12665517468E+01  0.33857268233E+01  0.51100000000E-03 0.  1.
        -12    1    3    3    0    0  0.49713669189E+01 -0.10476153448E+02 -0.85224048712E+01  0.14390818771E+02  0.00000000000E+00 0.  1.
</event>
<event>
 7    1  0.5487071E-013  0.5052886E+02  0.7816164E-02  0.1300439E+00
        -11   -1    0    0    0    0  0.00000000000E+00  0.00000000000E+00  0.45593999997E+02  0.45594000000E+02  0.51100000000E-03 0.  1.
         11   -1    0    0    0    0 -0.00000000000E+00 -0.00000000000E+00 -0.45593999997E+02  0.45594000000E+02  0.51100000000E-03 0. -1.
    9900012    2    1    2    0    0  0.34875509033E+02 -0.89626387789E+01 -0.18882160292E+02  0.50528855869E+02  0.29999987899E+02 0.  0.
        -12    1    1    2    0    0 -0.34875509033E+02  0.89626387789E+01  0.18882160292E+02  0.40659144131E+02  0.00000000000E+00 0.  1.
         11    1    3    3    0    0  0.69581762462E+01 -0.41537116286E+01 -0.37651712710E+01  0.89356618069E+01  0.51100000000E-03 0. -1.
        -11    1    3    3    0    0  0.16752450865E+02 -0.13540501913E+02 -0.96221467067E+00  0.21561902963E+02  0.51100000000E-03 0.  1.
         12    1    3    3    0    0  0.11164881922E+02  0.87315747631E+01 -0.14154774350E+02  0.20031291099E+02  0.00000000000E+00 0. -1.
</event>
<event>
 7    1  0.5487071E-013  0.5052886E+02  0.7816164E-02  0.1300439E+00
        -11   -1    0    0    0    0  0.00000000000E+00  0.00000000000E+00  0.45593999997E+02  0.45594000000E+02  0.51100000000E-03 0.  1.
         11   -1    0    0    0    0 -0.00000000000E+00 -0.00000000000E+00 -0.45593999997E+02  0.45594000000E+02  0.51100000000E-03 0. -1.
    9900012    2    1    2    0    0 -0.93422152931E+01  0.25078940770E+02 -0.30609397971E+02  0.50528862025E+02  0.30000006610E+02 0.  0.
        -12    1    1    2    0    0  0.93422152931E+01 -0.25078940770E+02  0.30609397971E+02  0.40659137975E+02  0.00000000000E+00 0.  1.
         11    1    3    3    0    0  0.25277502637E+01  0.40718705521E+01  0.63031794005E+00  0.48339375415E+01  0.51100000000E-03 0.  1.
        -11    1    3    3    0    0 -0.13446531310E+02  0.63468799758E+01 -0.51662734152E+01  0.15741107679E+02  0.51100000000E-03 0. -1.
         12    1    3    3    0    0  0.15765657536E+01  0.14660190242E+02 -0.26073442496E+02  0.29953816804E+02  0.00000000000E+00 0. -1.
</event>
<event>
 7    1  0.5487071E-013  0.5052886E+02  0.7816164E-02  0.1300439E+00
        -11   -1    0    0    0    0  0.00000000000E+00  0.00000000000E+00  0.45593999997E+02  0.45594000000E+02  0.51100000000E-03 0. -1.
         11   -1    0    0    0    0 -0.00000000000E+00 -0.00000000000E+00 -0.45593999997E+02  0.45594000000E+02  0.51100000000E-03 0.  1.
    9900012    2    1    2    0    0 -0.77712168436E+01  0.39841060740E+02 -0.23374777936E+01  0.50528859152E+02  0.29999997878E+02 0.  0.
        -12    1    1    2    0    0  0.77712168436E+01 -0.39841060740E+02  0.23374777936E+01  0.40659140848E+02  0.00000000000E+00 0.  1.
         11    1    3    3    0    0 -0.21727115278E+01  0.56552828925E+01  0.54725690197E+01  0.81640622189E+01  0.51100000000E-03 0. -1.
        -11    1    3    3    0    0 -0.55856121286E+01  0.33580938635E+01  0.57455984707E+01  0.86883691965E+01  0.51100000000E-03 0.  1.
        -12    1    3    3    0    0 -0.12893187114E-01  0.30827683984E+02 -0.13555645284E+02  0.33676427736E+02  0.00000000000E+00 0.  1.
</event>
<event>
 7    1  0.5487071E-013  0.5052886E+02  0.7816164E-02  0.1300439E+00
        -11   -1    0    0    0    0  0.00000000000E+00  0.00000000000E+00  0.45593999997E+02  0.45594000000E+02  0.51100000000E-03 0.  1.
         11   -1    0    0    0    0 -0.00000000000E+00 -0.00000000000E+00 -0.45593999997E+02  0.45594000000E+02  0.51100000000E-03 0. -1.
    9900012    2    1    2    0    0  0.16889390871E+02  0.24957893426E+01 -0.36901018656E+02  0.50528859991E+02  0.30000000428E+02 0.  0.
        -12    1    1    2    0    0 -0.16889390871E+02 -0.24957893426E+01  0.36901018656E+02  0.40659140009E+02  0.00000000000E+00 0.  1.
         11    1    3    3    0    0 -0.52060714132E+01  0.50935941374E+00  0.42337889378E+00  0.52480354915E+01  0.51100000000E-03 0. -1.
        -11    1    3    3    0    0  0.33874367109E+00  0.36118821707E+01 -0.74673090605E+01  0.83018759901E+01  0.51100000000E-03 0.  1.
         12    1    3    3    0    0  0.21756718613E+02 -0.16254522418E+01 -0.29857088489E+02  0.36978948509E+02  0.00000000000E+00 0. -1.
</event>
<event>
 7    1  0.5487071E-013  0.5052886E+02  0.7816164E-02  0.1300439E+00
        -11   -1    0    0    0    0  0.00000000000E+00  0.00000000000E+00  0.45593999997E+02  0.45594000000E+02  0.51100000000E-03 0. -1.
         11   -1    0    0    0    0 -0.00000000000E+00 -0.00000000000E+00 -0.45593999997E+02  0.45594000000E+02  0.51100000000E-03 0.  1.
    9900012    2    1    2    0    0  0.79553662979E+01  0.30856685565E+02  0.25253563585E+02  0.50528863626E+02  0.30000011477E+02 0.  0.
        -12    1    1    2    0    0 -0.79553662979E+01 -0.30856685565E+02 -0.25253563585E+02  0.40659136374E+02  0.00000000000E+00 0.  1.
         11    1    3    3    0    0 -0.16344367636E+01  0.25015378732E+02  0.24342056075E+02  0.34942470589E+02  0.51100000000E-03 0. -1.
        -11    1    3    3    0    0  0.21192024740E+01 -0.20401035195E+01  0.33483307148E+01  0.44569451794E+01  0.51100000000E-03 0.  1.
        -12    1    3    3    0    0  0.74706005876E+01  0.78814103524E+01 -0.24368232051E+01  0.11129447858E+02  0.00000000000E+00 0.  1.
</event>
<event>
 7    1  0.5487071E-013  0.5052886E+02  0.7816164E-02  0.1300439E+00
        -11   -1    0    0    0    0  0.00000000000E+00  0.00000000000E+00  0.45593999997E+02  0.45594000000E+02  0.51100000000E-03 0. -1.
         11   -1    0    0    0    0 -0.00000000000E+00 -0.00000000000E+00 -0.45593999997E+02  0.45594000000E+02  0.51100000000E-03 0.  1.
    9900012    2    1    2    0    0 -0.36480823884E+02  0.42039471861E+01  0.17453988432E+02  0.50528863322E+02  0.30000010554E+02 0.  0.
        -12    1    1    2    0    0  0.36480823884E+02 -0.42039471861E+01 -0.17453988432E+02  0.40659136678E+02  0.00000000000E+00 0.  1.
         11    1    3    3    0    0 -0.10511401792E+02  0.87014778727E+01  0.34630104508E+00  0.13650099248E+02  0.51100000000E-03 0. -1.
        -11    1    3    3    0    0  0.22056075523E+01 -0.24182153113E+01  0.53635655828E+01  0.62833355782E+01  0.51100000000E-03 0.  1.
         12    1    3    3    0    0 -0.28175029645E+02 -0.20793153753E+01  0.11744121804E+02  0.30595428496E+02  0.00000000000E+00 0. -1.
</event>
<event>
 7    1  0.5487071E-013  0.5052885E+02  0.7816164E-02  0.1300439E+00
        -11   -1    0    0    0    0  0.00000000000E+00  0.00000000000E+00  0.45593999997E+02  0.45594000000E+02  0.51100000000E-03 0.  1.
         11   -1    0    0    0    0 -0.00000000000E+00 -0.00000000000E+00 -0.45593999997E+02  0.45594000000E+02  0.51100000000E-03 0. -1.
    9900012    2    1    2    0    0 -0.28450102293E+02 -0.11518998557E+02 -0.26665905769E+02  0.50528853689E+02  0.29999981274E+02 0.  0.
        -12    1    1    2    0    0  0.28450102293E+02  0.11518998557E+02  0.26665905769E+02  0.40659146311E+02  0.00000000000E+00 0.  1.
         11    1    3    3    0    0 -0.65496278623E+01 -0.80078512429E+01 -0.58053762291E+01  0.11862786354E+02  0.51100000000E-03 0. -1.
        -11    1    3    3    0    0 -0.77704723639E+01 -0.99410266850E+01 -0.19306984631E+02  0.23064342785E+02  0.51100000000E-03 0.  1.
        -12    1    3    3    0    0 -0.14130002067E+02  0.64298793713E+01 -0.15535449084E+01  0.15601724550E+02  0.00000000000E+00 0.  1.
</event>
<event>
 7    1  0.5487071E-013  0.5052885E+02  0.7816164E-02  0.1300439E+00
        -11   -1    0    0    0    0  0.00000000000E+00  0.00000000000E+00  0.45593999997E+02  0.45594000000E+02  0.51100000000E-03 0.  1.
         11   -1    0    0    0    0 -0.00000000000E+00 -0.00000000000E+00 -0.45593999997E+02  0.45594000000E+02  0.51100000000E-03 0. -1.
    9900012    2    1    2    0    0 -0.29210898485E+02  0.50311730391E+01 -0.27831221329E+02  0.50528853758E+02  0.29999981482E+02 0.  0.
        -12    1    1    2    0    0  0.29210898485E+02 -0.50311730391E+01  0.27831221329E+02  0.40659146242E+02  0.00000000000E+00 0.  1.
         11    1    3    3    0    0  0.34171573032E+00 -0.62972393165E+00 -0.14469492917E+02  0.14487220141E+02  0.51100000000E-03 0. -1.
        -11    1    3    3    0    0 -0.45457072873E+01 -0.24850130969E+01  0.20351105255E+01  0.55660057443E+01  0.51100000000E-03 0.  1.
         12    1    3    3    0    0 -0.25006906928E+02  0.81459100676E+01 -0.15396838938E+02  0.30475627873E+02  0.00000000000E+00 0. -1.
</event>
<event>
 7    1  0.5487071E-013  0.5052884E+02  0.7816164E-02  0.1300439E+00
        -11   -1    0    0    0    0  0.00000000000E+00  0.00000000000E+00  0.45593999997E+02  0.45594000000E+02  0.51100000000E-03 0.  1.
         11   -1    0    0    0    0 -0.00000000000E+00 -0.00000000000E+00 -0.45593999997E+02  0.45594000000E+02  0.51100000000E-03 0. -1.
    9900012    2    1    2    0    0 -0.19355508399E+02 -0.31597047554E+02  0.16737924013E+02  0.50528840887E+02  0.29999942361E+02 0.  0.
        -12    1    1    2    0    0  0.19355508399E+02  0.31597047554E+02 -0.16737924013E+02  0.40659159113E+02  0.00000000000E+00 0.  1.
         11    1    3    3    0    0 -0.67658561638E+01 -0.27180629091E+02  0.12291855974E+02  0.30588447671E+02  0.51100000000E-03 0. -1.
        -11    1    3    3    0    0 -0.17625604452E+00 -0.54676251814E+01 -0.21093784390E+01  0.58630596941E+01  0.51100000000E-03 0.  1.
         12    1    3    3    0    0 -0.12413396191E+02  0.10512067186E+01  0.65554464779E+01  0.14077333522E+02  0.00000000000E+00 0. -1.
</event>
<event>
 7    1  0.5487071E-013  0.5052885E+02  0.7816164E-02  0.1300439E+00
        -11   -1    0    0    0    0  0.00000000000E+00  0.00000000000E+00  0.45593999997E+02  0.45594000000E+02  0.51100000000E-03 0. -1.
         11   -1    0    0    0    0 -0.00000000000E+00 -0.00000000000E+00 -0.45593999997E+02  0.45594000000E+02  0.51100000000E-03 0.  1.
    9900012    2    1    2    0    0 -0.21212487941E+02 -0.18731834998E+02  0.29194441221E+02  0.50528847461E+02  0.29999962341E+02 0.  0.
        -12    1    1    2    0    0  0.21212487941E+02  0.18731834998E+02 -0.29194441221E+02  0.40659152539E+02  0.00000000000E+00 0.  1.
         11    1    3    3    0    0 -0.79806658315E+00 -0.12730845177E+02  0.11993405139E+02  0.17508657752E+02  0.51100000000E-03 0. -1.
        -11    1    3    3    0    0  0.32101015931E+01  0.65912548542E+00  0.39293958040E+01  0.51165760318E+01  0.51100000000E-03 0.  1.
        -12    1    3    3    0    0 -0.23624522951E+02 -0.66601153058E+01  0.13271640278E+02  0.27903613677E+02  0.00000000000E+00 0.  1.
</event>
<event>
 7    1  0.5487071E-013  0.5052886E+02  0.7816164E-02  0.1300439E+00
        -11   -1    0    0    0    0  0.00000000000E+00  0.00000000000E+00  0.45593999997E+02  0.45594000000E+02  0.51100000000E-03 0.  1.
         11   -1    0    0    0    0 -0.00000000000E+00 -0.00000000000E+00 -0.45593999997E+02  0.45594000000E+02  0.51100000000E-03 0. -1.
    9900012    2    1    2    0    0 -0.21629783819E+02 -0.22229365059E+02 -0.26290174133E+02  0.50528862344E+02  0.30000007582E+02 0.  0.
        -12    1    1    2    0    0  0.21629783819E+02  0.22229365059E+02  0.26290174133E+02  0.40659137656E+02  0.00000000000E+00 0.  1.
         11    1    3    3    0    0  0.50837663491E+01 -0.70548594718E+01 -0.11768050607E+02  0.14632249923E+02  0.51100000000E-03 0. -1.
        -11    1    3    3    0    0  0.46656702181E-01  0.10648713220E+01  0.49895291537E+00  0.11768950901E+01  0.51100000000E-03 0.  1.
         12    1    3    3    0    0 -0.26760206870E+02 -0.16239376909E+02 -0.15021076441E+02  0.34719717331E+02  0.00000000000E+00 0. -1.
</event>
<event>
 7    1  0.5487071E-013  0.5052886E+02  0.7816164E-02  0.1300439E+00
        -11   -1    0    0    0    0  0.00000000000E+00  0.00000000000E+00  0.45593999997E+02  0.45594000000E+02  0.51100000000E-03 0.  1.
         11   -1    0    0    0    0 -0.00000000000E+00 -0.00000000000E+00 -0.45593999997E+02  0.45594000000E+02  0.51100000000E-03 0. -1.
    9900012    2    1    2    0    0 -0.23012931753E+02  0.18477183847E+02  0.27967199090E+02  0.50528861104E+02  0.30000003813E+02 0.  0.
        -12    1    1    2    0    0  0.23012931753E+02 -0.18477183847E+02 -0.27967199090E+02  0.40659138896E+02  0.00000000000E+00 0.  1.
         11    1    3    3    0    0 -0.84238815320E+01 -0.27125044697E+01  0.11621316460E+01  0.89258058900E+01  0.51100000000E-03 0. -1.
        -11    1    3    3    0    0  0.19566336652E+01  0.42824075401E+01  0.13857260125E+02  0.14635268637E+02  0.51100000000E-03 0.  1.
         12    1    3    3    0    0 -0.16545683887E+02  0.16907280777E+02  0.12947807319E+02  0.26967786578E+02  0.00000000000E+00 0. -1.
</event>
<event>
 7    1  0.5487071E-013  0.5052886E+02  0.7816164E-02  0.1300439E+00
        -11   -1    0    0    0    0  0.00000000000E+00  0.00000000000E+00  0.45593999997E+02  0.45594000000E+02  0.51100000000E-03 0.  1.
         11   -1    0    0    0    0 -0.00000000000E+00 -0.00000000000E+00 -0.45593999997E+02  0.45594000000E+02  0.51100000000E-03 0. -1.
    9900012    2    1    2    0    0 -0.14301481528E+02  0.32013597632E+02  0.20585499946E+02  0.50528860618E+02  0.30000002334E+02 0.  0.
        -12    1    1    2    0    0  0.14301481528E+02 -0.32013597632E+02 -0.20585499946E+02  0.40659139382E+02  0.00000000000E+00 0.  1.
         11    1    3    3    0    0 -0.14856491498E+02  0.35548095444E+02  0.14053142807E+02  0.41010648036E+02  0.51100000000E-03 0. -1.
        -11    1    3    3    0    0 -0.20210485051E+01  0.34067636836E+00  0.97411004811E+00  0.22692703882E+01  0.51100000000E-03 0.  1.
         12    1    3    3    0    0  0.25760584751E+01 -0.38751741804E+01  0.55582470914E+01  0.72489421935E+01  0.00000000000E+00 0. -1.
</event>
<event>
 7    1  0.5487071E-013  0.5052886E+02  0.7816164E-02  0.1300439E+00
        -11   -1    0    0    0    0  0.00000000000E+00  0.00000000000E+00  0.45593999997E+02  0.45594000000E+02  0.51100000000E-03 0. -1.
         11   -1    0    0    0    0 -0.00000000000E+00 -0.00000000000E+00 -0.45593999997E+02  0.45594000000E+02  0.51100000000E-03 0.  1.
    9900012    2    1    2    0    0  0.41562435487E+00  0.36699669138E+02  0.17496491223E+02  0.50528860024E+02  0.30000000530E+02 0.  0.
        -12    1    1    2    0    0 -0.41562435487E+00 -0.36699669138E+02 -0.17496491223E+02  0.40659139976E+02  0.00000000000E+00 0.  1.
         11    1    3    3    0    0 -0.63545079525E+00  0.15066909291E+01 -0.12619065732E+01  0.20655081045E+01  0.51100000000E-03 0. -1.
        -11    1    3    3    0    0  0.36825818608E+01  0.10071644474E+02 -0.66643684339E+01  0.12625895551E+02  0.51100000000E-03 0.  1.
         12    1    3    3    0    0 -0.26315067106E+01  0.25121333735E+02  0.25422766231E+02  0.35837456369E+02  0.00000000000E+00 0. -1.
</event>
<event>
 7    1  0.5487071E-013  0.5052886E+02  0.7816164E-02  0.1300439E+00
        -11   -1    0    0    0    0  0.00000000000E+00  0.00000000000E+00  0.45593999997E+02  0.45594000000E+02  0.51100000000E-03 0. -1.
         11   -1    0    0    0    0 -0.00000000000E+00 -0.00000000000E+00 -0.45593999997E+02  0.45594000000E+02  0.51100000000E-03 0.  1.
    9900012    2    1    2    0    0  0.26172898215E+02  0.15260730074E+02  0.27115594470E+02  0.50528856541E+02  0.29999989942E+02 0.  0.
        -12    1    1    2    0    0 -0.26172898215E+02 -0.15260730074E+02 -0.27115594470E+02  0.40659143459E+02  0.00000000000E+00 0.  1.
         11    1    3    3    0    0  0.37460794326E+01 -0.22303028216E+01  0.29800634448E+01  0.52809222857E+01  0.51100000000E-03 0. -1.
        -11    1    3    3    0    0  0.55444668016E+01  0.40999075561E+00  0.20150509980E+02  0.20903403007E+02  0.51100000000E-03 0.  1.
         12    1    3    3    0    0  0.16882351980E+02  0.17081042140E+02  0.39850210454E+01  0.24344531248E+02  0.00000000000E+00 0. -1.
</event>
<event>
 7    1  0.5487071E-013  0.5052886E+02  0.7816164E-02  0.1300439E+00
        -11   -1    0    0    0    0  0.00000000000E+00  0.00000000000E+00  0.45593999997E+02  0.45594000000E+02  0.51100000000E-03 0. -1.
         11   -1    0    0    0    0 -0.00000000000E+00 -0.00000000000E+00 -0.45593999997E+02  0.45594000000E+02  0.51100000000E-03 0.  1.
    9900012    2    1    2    0    0  0.35457676533E+01 -0.36211800420E+02 -0.18146592289E+02  0.50528858720E+02  0.29999996564E+02 0.  0.
        -12    1    1    2    0    0 -0.35457676533E+01  0.36211800420E+02  0.18146592289E+02  0.40659141280E+02  0.00000000000E+00 0.  1.
         11    1    3    3    0    0 -0.20212508729E+00 -0.53310703981E+01 -0.44924864874E+01  0.69744964866E+01  0.51100000000E-03 0. -1.
        -11    1    3    3    0    0  0.85797683356E+01 -0.27250444654E+02 -0.19935890796E+02  0.34837320515E+02  0.51100000000E-03 0.  1.
         12    1    3    3    0    0 -0.48318755950E+01 -0.36302853678E+01  0.62817849936E+01  0.87170417186E+01  0.00000000000E+00 0. -1.
</event>
<event>
 7    1  0.5487071E-013  0.5052884E+02  0.7816164E-02  0.1300439E+00
        -11   -1    0    0    0    0  0.00000000000E+00  0.00000000000E+00  0.45593999997E+02  0.45594000000E+02  0.51100000000E-03 0. -1.
         11   -1    0    0    0    0 -0.00000000000E+00 -0.00000000000E+00 -0.45593999997E+02  0.45594000000E+02  0.51100000000E-03 0.  1.
    9900012    2    1    2    0    0  0.26714850254E+02 -0.30646941679E+02  0.49865479627E+00  0.50528844635E+02  0.29999953753E+02 0.  0.
        -12    1    1    2    0    0 -0.26714850254E+02  0.30646941679E+02 -0.49865479627E+00  0.40659155365E+02  0.00000000000E+00 0.  1.
         11    1    3    3    0    0  0.38488783478E+01 -0.51089122670E+01 -0.25547954871E+01  0.68878029393E+01  0.51100000000E-03 0. -1.
        -11    1    3    3    0    0 -0.10287153543E+01 -0.24629337614E+01 -0.81570486010E+01  0.85826417922E+01  0.51100000000E-03 0.  1.
         12    1    3    3    0    0  0.23894687261E+02 -0.23075095651E+02  0.11210498884E+02  0.35058399904E+02  0.00000000000E+00 0. -1.
</event>
<event>
 7    1  0.5487071E-013  0.5052886E+02  0.7816164E-02  0.1300439E+00
        -11   -1    0    0    0    0  0.00000000000E+00  0.00000000000E+00  0.45593999997E+02  0.45594000000E+02  0.51100000000E-03 0. -1.
         11   -1    0    0    0    0 -0.00000000000E+00 -0.00000000000E+00 -0.45593999997E+02  0.45594000000E+02  0.51100000000E-03 0.  1.
    9900012    2    1    2    0    0 -0.44500005265E+01 -0.38113617073E+02  0.13443040978E+02  0.50528860046E+02  0.30000000595E+02 0.  0.
        -12    1    1    2    0    0  0.44500005265E+01  0.38113617073E+02 -0.13443040978E+02  0.40659139954E+02  0.00000000000E+00 0.  1.
         11    1    3    3    0    0 -0.96145276714E+01 -0.26463594524E+02  0.15281804516E+02  0.32035831923E+02  0.51100000000E-03 0. -1.
        -11    1    3    3    0    0 -0.26173487796E+01 -0.10093007656E+02 -0.45187545794E+00  0.10436642653E+02  0.51100000000E-03 0.  1.
        -12    1    3    3    0    0  0.77818759245E+01 -0.15570148928E+01 -0.13868880805E+01  0.80563854692E+01  0.00000000000E+00 0.  1.
</event>
<event>
 7    1  0.5487071E-013  0.5052886E+02  0.7816164E-02  0.1300439E+00
        -11   -1    0    0    0    0  0.00000000000E+00  0.00000000000E+00  0.45593999997E+02  0.45594000000E+02  0.51100000000E-03 0. -1.
         11   -1    0    0    0    0 -0.00000000000E+00 -0.00000000000E+00 -0.45593999997E+02  0.45594000000E+02  0.51100000000E-03 0.  1.
    9900012    2    1    2    0    0 -0.24406613841E+02  0.28618195602E+02  0.15442858337E+02  0.50528858441E+02  0.29999995718E+02 0.  0.
        -12    1    1    2    0    0  0.24406613841E+02 -0.28618195602E+02 -0.15442858337E+02  0.40659141559E+02  0.00000000000E+00 0.  1.
         11    1    3    3    0    0 -0.10492661766E+02 -0.46389375824E+00 -0.42791451671E+01  0.11341174188E+02  0.51100000000E-03 0. -1.
        -11    1    3    3    0    0 -0.94507622587E+00 -0.76578047078E+00  0.18586817862E+00  0.12305023539E+01  0.51100000000E-03 0.  1.
         12    1    3    3    0    0 -0.12968875849E+02  0.29847869831E+02  0.19536135325E+02  0.37957181899E+02  0.00000000000E+00 0. -1.
</event>
<event>
 7    1  0.5487071E-013  0.5052886E+02  0.7816164E-02  0.1300439E+00
        -11   -1    0    0    0    0  0.00000000000E+00  0.00000000000E+00  0.45593999997E+02  0.45594000000E+02  0.51100000000E-03 0.  1.
         11   -1    0    0    0    0 -0.00000000000E+00 -0.00000000000E+00 -0.45593999997E+02  0.45594000000E+02  0.51100000000E-03 0. -1.
    9900012    2    1    2    0    0 -0.22621634289E+02  0.85217963476E+01 -0.32692609485E+02  0.50528855078E+02  0.29999985494E+02 0.  0.
        -12    1    1    2    0    0  0.22621634289E+02 -0.85217963476E+01  0.32692609485E+02  0.40659144922E+02  0.00000000000E+00 0.  1.
         11    1    3    3    0    0 -0.75612585489E+00 -0.61813460400E+01 -0.21913908672E+01  0.66017391169E+01  0.51100000000E-03 0. -1.
        -11    1    3    3    0    0 -0.37184301202E+01 -0.17142697851E+01  0.82377290345E+00  0.41766069377E+01  0.51100000000E-03 0.  1.
         12    1    3    3    0    0 -0.18147078314E+02  0.16417412173E+02 -0.31324991521E+02  0.39750509023E+02  0.00000000000E+00 0. -1.
</event>
<event>
 7    1  0.5487071E-013  0.5052887E+02  0.7816164E-02  0.1300439E+00
        -11   -1    0    0    0    0  0.00000000000E+00  0.00000000000E+00  0.45593999997E+02  0.45594000000E+02  0.51100000000E-03 0.  1.
         11   -1    0    0    0    0 -0.00000000000E+00 -0.00000000000E+00 -0.45593999997E+02  0.45594000000E+02  0.51100000000E-03 0. -1.
    9900012    2    1    2    0    0  0.11235987210E+02 -0.16450908627E+01 -0.39041150518E+02  0.50528866139E+02  0.30000019117E+02 0.  0.
        -12    1    1    2    0    0 -0.11235987210E+02  0.16450908627E+01  0.39041150518E+02  0.40659133861E+02  0.00000000000E+00 0.  1.
         11    1    3    3    0    0  0.86442399247E+01  0.67858343807E+01 -0.18252764267E+02  0.21305723076E+02  0.51100000000E-03 0. -1.
        -11    1    3    3    0    0  0.96437668299E+01 -0.90032869948E+01 -0.11194685637E+02  0.17302670376E+02  0.51100000000E-03 0.  1.
         12    1    3    3    0    0 -0.70520195441E+01  0.57236175143E+00 -0.95937006138E+01  0.11920472687E+02  0.00000000000E+00 0. -1.
</event>
<event>
 7    1  0.5487071E-013  0.5052886E+02  0.7816164E-02  0.1300439E+00
        -11   -1    0    0    0    0  0.00000000000E+00  0.00000000000E+00  0.45593999997E+02  0.45594000000E+02  0.51100000000E-03 0. -1.
         11   -1    0    0    0    0 -0.00000000000E+00 -0.00000000000E+00 -0.45593999997E+02  0.45594000000E+02  0.51100000000E-03 0.  1.
    9900012    2    1    2    0    0  0.43959819637E+01 -0.10964923691E+01  0.40405924613E+02  0.50528859616E+02  0.29999999288E+02 0.  0.
        -12    1    1    2    0    0 -0.43959819637E+01  0.10964923691E+01 -0.40405924613E+02  0.40659140384E+02  0.00000000000E+00 0.  1.
         11    1    3    3    0    0  0.13067473846E+02  0.46308317100E+01  0.34383726396E+02  0.37073496142E+02  0.51100000000E-03 0. -1.
        -11    1    3    3    0    0 -0.10421457632E+01  0.32056294132E+00  0.31067183569E+01  0.32924956494E+01  0.51100000000E-03 0.  1.
        -12    1    3    3    0    0 -0.76293461187E+01 -0.60478870204E+01  0.29154798602E+01  0.10162867825E+02  0.00000000000E+00 0.  1.
</event>
<event>
 7    1  0.5487071E-013  0.5052884E+02  0.7816164E-02  0.1300439E+00
        -11   -1    0    0    0    0  0.00000000000E+00  0.00000000000E+00  0.45593999997E+02  0.45594000000E+02  0.51100000000E-03 0.  1.
         11   -1    0    0    0    0 -0.00000000000E+00 -0.00000000000E+00 -0.45593999997E+02  0.45594000000E+02  0.51100000000E-03 0. -1.
    9900012    2    1    2    0    0 -0.24613572988E+02 -0.23677508292E+02 -0.22061610457E+02  0.50528843219E+02  0.29999949448E+02 0.  0.
        -12    1    1    2    0    0  0.24613572988E+02  0.23677508292E+02  0.22061610457E+02  0.40659156781E+02  0.00000000000E+00 0.  1.
         11    1    3    3    0    0  0.41613836951E+00 -0.74156598444E+01 -0.20040195875E+01  0.76929368149E+01  0.51100000000E-03 0. -1.
        -11    1    3    3    0    0 -0.11196664092E+02 -0.15190932788E+02 -0.52697390005E+00  0.18878755984E+02  0.51100000000E-03 0.  1.
        -12    1    3    3    0    0 -0.13833047266E+02 -0.10709156599E+01 -0.19530616970E+02  0.23957150420E+02  0.00000000000E+00 0.  1.
</event>
<event>
 7    1  0.5487071E-013  0.5052886E+02  0.7816164E-02  0.1300439E+00
        -11   -1    0    0    0    0  0.00000000000E+00  0.00000000000E+00  0.45593999997E+02  0.45594000000E+02  0.51100000000E-03 0. -1.
         11   -1    0    0    0    0 -0.00000000000E+00 -0.00000000000E+00 -0.45593999997E+02  0.45594000000E+02  0.51100000000E-03 0.  1.
    9900012    2    1    2    0    0  0.13480136066E+02  0.29064835364E+02  0.25033711946E+02  0.50528862565E+02  0.30000008253E+02 0.  0.
        -12    1    1    2    0    0 -0.13480136066E+02 -0.29064835364E+02 -0.25033711946E+02  0.40659137435E+02  0.00000000000E+00 0.  1.
         11    1    3    3    0    0 -0.19952534632E+01  0.81870316776E+00  0.25451004626E+01  0.33359927886E+01  0.51100000000E-03 0. -1.
        -11    1    3    3    0    0 -0.52483159217E+00  0.12340829998E+02  0.21273501203E+02  0.24599459078E+02  0.51100000000E-03 0.  1.
         12    1    3    3    0    0  0.16000221122E+02  0.15905302199E+02  0.12151102801E+01  0.22593410698E+02  0.00000000000E+00 0. -1.
</event>
<event>
 7    1  0.5487071E-013  0.5052886E+02  0.7816164E-02  0.1300439E+00
        -11   -1    0    0    0    0  0.00000000000E+00  0.00000000000E+00  0.45593999997E+02  0.45594000000E+02  0.51100000000E-03 0. -1.
         11   -1    0    0    0    0 -0.00000000000E+00 -0.00000000000E+00 -0.45593999997E+02  0.45594000000E+02  0.51100000000E-03 0.  1.
    9900012    2    1    2    0    0  0.97483096953E+01 -0.36627246078E+02  0.14716693742E+02  0.50528858693E+02  0.29999996482E+02 0.  0.
        -12    1    1    2    0    0 -0.97483096953E+01  0.36627246078E+02 -0.14716693742E+02  0.40659141307E+02  0.00000000000E+00 0.  1.
         11    1    3    3    0    0  0.16163435221E+01 -0.22798160715E+02  0.82656624061E+01  0.24304112278E+02  0.51100000000E-03 0. -1.
        -11    1    3    3    0    0  0.31375392981E+01 -0.15293216327E+02 -0.25584542207E+01  0.15819997052E+02  0.51100000000E-03 0.  1.
        -12    1    3    3    0    0  0.49944268751E+01  0.14641309643E+01  0.90094855569E+01  0.10404749362E+02  0.00000000000E+00 0.  1.
</event>
<event>
 7    1  0.5487071E-013  0.5052884E+02  0.7816164E-02  0.1300439E+00
        -11   -1    0    0    0    0  0.00000000000E+00  0.00000000000E+00  0.45593999997E+02  0.45594000000E+02  0.51100000000E-03 0.  1.
         11   -1    0    0    0    0 -0.00000000000E+00 -0.00000000000E+00 -0.45593999997E+02  0.45594000000E+02  0.51100000000E-03 0. -1.
    9900012    2    1    2    0    0 -0.64430500393E+01  0.18580142760E+02 -0.35586968011E+02  0.50528844930E+02  0.29999954649E+02 0.  0.
        -12    1    1    2    0    0  0.64430500393E+01 -0.18580142760E+02  0.35586968011E+02  0.40659155070E+02  0.00000000000E+00 0.  1.
         11    1    3    3    0    0  0.31302806921E+01  0.87103558370E+01 -0.99962754629E+01  0.13623306479E+02  0.51100000000E-03 0. -1.
        -11    1    3    3    0    0  0.54820001498E+01  0.68620119267E+01 -0.24203303494E+01  0.91102981612E+01  0.51100000000E-03 0.  1.
         12    1    3    3    0    0 -0.15055330881E+02  0.30077749964E+01 -0.23170362199E+02  0.27795240290E+02  0.00000000000E+00 0. -1.
</event>
<event>
 7    1  0.5487071E-013  0.5052888E+02  0.7816164E-02  0.1300439E+00
        -11   -1    0    0    0    0  0.00000000000E+00  0.00000000000E+00  0.45593999997E+02  0.45594000000E+02  0.51100000000E-03 0.  1.
         11   -1    0    0    0    0 -0.00000000000E+00 -0.00000000000E+00 -0.45593999997E+02  0.45594000000E+02  0.51100000000E-03 0. -1.
    9900012    2    1    2    0    0 -0.37145077253E+02 -0.14732816997E+02 -0.75067684723E+01  0.50528877608E+02  0.30000053976E+02 0.  0.
        -12    1    1    2    0    0  0.37145077253E+02  0.14732816997E+02  0.75067684723E+01  0.40659122392E+02  0.00000000000E+00 0.  1.
         11    1    3    3    0    0 -0.64388174382E+00  0.27356885972E+01  0.21417553635E+01  0.35335098838E+01  0.51100000000E-03 0. -1.
        -11    1    3    3    0    0 -0.36793066860E+02 -0.19526507237E+02 -0.50621774572E+01  0.41959979680E+02  0.51100000000E-03 0.  1.
         12    1    3    3    0    0  0.29187135104E+00  0.20580016428E+01 -0.45863463786E+01  0.50353880438E+01  0.00000000000E+00 0. -1.
</event>
<event>
 7    1  0.6084980E-013  0.5052885E+02  0.7816164E-02  0.1300439E+00
        -11   -1    0    0    0    0  0.00000000000E+00  0.00000000000E+00  0.45593999997E+02  0.45594000000E+02  0.51100000000E-03 0. -1.
         11   -1    0    0    0    0 -0.00000000000E+00 -0.00000000000E+00 -0.45593999997E+02  0.45594000000E+02  0.51100000000E-03 0.  1.
    9900012    2    1    2    0    0 -0.10612076375E+01 -0.36167162806E+02  0.18546599879E+02  0.50528853500E+02  0.29999980698E+02 0.  0.
        -12    1    1    2    0    0  0.10612076375E+01  0.36167162806E+02 -0.18546599879E+02  0.40659146500E+02  0.00000000000E+00 0.  1.
         11    1    3    3    0    0 -0.37427823617E+01 -0.12097971677E+02  0.10579977464E+02  0.16501674518E+02  0.51100000000E-03 0. -1.
        -11    1    3    3    0    0 -0.49685334441E+01 -0.24854364094E+02  0.53559097926E+01  0.25905819985E+02  0.51100000000E-03 0.  1.
        -12    1    3    3    0    0  0.76501081683E+01  0.78517296505E+00  0.26107126223E+01  0.81213589976E+01  0.00000000000E+00 0.  1.
</event>
<event>
 7    1  0.5487071E-013  0.5052885E+02  0.7816164E-02  0.1300439E+00
        -11   -1    0    0    0    0  0.00000000000E+00  0.00000000000E+00  0.45593999997E+02  0.45594000000E+02  0.51100000000E-03 0.  1.
         11   -1    0    0    0    0 -0.00000000000E+00 -0.00000000000E+00 -0.45593999997E+02  0.45594000000E+02  0.51100000000E-03 0. -1.
    9900012    2    1    2    0    0  0.46309801392E+01  0.13315466776E+02 -0.38136847717E+02  0.50528846217E+02  0.29999958562E+02 0.  0.
        -12    1    1    2    0    0 -0.46309801392E+01 -0.13315466776E+02  0.38136847717E+02  0.40659153783E+02  0.00000000000E+00 0.  1.
         11    1    3    3    0    0 -0.14675602886E+01  0.28183872618E+01 -0.18001970270E+02  0.18280261864E+02  0.51100000000E-03 0. -1.
        -11    1    3    3    0    0 -0.80288714264E+01  0.19053420321E+01 -0.95254810723E+01  0.12602693941E+02  0.51100000000E-03 0.  1.
        -12    1    3    3    0    0  0.14127411854E+02  0.85917374821E+01 -0.10609396375E+02  0.19645890413E+02  0.00000000000E+00 0.  1.
</event>
<event>
 7    1  0.5487071E-013  0.5052886E+02  0.7816164E-02  0.1300439E+00
        -11   -1    0    0    0    0  0.00000000000E+00  0.00000000000E+00  0.45593999997E+02  0.45594000000E+02  0.51100000000E-03 0. -1.
         11   -1    0    0    0    0 -0.00000000000E+00 -0.00000000000E+00 -0.45593999997E+02  0.45594000000E+02  0.51100000000E-03 0.  1.
    9900012    2    1    2    0    0 -0.34906670895E+02  0.11476324410E+02  0.17406435765E+02  0.50528859565E+02  0.29999999132E+02 0.  0.
        -12    1    1    2    0    0  0.34906670895E+02 -0.11476324410E+02 -0.17406435765E+02  0.40659140435E+02  0.00000000000E+00 0.  1.
         11    1    3    3    0    0 -0.17574135793E+02  0.57638330295E+01  0.11650399644E+02  0.21858724395E+02  0.51100000000E-03 0. -1.
        -11    1    3    3    0    0 -0.14145012022E+02 -0.45041660899E+01  0.91552001180E+01  0.17440945121E+02  0.51100000000E-03 0.  1.
         12    1    3    3    0    0 -0.31875230799E+01  0.10216657470E+02 -0.33991639971E+01  0.11229190048E+02  0.00000000000E+00 0. -1.
</event>
<event>
 7    1  0.5487071E-013  0.5052883E+02  0.7816164E-02  0.1300439E+00
        -11   -1    0    0    0    0  0.00000000000E+00  0.00000000000E+00  0.45593999997E+02  0.45594000000E+02  0.51100000000E-03 0.  1.
         11   -1    0    0    0    0 -0.00000000000E+00 -0.00000000000E+00 -0.45593999997E+02  0.45594000000E+02  0.51100000000E-03 0. -1.
    9900012    2    1    2    0    0 -0.21951794120E+02  0.33876663515E+02  0.48639604734E+01  0.50528834890E+02  0.29999924130E+02 0.  0.
        -12    1    1    2    0    0  0.21951794120E+02 -0.33876663515E+02 -0.48639604734E+01  0.40659165110E+02  0.00000000000E+00 0.  1.
         11    1    3    3    0    0  0.11996231750E+01  0.13346917595E+01  0.14236327098E+01  0.22906829131E+01  0.51100000000E-03 0. -1.
        -11    1    3    3    0    0 -0.12802836854E+02  0.13579854625E+01  0.78625285800E+01  0.15085626005E+02  0.51100000000E-03 0.  1.
         12    1    3    3    0    0 -0.10348580442E+02  0.31183986293E+02 -0.44222008164E+01  0.33152525972E+02  0.00000000000E+00 0. -1.
</event>
<event>
 7    1  0.5487071E-013  0.5052886E+02  0.7816164E-02  0.1300439E+00
        -11   -1    0    0    0    0  0.00000000000E+00  0.00000000000E+00  0.45593999997E+02  0.45594000000E+02  0.51100000000E-03 0.  1.
         11   -1    0    0    0    0 -0.00000000000E+00 -0.00000000000E+00 -0.45593999997E+02  0.45594000000E+02  0.51100000000E-03 0. -1.
    9900012    2    1    2    0    0 -0.35523052210E+02  0.19480590116E+02 -0.34329691013E+01  0.50528857038E+02  0.29999991452E+02 0.  0.
        -12    1    1    2    0    0  0.35523052210E+02 -0.19480590116E+02  0.34329691013E+01  0.40659142962E+02  0.00000000000E+00 0.  1.
         11    1    3    3    0    0 -0.20686443007E+00  0.45882670245E+01  0.24111527394E+01  0.51873543328E+01  0.51100000000E-03 0. -1.
        -11    1    3    3    0    0  0.94382274505E-01  0.65055380091E+01 -0.61459326117E+01  0.89500514373E+01  0.51100000000E-03 0.  1.
         12    1    3    3    0    0 -0.35410570055E+02  0.83867850820E+01  0.30181077099E+00  0.36391451267E+02  0.00000000000E+00 0. -1.
</event>
<event>
 7    1  0.5487071E-013  0.5052886E+02  0.7816164E-02  0.1300439E+00
        -11   -1    0    0    0    0  0.00000000000E+00  0.00000000000E+00  0.45593999997E+02  0.45594000000E+02  0.51100000000E-03 0.  1.
         11   -1    0    0    0    0 -0.00000000000E+00 -0.00000000000E+00 -0.45593999997E+02  0.45594000000E+02  0.51100000000E-03 0. -1.
    9900012    2    1    2    0    0 -0.63203629346E+01 -0.91968459741E+01 -0.39097780685E+02  0.50528863044E+02  0.30000009708E+02 0.  0.
        -12    1    1    2    0    0  0.63203629346E+01  0.91968459741E+01  0.39097780685E+02  0.40659136956E+02  0.00000000000E+00 0.  1.
         11    1    3    3    0    0  0.79696010776E+01  0.25727596584E+00 -0.19410304046E+02  0.20984294977E+02  0.51100000000E-03 0. -1.
        -11    1    3    3    0    0 -0.23023505457E+01 -0.25124731593E+01 -0.14268701536E+02  0.14670009652E+02  0.51100000000E-03 0.  1.
        -12    1    3    3    0    0 -0.11987613467E+02 -0.69416487805E+01 -0.54187751038E+01  0.14874558415E+02  0.00000000000E+00 0.  1.
</event>
<event>
 7    1  0.5487071E-013  0.5052886E+02  0.7816164E-02  0.1300439E+00
        -11   -1    0    0    0    0  0.00000000000E+00  0.00000000000E+00  0.45593999997E+02  0.45594000000E+02  0.51100000000E-03 0.  1.
         11   -1    0    0    0    0 -0.00000000000E+00 -0.00000000000E+00 -0.45593999997E+02  0.45594000000E+02  0.51100000000E-03 0. -1.
    9900012    2    1    2    0    0  0.22149734837E+02  0.15051483818E+02 -0.30594243020E+02  0.50528860505E+02  0.30000001992E+02 0.  0.
        -12    1    1    2    0    0 -0.22149734837E+02 -0.15051483818E+02  0.30594243020E+02  0.40659139495E+02  0.00000000000E+00 0.  1.
         11    1    3    3    0    0  0.21889446000E+02  0.12695683041E+02 -0.28047671999E+02  0.37775655109E+02  0.51100000000E-03 0. -1.
        -11    1    3    3    0    0 -0.38003607795E+01 -0.71730519060E-01 -0.58547162376E+01  0.69803717527E+01  0.51100000000E-03 0.  1.
        -12    1    3    3    0    0  0.40606496167E+01  0.24275312957E+01  0.33081452167E+01  0.57728336436E+01  0.00000000000E+00 0.  1.
</event>
<event>
 7    1  0.5487071E-013  0.5052886E+02  0.7816164E-02  0.1300439E+00
        -11   -1    0    0    0    0  0.00000000000E+00  0.00000000000E+00  0.45593999997E+02  0.45594000000E+02  0.51100000000E-03 0.  1.
         11   -1    0    0    0    0 -0.00000000000E+00 -0.00000000000E+00 -0.45593999997E+02  0.45594000000E+02  0.51100000000E-03 0. -1.
    9900012    2    1    2    0    0 -0.25964308457E+02  0.21798838565E+02 -0.22446187641E+02  0.50528855690E+02  0.29999987354E+02 0.  0.
        -12    1    1    2    0    0  0.25964308457E+02 -0.21798838565E+02  0.22446187641E+02  0.40659144310E+02  0.00000000000E+00 0.  1.
         11    1    3    3    0    0 -0.13092389388E+02  0.97380161699E+01 -0.65053215103E+01  0.17565842622E+02  0.51100000000E-03 0. -1.
        -11    1    3    3    0    0 -0.11751133817E+02  0.18709286945E+02 -0.11739346106E+02  0.25018769179E+02  0.51100000000E-03 0.  1.
        -12    1    3    3    0    0 -0.11207852526E+01 -0.66484645496E+01 -0.42015200241E+01  0.79442438887E+01  0.00000000000E+00 0.  1.
</event>
<event>
 7    1  0.5487071E-013  0.5052886E+02  0.7816164E-02  0.1300439E+00
        -11   -1    0    0    0    0  0.00000000000E+00  0.00000000000E+00  0.45593999997E+02  0.45594000000E+02  0.51100000000E-03 0.  1.
         11   -1    0    0    0    0 -0.00000000000E+00 -0.00000000000E+00 -0.45593999997E+02  0.45594000000E+02  0.51100000000E-03 0. -1.
    9900012    2    1    2    0    0  0.76935914265E+01 -0.39891156215E+02  0.16338936887E+01  0.50528864473E+02  0.30000014052E+02 0.  0.
        -12    1    1    2    0    0 -0.76935914265E+01  0.39891156215E+02 -0.16338936887E+01  0.40659135527E+02  0.00000000000E+00 0.  1.
         11    1    3    3    0    0  0.63488181846E+00  0.32929989418E+01 -0.36942554318E+01  0.49894328747E+01  0.51100000000E-03 0. -1.
        -11    1    3    3    0    0  0.45958944244E+01 -0.52984917696E+01 -0.88202605137E+00  0.70692454201E+01  0.51100000000E-03 0.  1.
         12    1    3    3    0    0  0.24628151836E+01 -0.37885663387E+02  0.62101751719E+01  0.38470186178E+02  0.00000000000E+00 0. -1.
</event>
<event>
 7    1  0.5487071E-013  0.5052887E+02  0.7816164E-02  0.1300439E+00
        -11   -1    0    0    0    0  0.00000000000E+00  0.00000000000E+00  0.45593999997E+02  0.45594000000E+02  0.51100000000E-03 0.  1.
         11   -1    0    0    0    0 -0.00000000000E+00 -0.00000000000E+00 -0.45593999997E+02  0.45594000000E+02  0.51100000000E-03 0. -1.
    9900012    2    1    2    0    0  0.29753965548E+02  0.26723432271E+02 -0.73296954020E+01  0.50528871470E+02  0.30000035320E+02 0.  0.
        -12    1    1    2    0    0 -0.29753965548E+02 -0.26723432271E+02  0.73296954020E+01  0.40659128530E+02  0.00000000000E+00 0.  1.
         11    1    3    3    0    0  0.42486246816E+01  0.21606113599E+01 -0.63711868761E+01  0.79568257242E+01  0.51100000000E-03 0. -1.
        -11    1    3    3    0    0  0.10628207535E+02  0.68988227294E+01 -0.11568084408E+02  0.17157305371E+02  0.51100000000E-03 0.  1.
        -12    1    3    3    0    0  0.14877133331E+02  0.17663998182E+02  0.10609575882E+02  0.25414740375E+02  0.00000000000E+00 0.  1.
</event>
<event>
 7    1  0.5487071E-013  0.5052886E+02  0.7816164E-02  0.1300439E+00
        -11   -1    0    0    0    0  0.00000000000E+00  0.00000000000E+00  0.45593999997E+02  0.45594000000E+02  0.51100000000E-03 0.  1.
         11   -1    0    0    0    0 -0.00000000000E+00 -0.00000000000E+00 -0.45593999997E+02  0.45594000000E+02  0.51100000000E-03 0. -1.
    9900012    2    1    2    0    0 -0.13855260247E+02 -0.24359604267E+02 -0.29458567591E+02  0.50528858825E+02  0.29999996885E+02 0.  0.
        -12    1    1    2    0    0  0.13855260247E+02  0.24359604267E+02  0.29458567591E+02  0.40659141175E+02  0.00000000000E+00 0.  1.
         11    1    3    3    0    0 -0.82908470002E+01 -0.12632493274E+02 -0.25167267175E+02  0.29354886605E+02  0.51100000000E-03 0. -1.
        -11    1    3    3    0    0 -0.11763106744E+01 -0.11926415533E+02 -0.88084503144E+01  0.14873193721E+02  0.51100000000E-03 0.  1.
         12    1    3    3    0    0 -0.43881025726E+01  0.19930453967E+00  0.45171498984E+01  0.63007784988E+01  0.00000000000E+00 0. -1.
</event>
<event>
 7    1  0.5487071E-013  0.5052886E+02  0.7816164E-02  0.1300439E+00
        -11   -1    0    0    0    0  0.00000000000E+00  0.00000000000E+00  0.45593999997E+02  0.45594000000E+02  0.51100000000E-03 0.  1.
         11   -1    0    0    0    0 -0.00000000000E+00 -0.00000000000E+00 -0.45593999997E+02  0.45594000000E+02  0.51100000000E-03 0. -1.
    9900012    2    1    2    0    0  0.47650593734E+01  0.39824274765E+02 -0.66698515812E+01  0.50528861156E+02  0.30000003971E+02 0.  0.
        -12    1    1    2    0    0 -0.47650593734E+01 -0.39824274765E+02  0.66698515812E+01  0.40659138844E+02  0.00000000000E+00 0.  1.
         11    1    3    3    0    0  0.15897580236E+01  0.84232868435E+01 -0.32143538043E+01  0.91548436613E+01  0.51100000000E-03 0. -1.
        -11    1    3    3    0    0  0.49683051557E+00  0.22332612041E+02 -0.14655254122E+02  0.26716453259E+02  0.51100000000E-03 0.  1.
         12    1    3    3    0    0  0.26784708342E+01  0.90683758810E+01  0.11199756345E+02  0.14657564236E+02  0.00000000000E+00 0. -1.
</event>
<event>
 7    1  0.5487071E-013  0.5052887E+02  0.7816164E-02  0.1300439E+00
        -11   -1    0    0    0    0  0.00000000000E+00  0.00000000000E+00  0.45593999997E+02  0.45594000000E+02  0.51100000000E-03 0. -1.
         11   -1    0    0    0    0 -0.00000000000E+00 -0.00000000000E+00 -0.45593999997E+02  0.45594000000E+02  0.51100000000E-03 0.  1.
    9900012    2    1    2    0    0  0.34713883310E+01  0.75906223321E+01  0.39793177099E+02  0.50528867840E+02  0.30000024288E+02 0.  0.
        -12    1    1    2    0    0 -0.34713883310E+01 -0.75906223321E+01 -0.39793177099E+02  0.40659132160E+02  0.00000000000E+00 0.  1.
         11    1    3    3    0    0 -0.49945112976E+01 -0.33910286314E+01  0.17780973828E+02  0.18777839301E+02  0.51100000000E-03 0. -1.
        -11    1    3    3    0    0 -0.17992462543E+01 -0.75673191676E+00 -0.22067684205E+01  0.29461428004E+01  0.51100000000E-03 0.  1.
         12    1    3    3    0    0  0.10265145883E+02  0.11738382880E+02  0.24218971691E+02  0.28804885739E+02  0.00000000000E+00 0. -1.
</event>
<event>
 7    1  0.5487071E-013  0.5052886E+02  0.7816164E-02  0.1300439E+00
        -11   -1    0    0    0    0  0.00000000000E+00  0.00000000000E+00  0.45593999997E+02  0.45594000000E+02  0.51100000000E-03 0.  1.
         11   -1    0    0    0    0 -0.00000000000E+00 -0.00000000000E+00 -0.45593999997E+02  0.45594000000E+02  0.51100000000E-03 0. -1.
    9900012    2    1    2    0    0 -0.15591629684E+02 -0.37039943065E+02 -0.61733056408E+01  0.50528855874E+02  0.29999987916E+02 0.  0.
        -12    1    1    2    0    0  0.15591629684E+02  0.37039943065E+02  0.61733056408E+01  0.40659144126E+02  0.00000000000E+00 0.  1.
         11    1    3    3    0    0 -0.44506411095E+01 -0.24652918255E+01 -0.95828896763E+01  0.10849776259E+02  0.51100000000E-03 0.  1.
        -11    1    3    3    0    0  0.14592520862E+01 -0.69615602179E+00 -0.25756935969E+01  0.30410931627E+01  0.51100000000E-03 0. -1.
         12    1    3    3    0    0 -0.12600240661E+02 -0.33878495218E+02  0.59852776324E+01  0.36637986452E+02  0.00000000000E+00 0. -1.
</event>
<event>
 7    1  0.5487071E-013  0.5052886E+02  0.7816164E-02  0.1300439E+00
        -11   -1    0    0    0    0  0.00000000000E+00  0.00000000000E+00  0.45593999997E+02  0.45594000000E+02  0.51100000000E-03 0.  1.
         11   -1    0    0    0    0 -0.00000000000E+00 -0.00000000000E+00 -0.45593999997E+02  0.45594000000E+02  0.51100000000E-03 0. -1.
    9900012    2    1    2    0    0  0.18794733097E+02 -0.28342564185E+02 -0.22285035796E+02  0.50528858873E+02  0.29999997030E+02 0.  0.
        -12    1    1    2    0    0 -0.18794733097E+02  0.28342564185E+02  0.22285035796E+02  0.40659141127E+02  0.00000000000E+00 0.  1.
         11    1    3    3    0    0  0.16394261785E+02 -0.22838920337E+02 -0.74584072637E+01  0.29086353171E+02  0.51100000000E-03 0. -1.
        -11    1    3    3    0    0  0.54689469245E+01  0.97485694718E+00 -0.69728810572E+00  0.55987442783E+01  0.51100000000E-03 0.  1.
        -12    1    3    3    0    0 -0.30684756128E+01 -0.64785007956E+01 -0.14129340427E+02  0.15843761423E+02  0.00000000000E+00 0.  1.
</event>
<event>
 7    1  0.5487071E-013  0.5052888E+02  0.7816164E-02  0.1300439E+00
        -11   -1    0    0    0    0  0.00000000000E+00  0.00000000000E+00  0.45593999997E+02  0.45594000000E+02  0.51100000000E-03 0.  1.
         11   -1    0    0    0    0 -0.00000000000E+00 -0.00000000000E+00 -0.45593999997E+02  0.45594000000E+02  0.51100000000E-03 0. -1.
    9900012    2    1    2    0    0  0.16962505712E+02  0.95361883643E+01 -0.35700124771E+02  0.50528875597E+02  0.30000047865E+02 0.  0.
        -12    1    1    2    0    0 -0.16962505712E+02 -0.95361883643E+01  0.35700124771E+02  0.40659124403E+02  0.00000000000E+00 0.  1.
         11    1    3    3    0    0  0.12174904626E+02 -0.34405999420E+00 -0.44508417062E+00  0.12187894819E+02  0.51100000000E-03 0. -1.
        -11    1    3    3    0    0  0.36472525482E+01 -0.77210677596E+00 -0.49418265414E+01  0.61903351969E+01  0.51100000000E-03 0.  1.
        -12    1    3    3    0    0  0.11403485369E+01  0.10652355134E+02 -0.30313214059E+02  0.32150645581E+02  0.00000000000E+00 0.  1.
</event>
<event>
 7    1  0.5487071E-013  0.5052885E+02  0.7816164E-02  0.1300439E+00
        -11   -1    0    0    0    0  0.00000000000E+00  0.00000000000E+00  0.45593999997E+02  0.45594000000E+02  0.51100000000E-03 0.  1.
         11   -1    0    0    0    0 -0.00000000000E+00 -0.00000000000E+00 -0.45593999997E+02  0.45594000000E+02  0.51100000000E-03 0. -1.
    9900012    2    1    2    0    0  0.27003688745E+02  0.10254592820E+02 -0.28614871720E+02  0.50528846500E+02  0.29999959422E+02 0.  0.
        -12    1    1    2    0    0 -0.27003688745E+02 -0.10254592820E+02  0.28614871720E+02  0.40659153500E+02  0.00000000000E+00 0.  1.
         11    1    3    3    0    0  0.16682943249E+01 -0.62685996710E+01 -0.53169864597E+01  0.83874246979E+01  0.51100000000E-03 0. -1.
        -11    1    3    3    0    0 -0.17341299992E+01  0.23772619556E+01 -0.68412296348E+01  0.74472145422E+01  0.51100000000E-03 0.  1.
         12    1    3    3    0    0  0.27069524419E+02  0.14145930536E+02 -0.16456655626E+02  0.34694207260E+02  0.00000000000E+00 0. -1.
</event>
<event>
 7    1  0.5487071E-013  0.5052886E+02  0.7816164E-02  0.1300439E+00
        -11   -1    0    0    0    0  0.00000000000E+00  0.00000000000E+00  0.45593999997E+02  0.45594000000E+02  0.51100000000E-03 0.  1.
         11   -1    0    0    0    0 -0.00000000000E+00 -0.00000000000E+00 -0.45593999997E+02  0.45594000000E+02  0.51100000000E-03 0. -1.
    9900012    2    1    2    0    0  0.32229508745E+01  0.12959850759E+02 -0.38403387846E+02  0.50528863978E+02  0.30000012548E+02 0.  0.
        -12    1    1    2    0    0 -0.32229508745E+01 -0.12959850759E+02  0.38403387846E+02  0.40659136022E+02  0.00000000000E+00 0.  1.
         11    1    3    3    0    0 -0.22675717497E+01 -0.45531061938E+01 -0.45302104237E+01  0.68114216135E+01  0.51100000000E-03 0. -1.
        -11    1    3    3    0    0  0.25767347977E+01  0.87250632699E+01 -0.53030144676E+00  0.91130407201E+01  0.51100000000E-03 0.  1.
         12    1    3    3    0    0  0.29137878264E+01  0.87878936828E+01 -0.33342875975E+02  0.34604401644E+02  0.00000000000E+00 0. -1.
</event>
<event>
 7    1  0.5487071E-013  0.5052885E+02  0.7816164E-02  0.1300439E+00
        -11   -1    0    0    0    0  0.00000000000E+00  0.00000000000E+00  0.45593999997E+02  0.45594000000E+02  0.51100000000E-03 0. -1.
         11   -1    0    0    0    0 -0.00000000000E+00 -0.00000000000E+00 -0.45593999997E+02  0.45594000000E+02  0.51100000000E-03 0.  1.
    9900012    2    1    2    0    0 -0.72883549314E+01 -0.39024781448E+02 -0.87813690436E+01  0.50528854326E+02  0.29999983209E+02 0.  0.
        -12    1    1    2    0    0  0.72883549314E+01  0.39024781448E+02  0.87813690436E+01  0.40659145674E+02  0.00000000000E+00 0.  1.
         11    1    3    3    0    0 -0.48494675134E+00 -0.17018363576E+02  0.39142407117E+01  0.17469434815E+02  0.51100000000E-03 0. -1.
        -11    1    3    3    0    0 -0.87877400062E+00 -0.52290366378E+01  0.54794368147E+01  0.76249128501E+01  0.51100000000E-03 0.  1.
        -12    1    3    3    0    0 -0.59246341794E+01 -0.16777381234E+02 -0.18175046570E+02  0.25434506661E+02  0.00000000000E+00 0.  1.
</event>
<event>
 7    1  0.5487071E-013  0.5052885E+02  0.7816164E-02  0.1300439E+00
        -11   -1    0    0    0    0  0.00000000000E+00  0.00000000000E+00  0.45593999997E+02  0.45594000000E+02  0.51100000000E-03 0.  1.
         11   -1    0    0    0    0 -0.00000000000E+00 -0.00000000000E+00 -0.45593999997E+02  0.45594000000E+02  0.51100000000E-03 0. -1.
    9900012    2    1    2    0    0  0.98240517223E+01 -0.39454461675E+02 -0.83690986949E-02  0.50528848406E+02  0.29999965215E+02 0.  0.
        -12    1    1    2    0    0 -0.98240517223E+01  0.39454461675E+02  0.83690986949E-02  0.40659151594E+02  0.00000000000E+00 0.  1.
         11    1    3    3    0    0  0.50234894584E+01 -0.30273915040E+02  0.42547205847E+01  0.30981414198E+02  0.51100000000E-03 0. -1.
        -11    1    3    3    0    0 -0.48715115590E+01 -0.55874920414E+01 -0.53940441047E+01  0.91677371388E+01  0.51100000000E-03 0.  1.
         12    1    3    3    0    0  0.96720738228E+01 -0.35930545938E+01  0.11309544214E+01  0.10379697069E+02  0.00000000000E+00 0. -1.
</event>
<event>
 7    1  0.5487071E-013  0.5052887E+02  0.7816164E-02  0.1300439E+00
        -11   -1    0    0    0    0  0.00000000000E+00  0.00000000000E+00  0.45593999997E+02  0.45594000000E+02  0.51100000000E-03 0.  1.
         11   -1    0    0    0    0 -0.00000000000E+00 -0.00000000000E+00 -0.45593999997E+02  0.45594000000E+02  0.51100000000E-03 0. -1.
    9900012    2    1    2    0    0  0.26505554501E+02  0.15069572182E+02 -0.26898481335E+02  0.50528871587E+02  0.30000035676E+02 0.  0.
        -12    1    1    2    0    0 -0.26505554501E+02 -0.15069572182E+02  0.26898481335E+02  0.40659128413E+02  0.00000000000E+00 0.  1.
         11    1    3    3    0    0  0.29522578771E+01  0.43685067497E+01 -0.50238889651E+00  0.52964207404E+01  0.51100000000E-03 0. -1.
        -11    1    3    3    0    0  0.41246867630E+01  0.15639599805E+02 -0.80880063727E+01  0.18083859387E+02  0.51100000000E-03 0.  1.
        -12    1    3    3    0    0  0.19428609861E+02 -0.49385343729E+01 -0.18308086066E+02  0.27148591460E+02  0.00000000000E+00 0.  1.
</event>
<event>
 7    1  0.5487071E-013  0.5052886E+02  0.7816164E-02  0.1300439E+00
        -11   -1    0    0    0    0  0.00000000000E+00  0.00000000000E+00  0.45593999997E+02  0.45594000000E+02  0.51100000000E-03 0.  1.
         11   -1    0    0    0    0 -0.00000000000E+00 -0.00000000000E+00 -0.45593999997E+02  0.45594000000E+02  0.51100000000E-03 0. -1.
    9900012    2    1    2    0    0  0.27232520541E+02  0.17086313696E+02 -0.24892038587E+02  0.50528857415E+02  0.29999992598E+02 0.  0.
        -12    1    1    2    0    0 -0.27232520541E+02 -0.17086313696E+02  0.24892038587E+02  0.40659142585E+02  0.00000000000E+00 0.  1.
         11    1    3    3    0    0  0.29748577462E+01  0.14110258205E+01  0.11876023589E+01  0.35001674388E+01  0.51100000000E-03 0. -1.
        -11    1    3    3    0    0  0.12420519628E+01  0.75623295550E+01  0.37141499037E+01  0.85162451318E+01  0.51100000000E-03 0.  1.
         12    1    3    3    0    0  0.23015610832E+02  0.81129583207E+01 -0.29793790850E+02  0.38512444844E+02  0.00000000000E+00 0. -1.
</event>
<event>
 7    1  0.5487071E-013  0.5052885E+02  0.7816164E-02  0.1300439E+00
        -11   -1    0    0    0    0  0.00000000000E+00  0.00000000000E+00  0.45593999997E+02  0.45594000000E+02  0.51100000000E-03 0.  1.
         11   -1    0    0    0    0 -0.00000000000E+00 -0.00000000000E+00 -0.45593999997E+02  0.45594000000E+02  0.51100000000E-03 0. -1.
    9900012    2    1    2    0    0 -0.30951083578E+02  0.26049090035E+02 -0.40794442839E+01  0.50528849346E+02  0.29999968071E+02 0.  0.
        -12    1    1    2    0    0  0.30951083578E+02 -0.26049090035E+02  0.40794442839E+01  0.40659150654E+02  0.00000000000E+00 0.  1.
         11    1    3    3    0    0 -0.35187703916E+02  0.16712613859E+02 -0.74087468039E+00  0.38961966896E+02  0.51100000000E-03 0.  1.
        -11    1    3    3    0    0 -0.35101060095E+00  0.16972318203E-01 -0.79989864295E+00  0.87369022067E+00  0.51100000000E-03 0. -1.
         12    1    3    3    0    0  0.45876309394E+01  0.93195038577E+01 -0.25386709606E+01  0.10693192229E+02  0.00000000000E+00 0. -1.
</event>
<event>
 7    1  0.5487071E-013  0.5052897E+02  0.7816164E-02  0.1300438E+00
        -11   -1    0    0    0    0  0.00000000000E+00  0.00000000000E+00  0.45593999997E+02  0.45594000000E+02  0.51100000000E-03 0.  1.
         11   -1    0    0    0    0 -0.00000000000E+00 -0.00000000000E+00 -0.45593999997E+02  0.45594000000E+02  0.51100000000E-03 0. -1.
    9900012    2    1    2    0    0  0.30880716090E+02  0.81843012178E+01 -0.25150647501E+02  0.50528972929E+02  0.30000343714E+02 0.  0.
        -12    1    1    2    0    0 -0.30880716090E+02 -0.81843012178E+01  0.25150647501E+02  0.40659027071E+02  0.00000000000E+00 0.  1.
         11    1    3    3    0    0  0.16785586114E+02 -0.74929455581E+01 -0.14826251289E+02  0.23616050937E+02  0.51100000000E-03 0. -1.
        -11    1    3    3    0    0  0.16046587332E+02  0.10208300146E+02 -0.73559488870E+01  0.20391477169E+02  0.51100000000E-03 0.  1.
         12    1    3    3    0    0 -0.19514573557E+01  0.54689466303E+01 -0.29684473248E+01  0.65214448227E+01  0.00000000000E+00 0. -1.
</event>
<event>
 7    1  0.5487071E-013  0.5052886E+02  0.7816164E-02  0.1300439E+00
        -11   -1    0    0    0    0  0.00000000000E+00  0.00000000000E+00  0.45593999997E+02  0.45594000000E+02  0.51100000000E-03 0.  1.
         11   -1    0    0    0    0 -0.00000000000E+00 -0.00000000000E+00 -0.45593999997E+02  0.45594000000E+02  0.51100000000E-03 0. -1.
    9900012    2    1    2    0    0  0.23707908546E+02 -0.27623307089E+02 -0.18112256030E+02  0.50528857846E+02  0.29999993909E+02 0.  0.
        -12    1    1    2    0    0 -0.23707908546E+02  0.27623307089E+02  0.18112256030E+02  0.40659142154E+02  0.00000000000E+00 0.  1.
         11    1    3    3    0    0 -0.21610386706E+01  0.22239081840E+01 -0.14431679520E+01  0.34203201233E+01  0.51100000000E-03 0. -1.
        -11    1    3    3    0    0  0.17029756451E+01  0.15884245743E+01  0.21939297235E+01  0.31994603559E+01  0.51100000000E-03 0.  1.
        -12    1    3    3    0    0  0.24165971572E+02 -0.31435639847E+02 -0.18863017802E+02  0.43909077367E+02  0.00000000000E+00 0.  1.
</event>
<event>
 7    1  0.5487071E-013  0.5052886E+02  0.7816164E-02  0.1300439E+00
        -11   -1    0    0    0    0  0.00000000000E+00  0.00000000000E+00  0.45593999997E+02  0.45594000000E+02  0.51100000000E-03 0.  1.
         11   -1    0    0    0    0 -0.00000000000E+00 -0.00000000000E+00 -0.45593999997E+02  0.45594000000E+02  0.51100000000E-03 0. -1.
    9900012    2    1    2    0    0 -0.26321711692E+02  0.30524343123E+02  0.53477136446E+01  0.50528855018E+02  0.29999985312E+02 0.  0.
        -12    1    1    2    0    0  0.26321711692E+02 -0.30524343123E+02 -0.53477136446E+01  0.40659144982E+02  0.00000000000E+00 0.  1.
         11    1    3    3    0    0  0.22412406767E+01  0.26985720346E+01  0.41644260377E+00  0.35325451873E+01  0.51100000000E-03 0.  1.
        -11    1    3    3    0    0  0.16047129342E+01  0.11517281119E+02 -0.25294946339E+01  0.11900471055E+02  0.51100000000E-03 0. -1.
        -12    1    3    3    0    0 -0.30167665303E+02  0.16308489970E+02  0.74607656747E+01  0.35095838775E+02  0.00000000000E+00 0.  1.
</event>
<event>
 7    1  0.5487071E-013  0.5052896E+02  0.7816164E-02  0.1300438E+00
        -11   -1    0    0    0    0  0.00000000000E+00  0.00000000000E+00  0.45593999997E+02  0.45594000000E+02  0.51100000000E-03 0.  1.
         11   -1    0    0    0    0 -0.00000000000E+00 -0.00000000000E+00 -0.45593999997E+02  0.45594000000E+02  0.51100000000E-03 0. -1.
    9900012    2    1    2    0    0  0.44369843836E+01  0.84797282411E+01 -0.39516639418E+02  0.50528961493E+02  0.30000308952E+02 0.  0.
        -12    1    1    2    0    0 -0.44369843836E+01 -0.84797282411E+01  0.39516639418E+02  0.40659038507E+02  0.00000000000E+00 0.  1.
         11    1    3    3    0    0  0.32409669255E+01  0.65368985005E+01 -0.48992792438E+01  0.87885064709E+01  0.51100000000E-03 0. -1.
        -11    1    3    3    0    0 -0.22857228930E+01 -0.90084187896E+01 -0.64319297005E+01  0.11302471330E+02  0.51100000000E-03 0.  1.
         12    1    3    3    0    0  0.34817403510E+01  0.10951248530E+02 -0.28185430473E+02  0.30437983692E+02  0.00000000000E+00 0. -1.
</event>
<event>
 7    1  0.5487071E-013  0.5052886E+02  0.7816164E-02  0.1300439E+00
        -11   -1    0    0    0    0  0.00000000000E+00  0.00000000000E+00  0.45593999997E+02  0.45594000000E+02  0.51100000000E-03 0.  1.
         11   -1    0    0    0    0 -0.00000000000E+00 -0.00000000000E+00 -0.45593999997E+02  0.45594000000E+02  0.51100000000E-03 0. -1.
    9900012    2    1    2    0    0 -0.22555631079E+02  0.12531834578E+02 -0.31422324136E+02  0.50528858035E+02  0.29999994482E+02 0.  0.
        -12    1    1    2    0    0  0.22555631079E+02 -0.12531834578E+02  0.31422324136E+02  0.40659141965E+02  0.00000000000E+00 0.  1.
         11    1    3    3    0    0 -0.71880246896E+01  0.11879595553E+02 -0.77306324073E+01  0.15891984367E+02  0.51100000000E-03 0. -1.
        -11    1    3    3    0    0 -0.43771165656E+01  0.35455045812E+01  0.24416024088E+01  0.61393138662E+01  0.51100000000E-03 0.  1.
         12    1    3    3    0    0 -0.10990489824E+02 -0.28932655570E+01 -0.26133294137E+02  0.28497559801E+02  0.00000000000E+00 0. -1.
</event>
<event>
 7    1  0.5487071E-013  0.5052885E+02  0.7816164E-02  0.1300439E+00
        -11   -1    0    0    0    0  0.00000000000E+00  0.00000000000E+00  0.45593999997E+02  0.45594000000E+02  0.51100000000E-03 0.  1.
         11   -1    0    0    0    0 -0.00000000000E+00 -0.00000000000E+00 -0.45593999997E+02  0.45594000000E+02  0.51100000000E-03 0. -1.
    9900012    2    1    2    0    0 -0.40508852243E+00  0.91963039164E+01 -0.39603415518E+02  0.50528848224E+02  0.29999964663E+02 0.  0.
        -12    1    1    2    0    0  0.40508852243E+00 -0.91963039164E+01  0.39603415518E+02  0.40659151776E+02  0.00000000000E+00 0.  1.
         11    1    3    3    0    0  0.85692576697E+01  0.94267008978E+01 -0.10415760244E+02  0.16455483236E+02  0.51100000000E-03 0. -1.
        -11    1    3    3    0    0  0.29108226011E+01  0.39536784628E+01 -0.68624527852E+01  0.84378741454E+01  0.51100000000E-03 0.  1.
        -12    1    3    3    0    0 -0.11885168793E+02 -0.41840754443E+01 -0.22325202489E+02  0.25635490843E+02  0.00000000000E+00 0.  1.
</event>
<event>
 7    1  0.5487071E-013  0.5052886E+02  0.7816164E-02  0.1300439E+00
        -11   -1    0    0    0    0  0.00000000000E+00  0.00000000000E+00  0.45593999997E+02  0.45594000000E+02  0.51100000000E-03 0.  1.
         11   -1    0    0    0    0 -0.00000000000E+00 -0.00000000000E+00 -0.45593999997E+02  0.45594000000E+02  0.51100000000E-03 0. -1.
    9900012    2    1    2    0    0 -0.96515534651E+01  0.24701108474E+02 -0.30819939077E+02  0.50528857254E+02  0.29999992110E+02 0.  0.
        -12    1    1    2    0    0  0.96515534651E+01 -0.24701108474E+02  0.30819939077E+02  0.40659142746E+02  0.00000000000E+00 0.  1.
         11    1    3    3    0    0 -0.92142823801E+01  0.14182714929E+02 -0.12589252114E+02  0.21084156885E+02  0.51100000000E-03 0. -1.
        -11    1    3    3    0    0 -0.59230558014E+01  0.10128916201E+02 -0.20399167172E+02  0.23533031148E+02  0.51100000000E-03 0.  1.
        -12    1    3    3    0    0  0.54857847163E+01  0.38947734451E+00  0.21684802094E+01  0.59116692206E+01  0.00000000000E+00 0.  1.
</event>
<event>
 7    1  0.5487071E-013  0.5052887E+02  0.7816164E-02  0.1300439E+00
        -11   -1    0    0    0    0  0.00000000000E+00  0.00000000000E+00  0.45593999997E+02  0.45594000000E+02  0.51100000000E-03 0. -1.
         11   -1    0    0    0    0 -0.00000000000E+00 -0.00000000000E+00 -0.45593999997E+02  0.45594000000E+02  0.51100000000E-03 0.  1.
    9900012    2    1    2    0    0  0.45676409944E+01 -0.27521127789E+02  0.29578526049E+02  0.50528867910E+02  0.30000024500E+02 0.  0.
        -12    1    1    2    0    0 -0.45676409944E+01  0.27521127789E+02 -0.29578526049E+02  0.40659132090E+02  0.00000000000E+00 0.  1.
         11    1    3    3    0    0 -0.49483882033E+00 -0.38880422928E+01  0.73033658617E+01  0.82886000929E+01  0.51100000000E-03 0. -1.
        -11    1    3    3    0    0 -0.59449703794E+01 -0.21417758235E+02  0.70423492387E+01  0.23316468937E+02  0.51100000000E-03 0.  1.
         12    1    3    3    0    0  0.11007450194E+02 -0.22153272609E+01  0.15232810949E+02  0.18923798880E+02  0.00000000000E+00 0. -1.
</event>
<event>
 7    1  0.5487071E-013  0.5052886E+02  0.7816164E-02  0.1300439E+00
        -11   -1    0    0    0    0  0.00000000000E+00  0.00000000000E+00  0.45593999997E+02  0.45594000000E+02  0.51100000000E-03 0. -1.
         11   -1    0    0    0    0 -0.00000000000E+00 -0.00000000000E+00 -0.45593999997E+02  0.45594000000E+02  0.51100000000E-03 0.  1.
    9900012    2    1    2    0    0 -0.34258303886E+01 -0.32406512645E+02  0.24315570181E+02  0.50528864139E+02  0.30000013038E+02 0.  0.
        -12    1    1    2    0    0  0.34258303886E+01  0.32406512645E+02 -0.24315570181E+02  0.40659135861E+02  0.00000000000E+00 0.  1.
         11    1    3    3    0    0  0.30848642246E+01 -0.29834663792E+02  0.16548278187E+02  0.34255934699E+02  0.51100000000E-03 0. -1.
        -11    1    3    3    0    0 -0.25729683811E+01 -0.63253170163E+01  0.83670903025E+01  0.10799907501E+02  0.51100000000E-03 0.  1.
        -12    1    3    3    0    0 -0.39377262321E+01  0.37534681634E+01 -0.59979830810E+00  0.54730219388E+01  0.00000000000E+00 0.  1.
</event>
<event>
 7    1  0.5487071E-013  0.5052875E+02  0.7816164E-02  0.1300439E+00
        -11   -1    0    0    0    0  0.00000000000E+00  0.00000000000E+00  0.45593999997E+02  0.45594000000E+02  0.51100000000E-03 0.  1.
         11   -1    0    0    0    0 -0.00000000000E+00 -0.00000000000E+00 -0.45593999997E+02  0.45594000000E+02  0.51100000000E-03 0. -1.
    9900012    2    1    2    0    0  0.11440036773E+01 -0.18334667123E+02 -0.36272664730E+02  0.50528745585E+02  0.29999652678E+02 0.  0.
        -12    1    1    2    0    0 -0.11440036773E+01  0.18334667123E+02  0.36272664730E+02  0.40659254415E+02  0.00000000000E+00 0.  1.
         11    1    3    3    0    0  0.12343849560E+01  0.23849880791E+00 -0.28884805568E+02  0.28912152823E+02  0.51100000000E-03 0. -1.
        -11    1    3    3    0    0 -0.77492892971E+00 -0.21605429778E+01 -0.43396477177E+01  0.49092772767E+01  0.51100000000E-03 0.  1.
        -12    1    3    3    0    0  0.68454765099E+00 -0.16412622953E+02 -0.30482114444E+01  0.16707315485E+02  0.00000000000E+00 0.  1.
</event>
<event>
 7    1  0.5487071E-013  0.5052886E+02  0.7816164E-02  0.1300439E+00
        -11   -1    0    0    0    0  0.00000000000E+00  0.00000000000E+00  0.45593999997E+02  0.45594000000E+02  0.51100000000E-03 0. -1.
         11   -1    0    0    0    0 -0.00000000000E+00 -0.00000000000E+00 -0.45593999997E+02  0.45594000000E+02  0.51100000000E-03 0.  1.
    9900012    2    1    2    0    0 -0.11332710702E+02 -0.21022686800E+01  0.38991223886E+02  0.50528863197E+02  0.30000010173E+02 0.  0.
        -12    1    1    2    0    0  0.11332710702E+02  0.21022686800E+01 -0.38991223886E+02  0.40659136803E+02  0.00000000000E+00 0.  1.
         11    1    3    3    0    0  0.72856398968E+01 -0.21468056777E+00  0.90264337257E+01  0.11601859442E+02  0.51100000000E-03 0. -1.
        -11    1    3    3    0    0  0.18915960892E+00 -0.56924462099E+00 -0.18503033420E+01  0.19451075844E+01  0.51100000000E-03 0.  1.
         12    1    3    3    0    0 -0.18807510208E+02 -0.13183434913E+01  0.31815093502E+02  0.36981896170E+02  0.00000000000E+00 0. -1.
</event>
<event>
 7    1  0.5487071E-013  0.5052886E+02  0.7816164E-02  0.1300439E+00
        -11   -1    0    0    0    0  0.00000000000E+00  0.00000000000E+00  0.45593999997E+02  0.45594000000E+02  0.51100000000E-03 0.  1.
         11   -1    0    0    0    0 -0.00000000000E+00 -0.00000000000E+00 -0.45593999997E+02  0.45594000000E+02  0.51100000000E-03 0. -1.
    9900012    2    1    2    0    0  0.23897769423E+01  0.25497937710E+00 -0.40588048454E+02  0.50528859261E+02  0.29999998210E+02 0.  0.
        -12    1    1    2    0    0 -0.23897769423E+01 -0.25497937710E+00  0.40588048454E+02  0.40659140739E+02  0.00000000000E+00 0.  1.
         11    1    3    3    0    0  0.31148979812E+01  0.13069762339E+01 -0.59534081833E+01  0.68449868932E+01  0.51100000000E-03 0. -1.
        -11    1    3    3    0    0  0.72747588202E+01 -0.11324276173E+01  0.75521684303E+00  0.74010040496E+01  0.51100000000E-03 0.  1.
         12    1    3    3    0    0 -0.79998798591E+01  0.80430760528E-01 -0.35389857114E+02  0.36282868318E+02  0.00000000000E+00 0. -1.
</event>
<event>
 7    1  0.5487071E-013  0.5052885E+02  0.7816164E-02  0.1300439E+00
        -11   -1    0    0    0    0  0.00000000000E+00  0.00000000000E+00  0.45593999997E+02  0.45594000000E+02  0.51100000000E-03 0.  1.
         11   -1    0    0    0    0 -0.00000000000E+00 -0.00000000000E+00 -0.45593999997E+02  0.45594000000E+02  0.51100000000E-03 0. -1.
    9900012    2    1    2    0    0  0.40310575579E+02 -0.41977572238E+01 -0.32561504854E+01  0.50528853610E+02  0.29999981032E+02 0.  0.
        -12    1    1    2    0    0 -0.40310575579E+02  0.41977572238E+01  0.32561504854E+01  0.40659146390E+02  0.00000000000E+00 0.  1.
         11    1    3    3    0    0  0.18987313529E+02 -0.84382085917E+01 -0.12860206861E+02  0.24435759863E+02  0.51100000000E-03 0. -1.
        -11    1    3    3    0    0  0.12800324409E+02  0.49051657550E+01  0.66483624513E+00  0.13724101558E+02  0.51100000000E-03 0.  1.
        -12    1    3    3    0    0  0.85229376401E+01 -0.66471438713E+00  0.89392201305E+01  0.12368992189E+02  0.00000000000E+00 0.  1.
</event>
<event>
 7    1  0.5977154E-013  0.5052889E+02  0.7816164E-02  0.1300439E+00
        -11   -1    0    0    0    0  0.00000000000E+00  0.00000000000E+00  0.45593999997E+02  0.45594000000E+02  0.51100000000E-03 0. -1.
         11   -1    0    0    0    0 -0.00000000000E+00 -0.00000000000E+00 -0.45593999997E+02  0.45594000000E+02  0.51100000000E-03 0.  1.
    9900012    2    1    2    0    0 -0.24441931003E+02  0.23805482620E+02  0.22114567008E+02  0.50528891945E+02  0.30000097554E+02 0.  0.
        -12    1    1    2    0    0  0.24441931003E+02 -0.23805482620E+02 -0.22114567008E+02  0.40659108055E+02  0.00000000000E+00 0.  1.
         11    1    3    3    0    0 -0.14088795039E+02  0.74179535215E+01  0.22070729149E+01  0.16074556019E+02  0.51100000000E-03 0. -1.
        -11    1    3    3    0    0 -0.61918469599E+01 -0.30447297320E+01  0.90607066515E+00  0.69591890496E+01  0.51100000000E-03 0.  1.
         12    1    3    3    0    0 -0.41612890036E+01  0.19432258831E+02  0.19001423427E+02  0.27495146876E+02  0.00000000000E+00 0. -1.
</event>
<event>
 7    1  0.5487071E-013  0.5052882E+02  0.7816164E-02  0.1300439E+00
        -11   -1    0    0    0    0  0.00000000000E+00  0.00000000000E+00  0.45593999997E+02  0.45594000000E+02  0.51100000000E-03 0. -1.
         11   -1    0    0    0    0 -0.00000000000E+00 -0.00000000000E+00 -0.45593999997E+02  0.45594000000E+02  0.51100000000E-03 0.  1.
    9900012    2    1    2    0    0 -0.29647775203E+01 -0.34832465277E+02 -0.20762419566E+02  0.50528823800E+02  0.29999890422E+02 0.  0.
        -12    1    1    2    0    0  0.29647775203E+01  0.34832465277E+02  0.20762419566E+02  0.40659176200E+02  0.00000000000E+00 0.  1.
         11    1    3    3    0    0 -0.17879747022E+01  0.69182460346E+00  0.40625936438E+01  0.44922313157E+01  0.51100000000E-03 0. -1.
        -11    1    3    3    0    0 -0.21005394792E+01 -0.84576281343E+01 -0.14767235018E+02  0.17146864730E+02  0.51100000000E-03 0.  1.
         12    1    3    3    0    0  0.92373666116E+00 -0.27066661746E+02 -0.10057778193E+02  0.28889727754E+02  0.00000000000E+00 0. -1.
</event>
<event>
 7    1  0.5487071E-013  0.5052886E+02  0.7816164E-02  0.1300439E+00
        -11   -1    0    0    0    0  0.00000000000E+00  0.00000000000E+00  0.45593999997E+02  0.45594000000E+02  0.51100000000E-03 0.  1.
         11   -1    0    0    0    0 -0.00000000000E+00 -0.00000000000E+00 -0.45593999997E+02  0.45594000000E+02  0.51100000000E-03 0. -1.
    9900012    2    1    2    0    0  0.98286188825E+01  0.38488803606E+02 -0.86704093455E+01  0.50528858957E+02  0.29999997286E+02 0.  0.
        -12    1    1    2    0    0 -0.98286188825E+01 -0.38488803606E+02  0.86704093455E+01  0.40659141043E+02  0.00000000000E+00 0.  1.
         11    1    3    3    0    0 -0.12746052127E+01  0.10610822105E+02 -0.35952264410E+01  0.11275629367E+02  0.51100000000E-03 0. -1.
        -11    1    3    3    0    0  0.98841932184E+01  0.18667511149E+02 -0.14809199828E+02  0.25797008507E+02  0.51100000000E-03 0.  1.
        -12    1    3    3    0    0  0.12190308768E+01  0.92104703515E+01  0.97340169239E+01  0.13456221084E+02  0.00000000000E+00 0.  1.
</event>
<event>
 7    1  0.5541810E-013  0.5052887E+02  0.7816164E-02  0.1300439E+00
        -11   -1    0    0    0    0  0.00000000000E+00  0.00000000000E+00  0.45593999997E+02  0.45594000000E+02  0.51100000000E-03 0.  1.
         11   -1    0    0    0    0 -0.00000000000E+00 -0.00000000000E+00 -0.45593999997E+02  0.45594000000E+02  0.51100000000E-03 0. -1.
    9900012    2    1    2    0    0  0.33111369109E+02  0.15604526834E+02  0.17700315659E+02  0.50528865769E+02  0.30000017991E+02 0.  0.
        -12    1    1    2    0    0 -0.33111369109E+02 -0.15604526834E+02 -0.17700315659E+02  0.40659134231E+02  0.00000000000E+00 0.  1.
         11    1    3    3    0    0  0.56698372029E+01  0.10695907215E+02 -0.31749917169E+00  0.12109925311E+02  0.51100000000E-03 0. -1.
        -11    1    3    3    0    0  0.19572435825E+01 -0.10543654156E+01  0.11137295527E+02  0.11357017249E+02  0.51100000000E-03 0.  1.
         12    1    3    3    0    0  0.25484288323E+02  0.59629850349E+01  0.68805193039E+01  0.27061923209E+02  0.00000000000E+00 0. -1.
</event>
<event>
 7    1  0.5487071E-013  0.5052886E+02  0.7816164E-02  0.1300439E+00
        -11   -1    0    0    0    0  0.00000000000E+00  0.00000000000E+00  0.45593999997E+02  0.45594000000E+02  0.51100000000E-03 0.  1.
         11   -1    0    0    0    0 -0.00000000000E+00 -0.00000000000E+00 -0.45593999997E+02  0.45594000000E+02  0.51100000000E-03 0. -1.
    9900012    2    1    2    0    0 -0.17956757297E+02  0.12661718161E+02 -0.34211128046E+02  0.50528861770E+02  0.30000005837E+02 0.  0.
        -12    1    1    2    0    0  0.17956757297E+02 -0.12661718161E+02  0.34211128046E+02  0.40659138230E+02  0.00000000000E+00 0.  1.
         11    1    3    3    0    0 -0.15584086578E+02  0.11394582798E+02 -0.35420535002E+02  0.40339987255E+02  0.51100000000E-03 0. -1.
        -11    1    3    3    0    0 -0.13449367497E+01  0.11759136926E+01 -0.42618681865E+01  0.46211631191E+01  0.51100000000E-03 0.  1.
        -12    1    3    3    0    0 -0.10277339691E+01  0.91221670669E-01  0.54712751429E+01  0.55677113964E+01  0.00000000000E+00 0.  1.
</event>
<event>
 7    1  0.5487071E-013  0.5052886E+02  0.7816164E-02  0.1300439E+00
        -11   -1    0    0    0    0  0.00000000000E+00  0.00000000000E+00  0.45593999997E+02  0.45594000000E+02  0.51100000000E-03 0.  1.
         11   -1    0    0    0    0 -0.00000000000E+00 -0.00000000000E+00 -0.45593999997E+02  0.45594000000E+02  0.51100000000E-03 0. -1.
    9900012    2    1    2    0    0  0.42045284209E+01 -0.39987171700E+02 -0.60426422414E+01  0.50528862219E+02  0.30000007201E+02 0.  0.
        -12    1    1    2    0    0 -0.42045284209E+01  0.39987171700E+02  0.60426422414E+01  0.40659137781E+02  0.00000000000E+00 0.  1.
         11    1    3    3    0    0  0.11509825754E+01 -0.23565516469E+02 -0.16748883311E+01  0.23652982445E+02  0.51100000000E-03 0. -1.
        -11    1    3    3    0    0 -0.37849723250E+01 -0.18005590525E+02  0.37733228030E+00  0.18402980345E+02  0.51100000000E-03 0.  1.
        -12    1    3    3    0    0  0.68385181705E+01  0.15839352940E+01 -0.47450861906E+01  0.84728994293E+01  0.00000000000E+00 0.  1.
</event>
<event>
 7    1  0.5487071E-013  0.5052886E+02  0.7816164E-02  0.1300439E+00
        -11   -1    0    0    0    0  0.00000000000E+00  0.00000000000E+00  0.45593999997E+02  0.45594000000E+02  0.51100000000E-03 0.  1.
         11   -1    0    0    0    0 -0.00000000000E+00 -0.00000000000E+00 -0.45593999997E+02  0.45594000000E+02  0.51100000000E-03 0. -1.
    9900012    2    1    2    0    0 -0.33948904224E+02  0.15522807993E+02 -0.16114590016E+02  0.50528859854E+02  0.30000000014E+02 0.  0.
        -12    1    1    2    0    0  0.33948904224E+02 -0.15522807993E+02  0.16114590016E+02  0.40659140146E+02  0.00000000000E+00 0.  1.
         11    1    3    3    0    0 -0.17626145374E+02  0.44900477297E+01 -0.43551482680E+01  0.18703177432E+02  0.51100000000E-03 0. -1.
        -11    1    3    3    0    0 -0.14931248446E+02  0.27267236838E+01  0.23844417663E+01  0.15364334187E+02  0.51100000000E-03 0.  1.
         12    1    3    3    0    0 -0.13915104037E+01  0.83060365797E+01 -0.14143883514E+02  0.16461348235E+02  0.00000000000E+00 0. -1.
</event>
<event>
 7    1  0.5487071E-013  0.5052887E+02  0.7816164E-02  0.1300439E+00
        -11   -1    0    0    0    0  0.00000000000E+00  0.00000000000E+00  0.45593999997E+02  0.45594000000E+02  0.51100000000E-03 0.  1.
         11   -1    0    0    0    0 -0.00000000000E+00 -0.00000000000E+00 -0.45593999997E+02  0.45594000000E+02  0.51100000000E-03 0. -1.
    9900012    2    1    2    0    0 -0.35002552983E+02 -0.15402087366E+02 -0.13811670274E+02  0.50528865155E+02  0.30000016126E+02 0.  0.
        -12    1    1    2    0    0  0.35002552983E+02  0.15402087366E+02  0.13811670274E+02  0.40659134845E+02  0.00000000000E+00 0.  1.
         11    1    3    3    0    0 -0.97611716123E+01 -0.42249160883E+01 -0.15486815439E+02  0.18787544808E+02  0.51100000000E-03 0. -1.
        -11    1    3    3    0    0 -0.97935182444E+01  0.33276165056E+01 -0.96010230430E+00  0.10387869267E+02  0.51100000000E-03 0.  1.
         12    1    3    3    0    0 -0.15447863127E+02 -0.14504787783E+02  0.26352474697E+01  0.21353451080E+02  0.00000000000E+00 0. -1.
</event>
<event>
 7    1  0.5487071E-013  0.5052887E+02  0.7816164E-02  0.1300439E+00
        -11   -1    0    0    0    0  0.00000000000E+00  0.00000000000E+00  0.45593999997E+02  0.45594000000E+02  0.51100000000E-03 0.  1.
         11   -1    0    0    0    0 -0.00000000000E+00 -0.00000000000E+00 -0.45593999997E+02  0.45594000000E+02  0.51100000000E-03 0. -1.
    9900012    2    1    2    0    0 -0.23314817526E+02  0.25391592757E+02 -0.21560413411E+02  0.50528866641E+02  0.30000020643E+02 0.  0.
        -12    1    1    2    0    0  0.23314817526E+02 -0.25391592757E+02  0.21560413411E+02  0.40659133359E+02  0.00000000000E+00 0.  1.
         11    1    3    3    0    0  0.31432570832E+01 -0.20523202218E+01 -0.66659091549E+01  0.76502567608E+01  0.51100000000E-03 0. -1.
        -11    1    3    3    0    0  0.96384145191E+00  0.40489377539E+01 -0.16282659610E+01  0.44692435132E+01  0.51100000000E-03 0.  1.
        -12    1    3    3    0    0 -0.27421916061E+02  0.23394975225E+02 -0.13266238295E+02  0.38409366367E+02  0.00000000000E+00 0.  1.
</event>
<event>
 7    1  0.5487071E-013  0.5052888E+02  0.7816164E-02  0.1300439E+00
        -11   -1    0    0    0    0  0.00000000000E+00  0.00000000000E+00  0.45593999997E+02  0.45594000000E+02  0.51100000000E-03 0. -1.
         11   -1    0    0    0    0 -0.00000000000E+00 -0.00000000000E+00 -0.45593999997E+02  0.45594000000E+02  0.51100000000E-03 0.  1.
    9900012    2    1    2    0    0  0.49623315184E+01  0.34984408238E+02  0.20115437177E+02  0.50528875972E+02  0.30000049006E+02 0.  0.
        -12    1    1    2    0    0 -0.49623315184E+01 -0.34984408238E+02 -0.20115437177E+02  0.40659124028E+02  0.00000000000E+00 0.  1.
         11    1    3    3    0    0 -0.34944922628E+01  0.86128509882E+01  0.77787288822E+01  0.12120284716E+02  0.51100000000E-03 0. -1.
        -11    1    3    3    0    0 -0.68841730576E+01  0.12867498975E+02  0.11206563758E+00  0.14593729048E+02  0.51100000000E-03 0.  1.
         12    1    3    3    0    0  0.15340996839E+02  0.13504058275E+02  0.12224642657E+02  0.23814862208E+02  0.00000000000E+00 0. -1.
</event>
<event>
 7    1  0.5487071E-013  0.5052885E+02  0.7816164E-02  0.1300439E+00
        -11   -1    0    0    0    0  0.00000000000E+00  0.00000000000E+00  0.45593999997E+02  0.45594000000E+02  0.51100000000E-03 0.  1.
         11   -1    0    0    0    0 -0.00000000000E+00 -0.00000000000E+00 -0.45593999997E+02  0.45594000000E+02  0.51100000000E-03 0. -1.
    9900012    2    1    2    0    0 -0.32464160096E+02 -0.22828074791E+02 -0.88387478990E+01  0.50528853996E+02  0.29999982205E+02 0.  0.
        -12    1    1    2    0    0  0.32464160096E+02  0.22828074791E+02  0.88387478990E+01  0.40659146004E+02  0.00000000000E+00 0.  1.
         11    1    3    3    0    0 -0.16028083194E+02  0.35333270071E+00  0.41998544126E+00  0.16037477448E+02  0.51100000000E-03 0. -1.
        -11    1    3    3    0    0 -0.64368868098E+01 -0.14279476351E+02  0.34428525725E+01  0.16037150332E+02  0.51100000000E-03 0.  1.
         12    1    3    3    0    0 -0.99991900917E+01 -0.89019311407E+01 -0.12701585913E+02  0.18454226216E+02  0.00000000000E+00 0. -1.
</event>
<event>
 7    1  0.5487071E-013  0.5052885E+02  0.7816164E-02  0.1300439E+00
        -11   -1    0    0    0    0  0.00000000000E+00  0.00000000000E+00  0.45593999997E+02  0.45594000000E+02  0.51100000000E-03 0.  1.
         11   -1    0    0    0    0 -0.00000000000E+00 -0.00000000000E+00 -0.45593999997E+02  0.45594000000E+02  0.51100000000E-03 0. -1.
    9900012    2    1    2    0    0  0.40084580753E+02 -0.57846965716E+01  0.35958106497E+01  0.50528853639E+02  0.29999981120E+02 0.  0.
        -12    1    1    2    0    0 -0.40084580753E+02  0.57846965716E+01 -0.35958106497E+01  0.40659146361E+02  0.00000000000E+00 0.  1.
         11    1    3    3    0    0  0.18358552618E+02 -0.41587891143E+01  0.63686741091E+01  0.19871889475E+02  0.51100000000E-03 0. -1.
        -11    1    3    3    0    0  0.76682927934E+01 -0.74275018213E+01  0.68276422981E+01  0.12672300394E+02  0.51100000000E-03 0.  1.
        -12    1    3    3    0    0  0.14057735342E+02  0.58015943641E+01 -0.96005057576E+01  0.17984663770E+02  0.00000000000E+00 0.  1.
</event>
<event>
 7    1  0.5487071E-013  0.5052888E+02  0.7816164E-02  0.1300439E+00
        -11   -1    0    0    0    0  0.00000000000E+00  0.00000000000E+00  0.45593999997E+02  0.45594000000E+02  0.51100000000E-03 0. -1.
         11   -1    0    0    0    0 -0.00000000000E+00 -0.00000000000E+00 -0.45593999997E+02  0.45594000000E+02  0.51100000000E-03 0.  1.
    9900012    2    1    2    0    0 -0.15558986240E+02  0.50164117271E+01  0.37227911882E+02  0.50528882172E+02  0.30000067851E+02 0.  0.
        -12    1    1    2    0    0  0.15558986240E+02 -0.50164117271E+01 -0.37227911882E+02  0.40659117828E+02  0.00000000000E+00 0.  1.
         11    1    3    3    0    0  0.21251206141E+01  0.52312184962E+00  0.59090526660E+01  0.63013250801E+01  0.51100000000E-03 0. -1.
        -11    1    3    3    0    0  0.14554794315E+01  0.52760011567E+01 -0.19732329304E+01  0.58179254928E+01  0.51100000000E-03 0.  1.
        -12    1    3    3    0    0 -0.19139586286E+02 -0.78271127922E+00  0.33292092146E+02  0.38409631600E+02  0.00000000000E+00 0.  1.
</event>
<event>
 7    1  0.5487071E-013  0.5052887E+02  0.7816164E-02  0.1300439E+00
        -11   -1    0    0    0    0  0.00000000000E+00  0.00000000000E+00  0.45593999997E+02  0.45594000000E+02  0.51100000000E-03 0. -1.
         11   -1    0    0    0    0 -0.00000000000E+00 -0.00000000000E+00 -0.45593999997E+02  0.45594000000E+02  0.51100000000E-03 0.  1.
    9900012    2    1    2    0    0  0.36202936300E+02  0.13263055464E+02  0.12907500130E+02  0.50528870686E+02  0.30000032937E+02 0.  0.
        -12    1    1    2    0    0 -0.36202936300E+02 -0.13263055464E+02 -0.12907500130E+02  0.40659129314E+02  0.00000000000E+00 0.  1.
         11    1    3    3    0    0  0.77288214617E+01 -0.79084637877E+00 -0.44170903187E+01  0.89370468460E+01  0.51100000000E-03 0.  1.
        -11    1    3    3    0    0  0.11363985202E+02  0.92116343755E+01 -0.26307243177E+01  0.14863212245E+02  0.51100000000E-03 0. -1.
         12    1    3    3    0    0  0.17110129636E+02  0.48422674675E+01  0.19955314766E+02  0.26728611595E+02  0.00000000000E+00 0. -1.
</event>
<event>
 7    1  0.5487071E-013  0.5052883E+02  0.7816164E-02  0.1300439E+00
        -11   -1    0    0    0    0  0.00000000000E+00  0.00000000000E+00  0.45593999997E+02  0.45594000000E+02  0.51100000000E-03 0. -1.
         11   -1    0    0    0    0 -0.00000000000E+00 -0.00000000000E+00 -0.45593999997E+02  0.45594000000E+02  0.51100000000E-03 0.  1.
    9900012    2    1    2    0    0  0.25079886220E+01 -0.14522184055E+02  0.37894379676E+02  0.50528833166E+02  0.29999918891E+02 0.  0.
        -12    1    1    2    0    0 -0.25079886220E+01  0.14522184055E+02 -0.37894379676E+02  0.40659166834E+02  0.00000000000E+00 0.  1.
         11    1    3    3    0    0  0.33862609293E+01 -0.18443222863E+02  0.27057065884E+02  0.32919660495E+02  0.51100000000E-03 0. -1.
        -11    1    3    3    0    0  0.46643816036E+01  0.47278656008E+00  0.99787372303E+01  0.11025206567E+02  0.51100000000E-03 0.  1.
        -12    1    3    3    0    0 -0.55426539108E+01  0.34482522475E+01  0.85857656158E+00  0.65839661033E+01  0.00000000000E+00 0.  1.
</event>
<event>
 7    1  0.5487071E-013  0.5052887E+02  0.7816164E-02  0.1300439E+00
        -11   -1    0    0    0    0  0.00000000000E+00  0.00000000000E+00  0.45593999997E+02  0.45594000000E+02  0.51100000000E-03 0.  1.
         11   -1    0    0    0    0 -0.00000000000E+00 -0.00000000000E+00 -0.45593999997E+02  0.45594000000E+02  0.51100000000E-03 0. -1.
    9900012    2    1    2    0    0  0.36788155198E+01 -0.40194066293E+02  0.49059091731E+01  0.50528873182E+02  0.30000040523E+02 0.  0.
        -12    1    1    2    0    0 -0.36788155198E+01  0.40194066293E+02 -0.49059091731E+01  0.40659126818E+02  0.00000000000E+00 0.  1.
         11    1    3    3    0    0 -0.30291490887E+01 -0.55322999937E+01 -0.46770535834E+01  0.78521919173E+01  0.51100000000E-03 0. -1.
        -11    1    3    3    0    0 -0.34981608642E+01 -0.13346194090E+02 -0.52638568363E+01  0.14767065219E+02  0.51100000000E-03 0.  1.
        -12    1    3    3    0    0  0.10206125473E+02 -0.21315572209E+02  0.14846819593E+02  0.27909616045E+02  0.00000000000E+00 0.  1.
</event>
<event>
 7    1  0.5487071E-013  0.5052886E+02  0.7816164E-02  0.1300439E+00
        -11   -1    0    0    0    0  0.00000000000E+00  0.00000000000E+00  0.45593999997E+02  0.45594000000E+02  0.51100000000E-03 0. -1.
         11   -1    0    0    0    0 -0.00000000000E+00 -0.00000000000E+00 -0.45593999997E+02  0.45594000000E+02  0.51100000000E-03 0.  1.
    9900012    2    1    2    0    0  0.22215598074E+02  0.17132593748E+02  0.29429700275E+02  0.50528858044E+02  0.29999994510E+02 0.  0.
        -12    1    1    2    0    0 -0.22215598074E+02 -0.17132593748E+02 -0.29429700275E+02  0.40659141956E+02  0.00000000000E+00 0.  1.
         11    1    3    3    0    0  0.47038971398E+01  0.12560003076E+02  0.16724721740E+02  0.21438205221E+02  0.51100000000E-03 0. -1.
        -11    1    3    3    0    0  0.19864858826E+02  0.83389212089E+01  0.11779758146E+02  0.24554285274E+02  0.51100000000E-03 0.  1.
        -12    1    3    3    0    0 -0.23531578911E+01 -0.37663305362E+01  0.92522038916E+00  0.45363675487E+01  0.00000000000E+00 0.  1.
</event>
<event>
 7    1  0.5487071E-013  0.5052886E+02  0.7816164E-02  0.1300439E+00
        -11   -1    0    0    0    0  0.00000000000E+00  0.00000000000E+00  0.45593999997E+02  0.45594000000E+02  0.51100000000E-03 0. -1.
         11   -1    0    0    0    0 -0.00000000000E+00 -0.00000000000E+00 -0.45593999997E+02  0.45594000000E+02  0.51100000000E-03 0.  1.
    9900012    2    1    2    0    0  0.16405715258E+02 -0.19411877265E+02  0.31736367656E+02  0.50528861986E+02  0.30000006492E+02 0.  0.
        -12    1    1    2    0    0 -0.16405715258E+02  0.19411877265E+02 -0.31736367656E+02  0.40659138014E+02  0.00000000000E+00 0.  1.
         11    1    3    3    0    0  0.16789216147E+02 -0.17812015345E+01  0.20485838618E+02  0.26546563655E+02  0.51100000000E-03 0. -1.
        -11    1    3    3    0    0 -0.16302672150E+01 -0.78327252986E+01  0.11608960169E+02  0.14098840848E+02  0.51100000000E-03 0.  1.
        -12    1    3    3    0    0  0.12467663267E+01 -0.97979504319E+01 -0.35843113156E+00  0.98834574829E+01  0.00000000000E+00 0.  1.
</event>
<event>
 7    1  0.5487071E-013  0.5052885E+02  0.7816164E-02  0.1300439E+00
        -11   -1    0    0    0    0  0.00000000000E+00  0.00000000000E+00  0.45593999997E+02  0.45594000000E+02  0.51100000000E-03 0.  1.
         11   -1    0    0    0    0 -0.00000000000E+00 -0.00000000000E+00 -0.45593999997E+02  0.45594000000E+02  0.51100000000E-03 0. -1.
    9900012    2    1    2    0    0 -0.23543837168E+02 -0.33003659176E+02  0.31003903690E+01  0.50528853328E+02  0.29999980177E+02 0.  0.
        -12    1    1    2    0    0  0.23543837168E+02  0.33003659176E+02 -0.31003903690E+01  0.40659146672E+02  0.00000000000E+00 0.  1.
         11    1    3    3    0    0 -0.63047678986E+01 -0.13054447636E+02  0.48235571287E+00  0.14505218669E+02  0.51100000000E-03 0. -1.
        -11    1    3    3    0    0 -0.47070976930E+01 -0.22556443778E+02  0.48945780938E+00  0.23047548542E+02  0.51100000000E-03 0.  1.
        -12    1    3    3    0    0 -0.12531971577E+02  0.26072322376E+01  0.21285768468E+01  0.12976086118E+02  0.00000000000E+00 0.  1.
</event>
<event>
 7    1  0.5487071E-013  0.5052889E+02  0.7816164E-02  0.1300439E+00
        -11   -1    0    0    0    0  0.00000000000E+00  0.00000000000E+00  0.45593999997E+02  0.45594000000E+02  0.51100000000E-03 0. -1.
         11   -1    0    0    0    0 -0.00000000000E+00 -0.00000000000E+00 -0.45593999997E+02  0.45594000000E+02  0.51100000000E-03 0.  1.
    9900012    2    1    2    0    0  0.15914164991E+02  0.34762067536E+02  0.13838391076E+02  0.50528892111E+02  0.30000098061E+02 0.  0.
        -12    1    1    2    0    0 -0.15914164991E+02 -0.34762067536E+02 -0.13838391076E+02  0.40659107889E+02  0.00000000000E+00 0.  1.
         11    1    3    3    0    0  0.93130257350E+01  0.24247800433E+02  0.22334037285E+02  0.34256349717E+02  0.51100000000E-03 0. -1.
        -11    1    3    3    0    0  0.72959776993E+00  0.46715889699E+01 -0.49109122792E+00  0.47536540960E+01  0.51100000000E-03 0.  1.
        -12    1    3    3    0    0  0.58715414857E+01  0.58426781333E+01 -0.80045549812E+01  0.11518888299E+02  0.00000000000E+00 0.  1.
</event>
<event>
 7    1  0.5487071E-013  0.5052887E+02  0.7816164E-02  0.1300439E+00
        -11   -1    0    0    0    0  0.00000000000E+00  0.00000000000E+00  0.45593999997E+02  0.45594000000E+02  0.51100000000E-03 0.  1.
         11   -1    0    0    0    0 -0.00000000000E+00 -0.00000000000E+00 -0.45593999997E+02  0.45594000000E+02  0.51100000000E-03 0. -1.
    9900012    2    1    2    0    0  0.17999869146E+02  0.36229194674E+02 -0.40761753828E+01  0.50528867671E+02  0.30000023773E+02 0.  0.
        -12    1    1    2    0    0 -0.17999869146E+02 -0.36229194674E+02  0.40761753828E+01  0.40659132329E+02  0.00000000000E+00 0.  1.
         11    1    3    3    0    0  0.15733877188E+00  0.90854691105E+01  0.39304425485E+01  0.99004486432E+01  0.51100000000E-03 0. -1.
        -11    1    3    3    0    0  0.58960079855E+01  0.14721024479E+02  0.74107447373E+01  0.17504016959E+02  0.51100000000E-03 0.  1.
         12    1    3    3    0    0  0.11946522388E+02  0.12422701085E+02 -0.15417362669E+02  0.23124402069E+02  0.00000000000E+00 0. -1.
</event>
<event>
 7    1  0.5487071E-013  0.5052887E+02  0.7816164E-02  0.1300439E+00
        -11   -1    0    0    0    0  0.00000000000E+00  0.00000000000E+00  0.45593999997E+02  0.45594000000E+02  0.51100000000E-03 0.  1.
         11   -1    0    0    0    0 -0.00000000000E+00 -0.00000000000E+00 -0.45593999997E+02  0.45594000000E+02  0.51100000000E-03 0. -1.
    9900012    2    1    2    0    0  0.10928836666E+02 -0.31049746741E+01 -0.39039525135E+02  0.50528869889E+02  0.30000030515E+02 0.  0.
        -12    1    1    2    0    0 -0.10928836666E+02  0.31049746741E+01  0.39039525135E+02  0.40659130111E+02  0.00000000000E+00 0.  1.
         11    1    3    3    0    0  0.77222459871E+01 -0.32061385049E+01 -0.13139337329E+02  0.15574164276E+02  0.51100000000E-03 0. -1.
        -11    1    3    3    0    0  0.33742065228E+01 -0.81688047306E+01 -0.25139807930E+02  0.26648162853E+02  0.51100000000E-03 0.  1.
        -12    1    3    3    0    0 -0.16761584383E+00  0.82699685614E+01 -0.76037987596E+00  0.83065427606E+01  0.00000000000E+00 0.  1.
</event>
<event>
 7    1  0.5487071E-013  0.5052887E+02  0.7816164E-02  0.1300439E+00
        -11   -1    0    0    0    0  0.00000000000E+00  0.00000000000E+00  0.45593999997E+02  0.45594000000E+02  0.51100000000E-03 0.  1.
         11   -1    0    0    0    0 -0.00000000000E+00 -0.00000000000E+00 -0.45593999997E+02  0.45594000000E+02  0.51100000000E-03 0. -1.
    9900012    2    1    2    0    0  0.23381490784E+01 -0.26664042166E+02 -0.30605997660E+02  0.50528865989E+02  0.30000018659E+02 0.  0.
        -12    1    1    2    0    0 -0.23381490784E+01  0.26664042166E+02  0.30605997660E+02  0.40659134011E+02  0.00000000000E+00 0.  1.
         11    1    3    3    0    0 -0.37338178930E+01 -0.57802501383E+01 -0.31125923669E+01  0.75525438908E+01  0.51100000000E-03 0. -1.
        -11    1    3    3    0    0 -0.83686691143E+01 -0.97160601321E+00 -0.65742003153E+01  0.10686381569E+02  0.51100000000E-03 0.  1.
         12    1    3    3    0    0  0.14440636086E+02 -0.19912186015E+02 -0.20919204978E+02  0.32289940529E+02  0.00000000000E+00 0. -1.
</event>
<event>
 7    1  0.5487071E-013  0.5052887E+02  0.7816164E-02  0.1300439E+00
        -11   -1    0    0    0    0  0.00000000000E+00  0.00000000000E+00  0.45593999997E+02  0.45594000000E+02  0.51100000000E-03 0. -1.
         11   -1    0    0    0    0 -0.00000000000E+00 -0.00000000000E+00 -0.45593999997E+02  0.45594000000E+02  0.51100000000E-03 0.  1.
    9900012    2    1    2    0    0 -0.46255964637E+01 -0.33782998584E+02  0.22146727652E+02  0.50528872099E+02  0.30000037232E+02 0.  0.
        -12    1    1    2    0    0  0.46255964637E+01  0.33782998584E+02 -0.22146727652E+02  0.40659127901E+02  0.00000000000E+00 0.  1.
         11    1    3    3    0    0 -0.67179582842E+01 -0.23545996043E+02  0.13316856279E+02  0.27872630923E+02  0.51100000000E-03 0. -1.
        -11    1    3    3    0    0 -0.15771371441E+01 -0.14746070156E+02  0.48193959685E+01  0.15593605240E+02  0.51100000000E-03 0.  1.
        -12    1    3    3    0    0  0.36694989646E+01  0.45090676144E+01  0.40104754040E+01  0.70626359362E+01  0.00000000000E+00 0.  1.
</event>
<event>
 7    1  0.5487071E-013  0.5052886E+02  0.7816164E-02  0.1300439E+00
        -11   -1    0    0    0    0  0.00000000000E+00  0.00000000000E+00  0.45593999997E+02  0.45594000000E+02  0.51100000000E-03 0. -1.
         11   -1    0    0    0    0 -0.00000000000E+00 -0.00000000000E+00 -0.45593999997E+02  0.45594000000E+02  0.51100000000E-03 0.  1.
    9900012    2    1    2    0    0 -0.19591457964E+02  0.32665955039E+02  0.14222382053E+02  0.50528855948E+02  0.29999988140E+02 0.  0.
        -12    1    1    2    0    0  0.19591457964E+02 -0.32665955039E+02 -0.14222382053E+02  0.40659144052E+02  0.00000000000E+00 0.  1.
         11    1    3    3    0    0 -0.15535972750E+02  0.32146811151E+02  0.15148681528E+02  0.38784874227E+02  0.51100000000E-03 0. -1.
        -11    1    3    3    0    0 -0.58993282260E+01  0.41125723233E+01  0.10152989988E+01  0.72626549520E+01  0.51100000000E-03 0.  1.
        -12    1    3    3    0    0  0.18438430123E+01 -0.35934284357E+01 -0.19415984743E+01  0.44813267692E+01  0.00000000000E+00 0.  1.
</event>
<event>
 7    1  0.5487071E-013  0.5052886E+02  0.7816164E-02  0.1300439E+00
        -11   -1    0    0    0    0  0.00000000000E+00  0.00000000000E+00  0.45593999997E+02  0.45594000000E+02  0.51100000000E-03 0.  1.
         11   -1    0    0    0    0 -0.00000000000E+00 -0.00000000000E+00 -0.45593999997E+02  0.45594000000E+02  0.51100000000E-03 0. -1.
    9900012    2    1    2    0    0  0.11272630587E+02  0.11929014940E+02 -0.37199357834E+02  0.50528858087E+02  0.29999994641E+02 0.  0.
        -12    1    1    2    0    0 -0.11272630587E+02 -0.11929014940E+02  0.37199357834E+02  0.40659141913E+02  0.00000000000E+00 0.  1.
         11    1    3    3    0    0  0.70858693408E+01  0.11408164332E+02 -0.17422596476E+02  0.21997786842E+02  0.51100000000E-03 0. -1.
        -11    1    3    3    0    0  0.83396350490E+01  0.74014224738E+01 -0.62112037672E+01  0.12763605286E+02  0.51100000000E-03 0.  1.
        -12    1    3    3    0    0 -0.41528738024E+01 -0.68805718652E+01 -0.13565557591E+02  0.15767465959E+02  0.00000000000E+00 0.  1.
</event>
<event>
 7    1  0.5487071E-013  0.5052887E+02  0.7816164E-02  0.1300439E+00
        -11   -1    0    0    0    0  0.00000000000E+00  0.00000000000E+00  0.45593999997E+02  0.45594000000E+02  0.51100000000E-03 0. -1.
         11   -1    0    0    0    0 -0.00000000000E+00 -0.00000000000E+00 -0.45593999997E+02  0.45594000000E+02  0.51100000000E-03 0.  1.
    9900012    2    1    2    0    0  0.21708836800E+02  0.20737402318E+02  0.27419913938E+02  0.50528866580E+02  0.30000020457E+02 0.  0.
        -12    1    1    2    0    0 -0.21708836800E+02 -0.20737402318E+02 -0.27419913938E+02  0.40659133420E+02  0.00000000000E+00 0.  1.
         11    1    3    3    0    0  0.11395534318E+02  0.99149520963E+01  0.18394314758E+01  0.15216700887E+02  0.51100000000E-03 0. -1.
        -11    1    3    3    0    0  0.57734872384E+01 -0.49443441815E+01  0.55077489022E+01  0.93869586399E+01  0.51100000000E-03 0.  1.
        -12    1    3    3    0    0  0.45398152438E+01  0.15766794403E+02  0.20072733560E+02  0.25925207053E+02  0.00000000000E+00 0.  1.
</event>
<event>
 7    1  0.5487071E-013  0.5052886E+02  0.7816164E-02  0.1300439E+00
        -11   -1    0    0    0    0  0.00000000000E+00  0.00000000000E+00  0.45593999997E+02  0.45594000000E+02  0.51100000000E-03 0. -1.
         11   -1    0    0    0    0 -0.00000000000E+00 -0.00000000000E+00 -0.45593999997E+02  0.45594000000E+02  0.51100000000E-03 0.  1.
    9900012    2    1    2    0    0  0.34095932755E+02 -0.18395088962E+02  0.12339119663E+02  0.50528858317E+02  0.29999995340E+02 0.  0.
        -12    1    1    2    0    0 -0.34095932755E+02  0.18395088962E+02 -0.12339119663E+02  0.40659141683E+02  0.00000000000E+00 0.  1.
         11    1    3    3    0    0  0.17342335292E+00 -0.13446811017E+00  0.68958621383E+01  0.68993530294E+01  0.51100000000E-03 0. -1.
        -11    1    3    3    0    0  0.10988156338E+02 -0.65750240199E+01  0.11472825836E+02  0.17192912886E+02  0.51100000000E-03 0.  1.
        -12    1    3    3    0    0  0.22934353064E+02 -0.11685596832E+02 -0.60295683114E+01  0.26436592402E+02  0.00000000000E+00 0.  1.
</event>
<event>
 7    1  0.5487071E-013  0.5052886E+02  0.7816164E-02  0.1300439E+00
        -11   -1    0    0    0    0  0.00000000000E+00  0.00000000000E+00  0.45593999997E+02  0.45594000000E+02  0.51100000000E-03 0. -1.
         11   -1    0    0    0    0 -0.00000000000E+00 -0.00000000000E+00 -0.45593999997E+02  0.45594000000E+02  0.51100000000E-03 0.  1.
    9900012    2    1    2    0    0 -0.38104227148E+02  0.11540885147E+02  0.82487428401E+01  0.50528856933E+02  0.29999991132E+02 0.  0.
        -12    1    1    2    0    0  0.38104227148E+02 -0.11540885147E+02 -0.82487428401E+01  0.40659143067E+02  0.00000000000E+00 0.  1.
         11    1    3    3    0    0 -0.13997526260E+02  0.20141015480E+01  0.71598981014E+01  0.15850914407E+02  0.51100000000E-03 0. -1.
        -11    1    3    3    0    0 -0.23798199173E+02  0.76939258441E+00  0.61051839475E+01  0.24580877122E+02  0.51100000000E-03 0.  1.
        -12    1    3    3    0    0 -0.30850171515E+00  0.87573910151E+01 -0.50163392088E+01  0.10097065403E+02  0.00000000000E+00 0.  1.
</event>
<event>
 7    1  0.5487071E-013  0.5052883E+02  0.7816164E-02  0.1300439E+00
        -11   -1    0    0    0    0  0.00000000000E+00  0.00000000000E+00  0.45593999997E+02  0.45594000000E+02  0.51100000000E-03 0. -1.
         11   -1    0    0    0    0 -0.00000000000E+00 -0.00000000000E+00 -0.45593999997E+02  0.45594000000E+02  0.51100000000E-03 0.  1.
    9900012    2    1    2    0    0 -0.30749895696E+02 -0.16092949582E+02  0.21180869474E+02  0.50528827071E+02  0.29999900365E+02 0.  0.
        -12    1    1    2    0    0  0.30749895696E+02  0.16092949582E+02 -0.21180869474E+02  0.40659172929E+02  0.00000000000E+00 0.  1.
         11    1    3    3    0    0  0.38060500874E+00 -0.23692319243E+01  0.37474705980E+01  0.44499051931E+01  0.51100000000E-03 0. -1.
        -11    1    3    3    0    0  0.40334314657E+01 -0.10459348227E+01 -0.11670883368E+01  0.43271982262E+01  0.51100000000E-03 0.  1.
         12    1    3    3    0    0 -0.35163932171E+02 -0.12677782835E+02  0.18600487213E+02  0.41751723652E+02  0.00000000000E+00 0. -1.
</event>
<event>
 7    1  0.5487071E-013  0.5052877E+02  0.7816164E-02  0.1300439E+00
        -11   -1    0    0    0    0  0.00000000000E+00  0.00000000000E+00  0.45593999997E+02  0.45594000000E+02  0.51100000000E-03 0.  1.
         11   -1    0    0    0    0 -0.00000000000E+00 -0.00000000000E+00 -0.45593999997E+02  0.45594000000E+02  0.51100000000E-03 0. -1.
    9900012    2    1    2    0    0  0.36107897337E+02  0.16134695169E+02  0.94374108478E+01  0.50528765356E+02  0.29999712774E+02 0.  0.
        -12    1    1    2    0    0 -0.36107897337E+02 -0.16134695169E+02 -0.94374108478E+01  0.40659234644E+02  0.00000000000E+00 0.  1.
         11    1    3    3    0    0  0.59288128811E+01 -0.78903521739E+00  0.22604079924E+01  0.63939692920E+01  0.51100000000E-03 0. -1.
        -11    1    3    3    0    0  0.18357882496E+02 -0.44861345242E+01  0.51892661047E+01  0.19597595150E+02  0.51100000000E-03 0.  1.
         12    1    3    3    0    0  0.11821201960E+02  0.21409864911E+02  0.19877367507E+01  0.24537200914E+02  0.00000000000E+00 0. -1.
</event>
<event>
 7    1  0.5487071E-013  0.5052886E+02  0.7816164E-02  0.1300439E+00
        -11   -1    0    0    0    0  0.00000000000E+00  0.00000000000E+00  0.45593999997E+02  0.45594000000E+02  0.51100000000E-03 0. -1.
         11   -1    0    0    0    0 -0.00000000000E+00 -0.00000000000E+00 -0.45593999997E+02  0.45594000000E+02  0.51100000000E-03 0.  1.
    9900012    2    1    2    0    0 -0.31521022482E+02 -0.86314195968E+01 -0.24188627426E+02  0.50528856388E+02  0.29999989476E+02 0.  0.
        -12    1    1    2    0    0  0.31521022482E+02  0.86314195968E+01  0.24188627426E+02  0.40659143612E+02  0.00000000000E+00 0.  1.
         11    1    3    3    0    0 -0.32531866904E+01  0.31092224777E+01 -0.12259455694E+01  0.46640573387E+01  0.51100000000E-03 0. -1.
        -11    1    3    3    0    0 -0.48294532690E+01  0.73757530928E+01 -0.19298377908E+01  0.90249446936E+01  0.51100000000E-03 0.  1.
         12    1    3    3    0    0 -0.23438382522E+02 -0.19116395167E+02 -0.21032844066E+02  0.36839854355E+02  0.00000000000E+00 0. -1.
</event>
<event>
 7    1  0.5487071E-013  0.5052886E+02  0.7816164E-02  0.1300439E+00
        -11   -1    0    0    0    0  0.00000000000E+00  0.00000000000E+00  0.45593999997E+02  0.45594000000E+02  0.51100000000E-03 0.  1.
         11   -1    0    0    0    0 -0.00000000000E+00 -0.00000000000E+00 -0.45593999997E+02  0.45594000000E+02  0.51100000000E-03 0. -1.
    9900012    2    1    2    0    0  0.37371848743E+02  0.15922129258E+02  0.17310937624E+01  0.50528856328E+02  0.29999989293E+02 0.  0.
        -12    1    1    2    0    0 -0.37371848743E+02 -0.15922129258E+02 -0.17310937624E+01  0.40659143672E+02  0.00000000000E+00 0.  1.
         11    1    3    3    0    0  0.17188869745E+02  0.94035501051E+01 -0.11803830053E+02  0.22873880341E+02  0.51100000000E-03 0. -1.
        -11    1    3    3    0    0  0.59034987195E+01  0.75822191319E+01  0.37662635540E+01  0.10321147490E+02  0.51100000000E-03 0.  1.
        -12    1    3    3    0    0  0.14279480279E+02 -0.10636399787E+01  0.97686602615E+01  0.17333828496E+02  0.00000000000E+00 0.  1.
</event>
<event>
 7    1  0.5487071E-013  0.5052887E+02  0.7816164E-02  0.1300439E+00
        -11   -1    0    0    0    0  0.00000000000E+00  0.00000000000E+00  0.45593999997E+02  0.45594000000E+02  0.51100000000E-03 0.  1.
         11   -1    0    0    0    0 -0.00000000000E+00 -0.00000000000E+00 -0.45593999997E+02  0.45594000000E+02  0.51100000000E-03 0. -1.
    9900012    2    1    2    0    0 -0.18366838935E+02 -0.31514572129E+02 -0.17962616137E+02  0.50528873012E+02  0.30000040007E+02 0.  0.
        -12    1    1    2    0    0  0.18366838935E+02  0.31514572129E+02  0.17962616137E+02  0.40659126988E+02  0.00000000000E+00 0.  1.
         11    1    3    3    0    0 -0.30030486011E+01 -0.69418332019E+01 -0.12034950268E+01  0.76587041752E+01  0.51100000000E-03 0. -1.
        -11    1    3    3    0    0 -0.21735204209E+02 -0.12549925366E+02 -0.14762087722E+02  0.29117674407E+02  0.51100000000E-03 0.  1.
         12    1    3    3    0    0  0.63714138748E+01 -0.12022813561E+02 -0.19970333877E+01  0.13752494430E+02  0.00000000000E+00 0. -1.
</event>
<event>
 7    1  0.5487071E-013  0.5052885E+02  0.7816164E-02  0.1300439E+00
        -11   -1    0    0    0    0  0.00000000000E+00  0.00000000000E+00  0.45593999997E+02  0.45594000000E+02  0.51100000000E-03 0. -1.
         11   -1    0    0    0    0 -0.00000000000E+00 -0.00000000000E+00 -0.45593999997E+02  0.45594000000E+02  0.51100000000E-03 0.  1.
    9900012    2    1    2    0    0 -0.34197705813E+02 -0.94246458121E+01 -0.19871064424E+02  0.50528853023E+02  0.29999979249E+02 0.  0.
        -12    1    1    2    0    0  0.34197705813E+02  0.94246458121E+01  0.19871064424E+02  0.40659146977E+02  0.00000000000E+00 0.  1.
         11    1    3    3    0    0 -0.16886372661E+02 -0.10352221907E+02 -0.50479909910E+01  0.20440163731E+02  0.51100000000E-03 0. -1.
        -11    1    3    3    0    0 -0.14763147812E+02 -0.31149649184E+01 -0.61741017316E+00  0.15100819029E+02  0.51100000000E-03 0.  1.
        -12    1    3    3    0    0 -0.25481853401E+01  0.40425410133E+01 -0.14205663260E+02  0.14987870263E+02  0.00000000000E+00 0.  1.
</event>
<event>
 7    1  0.5487071E-013  0.5052887E+02  0.7816164E-02  0.1300439E+00
        -11   -1    0    0    0    0  0.00000000000E+00  0.00000000000E+00  0.45593999997E+02  0.45594000000E+02  0.51100000000E-03 0.  1.
         11   -1    0    0    0    0 -0.00000000000E+00 -0.00000000000E+00 -0.45593999997E+02  0.45594000000E+02  0.51100000000E-03 0. -1.
    9900012    2    1    2    0    0  0.21337733626E+02 -0.12220929177E+02 -0.32380785474E+02  0.50528865059E+02  0.30000015833E+02 0.  0.
        -12    1    1    2    0    0 -0.21337733626E+02  0.12220929177E+02  0.32380785474E+02  0.40659134941E+02  0.00000000000E+00 0.  1.
         11    1    3    3    0    0  0.66978941904E+01  0.28358621004E+01  0.32896594932E+01  0.79828416169E+01  0.51100000000E-03 0.  1.
        -11    1    3    3    0    0  0.71453390966E+01 -0.16943885151E+01 -0.16069711964E+02  0.17668120051E+02  0.51100000000E-03 0. -1.
        -12    1    3    3    0    0  0.74945003388E+01 -0.13362402762E+02 -0.19600733003E+02  0.24877903391E+02  0.00000000000E+00 0.  1.
</event>
<event>
 7    1  0.5487071E-013  0.5052890E+02  0.7816164E-02  0.1300439E+00
        -11   -1    0    0    0    0  0.00000000000E+00  0.00000000000E+00  0.45593999997E+02  0.45594000000E+02  0.51100000000E-03 0. -1.
         11   -1    0    0    0    0 -0.00000000000E+00 -0.00000000000E+00 -0.45593999997E+02  0.45594000000E+02  0.51100000000E-03 0.  1.
    9900012    2    1    2    0    0 -0.29494806034E+02  0.24099723737E+02  0.14227513004E+02  0.50528900238E+02  0.30000122764E+02 0.  0.
        -12    1    1    2    0    0  0.29494806034E+02 -0.24099723737E+02 -0.14227513004E+02  0.40659099762E+02  0.00000000000E+00 0.  1.
         11    1    3    3    0    0 -0.10380145756E+02 -0.12762603151E+01  0.90609168159E+01  0.13837502669E+02  0.51100000000E-03 0. -1.
        -11    1    3    3    0    0  0.10114410599E+01 -0.82501109509E+00  0.33586089093E+01  0.36033193574E+01  0.51100000000E-03 0.  1.
         12    1    3    3    0    0 -0.20126101338E+02  0.26200995147E+02  0.18079872785E+01  0.33088078212E+02  0.00000000000E+00 0. -1.
</event>
<event>
 7    1  0.5487071E-013  0.5052886E+02  0.7816164E-02  0.1300439E+00
        -11   -1    0    0    0    0  0.00000000000E+00  0.00000000000E+00  0.45593999997E+02  0.45594000000E+02  0.51100000000E-03 0.  1.
         11   -1    0    0    0    0 -0.00000000000E+00 -0.00000000000E+00 -0.45593999997E+02  0.45594000000E+02  0.51100000000E-03 0. -1.
    9900012    2    1    2    0    0 -0.20240994842E+02  0.27853221091E+02 -0.21625589909E+02  0.50528856671E+02  0.29999990337E+02 0.  0.
        -12    1    1    2    0    0  0.20240994842E+02 -0.27853221091E+02  0.21625589909E+02  0.40659143329E+02  0.00000000000E+00 0.  1.
         11    1    3    3    0    0 -0.24040693285E+01 -0.24952100829E+01  0.16014530235E+01  0.38171029252E+01  0.51100000000E-03 0. -1.
        -11    1    3    3    0    0 -0.10284243577E+02  0.32126060028E+01 -0.98064130590E+00  0.10818879836E+02  0.51100000000E-03 0.  1.
         12    1    3    3    0    0 -0.75526819365E+01  0.27135825171E+02 -0.22246401627E+02  0.35892873909E+02  0.00000000000E+00 0. -1.
</event>
<event>
 7    1  0.5487071E-013  0.5052886E+02  0.7816164E-02  0.1300439E+00
        -11   -1    0    0    0    0  0.00000000000E+00  0.00000000000E+00  0.45593999997E+02  0.45594000000E+02  0.51100000000E-03 0.  1.
         11   -1    0    0    0    0 -0.00000000000E+00 -0.00000000000E+00 -0.45593999997E+02  0.45594000000E+02  0.51100000000E-03 0. -1.
    9900012    2    1    2    0    0  0.97539772982E+01  0.21050772022E+02 -0.33389980468E+02  0.50528857467E+02  0.29999992757E+02 0.  0.
        -12    1    1    2    0    0 -0.97539772982E+01 -0.21050772022E+02  0.33389980468E+02  0.40659142533E+02  0.00000000000E+00 0.  1.
         11    1    3    3    0    0  0.81638524706E+01  0.11736837623E+02 -0.25370279918E+02  0.29121348663E+02  0.51100000000E-03 0. -1.
        -11    1    3    3    0    0 -0.36576521013E+01 -0.30971456264E+01 -0.61599235753E+01  0.78048311090E+01  0.51100000000E-03 0.  1.
        -12    1    3    3    0    0  0.52477769290E+01  0.12411080025E+02 -0.18597769750E+01  0.13602677695E+02  0.00000000000E+00 0.  1.
</event>
<event>
 7    1  0.5487071E-013  0.5052886E+02  0.7816164E-02  0.1300439E+00
        -11   -1    0    0    0    0  0.00000000000E+00  0.00000000000E+00  0.45593999997E+02  0.45594000000E+02  0.51100000000E-03 0. -1.
         11   -1    0    0    0    0 -0.00000000000E+00 -0.00000000000E+00 -0.45593999997E+02  0.45594000000E+02  0.51100000000E-03 0.  1.
    9900012    2    1    2    0    0 -0.40629462766E+02 -0.13669570678E+01 -0.73721004674E+00  0.50528864558E+02  0.30000014310E+02 0.  0.
        -12    1    1    2    0    0  0.40629462766E+02  0.13669570678E+01  0.73721004674E+00  0.40659135442E+02  0.00000000000E+00 0.  1.
         11    1    3    3    0    0 -0.34413451818E+01 -0.72895668294E+00 -0.48721106393E+01  0.60093008618E+01  0.51100000000E-03 0. -1.
        -11    1    3    3    0    0 -0.52193709489E+01  0.69469093344E+01 -0.54953785284E+01  0.10281078146E+02  0.51100000000E-03 0.  1.
         12    1    3    3    0    0 -0.31968746635E+02 -0.75849097192E+01  0.96302791209E+01  0.34238485551E+02  0.00000000000E+00 0. -1.
</event>
<event>
 7    1  0.5487071E-013  0.5052887E+02  0.7816164E-02  0.1300439E+00
        -11   -1    0    0    0    0  0.00000000000E+00  0.00000000000E+00  0.45593999997E+02  0.45594000000E+02  0.51100000000E-03 0. -1.
         11   -1    0    0    0    0 -0.00000000000E+00 -0.00000000000E+00 -0.45593999997E+02  0.45594000000E+02  0.51100000000E-03 0.  1.
    9900012    2    1    2    0    0  0.21992260542E+01  0.35774526803E+02  0.19196655524E+02  0.50528868842E+02  0.30000027333E+02 0.  0.
        -12    1    1    2    0    0 -0.21992260542E+01 -0.35774526803E+02 -0.19196655524E+02  0.40659131158E+02  0.00000000000E+00 0.  1.
         11    1    3    3    0    0  0.45076648592E+01  0.32093718854E+00  0.34939774077E+01  0.57122606338E+01  0.51100000000E-03 0. -1.
        -11    1    3    3    0    0  0.46765195657E+01  0.37893346499E+00 -0.17681489851E+01  0.50139582082E+01  0.51100000000E-03 0.  1.
         12    1    3    3    0    0 -0.69849583707E+01  0.35074656149E+02  0.17470827101E+02  0.39802650000E+02  0.00000000000E+00 0. -1.
</event>
<event>
 7    1  0.5487071E-013  0.5052886E+02  0.7816164E-02  0.1300439E+00
        -11   -1    0    0    0    0  0.00000000000E+00  0.00000000000E+00  0.45593999997E+02  0.45594000000E+02  0.51100000000E-03 0.  1.
         11   -1    0    0    0    0 -0.00000000000E+00 -0.00000000000E+00 -0.45593999997E+02  0.45594000000E+02  0.51100000000E-03 0. -1.
    9900012    2    1    2    0    0 -0.26448316273E+02  0.29506554799E+02  0.91112770255E+01  0.50528861066E+02  0.30000003697E+02 0.  0.
        -12    1    1    2    0    0  0.26448316273E+02 -0.29506554799E+02 -0.91112770255E+01  0.40659138934E+02  0.00000000000E+00 0.  1.
         11    1    3    3    0    0 -0.13716323931E+02  0.14414957357E+02  0.23681296390E+01  0.20038377580E+02  0.51100000000E-03 0. -1.
        -11    1    3    3    0    0 -0.11465606296E+02  0.20641658834E+02  0.74367553074E+01  0.24755676862E+02  0.51100000000E-03 0.  1.
        -12    1    3    3    0    0 -0.12663860464E+01 -0.55500613917E+01 -0.69360792081E+00  0.57348066243E+01  0.00000000000E+00 0.  1.
</event>
<event>
 7    1  0.5487071E-013  0.5052886E+02  0.7816164E-02  0.1300439E+00
        -11   -1    0    0    0    0  0.00000000000E+00  0.00000000000E+00  0.45593999997E+02  0.45594000000E+02  0.51100000000E-03 0.  1.
         11   -1    0    0    0    0 -0.00000000000E+00 -0.00000000000E+00 -0.45593999997E+02  0.45594000000E+02  0.51100000000E-03 0. -1.
    9900012    2    1    2    0    0  0.15403301322E+02 -0.32681365897E+02 -0.18650271955E+02  0.50528855733E+02  0.29999987485E+02 0.  0.
        -12    1    1    2    0    0 -0.15403301322E+02  0.32681365897E+02  0.18650271955E+02  0.40659144267E+02  0.00000000000E+00 0.  1.
         11    1    3    3    0    0  0.13820827283E+02 -0.11781533379E+02 -0.10547094545E+02  0.21001452311E+02  0.51100000000E-03 0. -1.
        -11    1    3    3    0    0  0.93571912050E+01 -0.17568192338E+02 -0.50566015737E+01  0.20536981984E+02  0.51100000000E-03 0.  1.
        -12    1    3    3    0    0 -0.77747171664E+01 -0.33316401809E+01 -0.30465758363E+01  0.89904214383E+01  0.00000000000E+00 0.  1.
</event>
<event>
 7    1  0.5487071E-013  0.5052886E+02  0.7816164E-02  0.1300439E+00
        -11   -1    0    0    0    0  0.00000000000E+00  0.00000000000E+00  0.45593999997E+02  0.45594000000E+02  0.51100000000E-03 0.  1.
         11   -1    0    0    0    0 -0.00000000000E+00 -0.00000000000E+00 -0.45593999997E+02  0.45594000000E+02  0.51100000000E-03 0. -1.
    9900012    2    1    2    0    0 -0.24395833339E+02  0.84358961832E+01 -0.31414082868E+02  0.50528860423E+02  0.30000001741E+02 0.  0.
        -12    1    1    2    0    0  0.24395833339E+02 -0.84358961832E+01  0.31414082868E+02  0.40659139577E+02  0.00000000000E+00 0.  1.
         11    1    3    3    0    0 -0.13188825582E+01  0.81366653885E+01 -0.19360147610E+00  0.82451353318E+01  0.51100000000E-03 0. -1.
        -11    1    3    3    0    0 -0.15231874602E+02  0.14504952037E+01 -0.70517862991E+01  0.16847600141E+02  0.51100000000E-03 0.  1.
         12    1    3    3    0    0 -0.78450761784E+01 -0.11512644090E+01 -0.24168695093E+02  0.25436124950E+02  0.00000000000E+00 0. -1.
</event>
<event>
 7    1  0.5487071E-013  0.5052886E+02  0.7816164E-02  0.1300439E+00
        -11   -1    0    0    0    0  0.00000000000E+00  0.00000000000E+00  0.45593999997E+02  0.45594000000E+02  0.51100000000E-03 0.  1.
         11   -1    0    0    0    0 -0.00000000000E+00 -0.00000000000E+00 -0.45593999997E+02  0.45594000000E+02  0.51100000000E-03 0. -1.
    9900012    2    1    2    0    0 -0.15951245984E+02 -0.36133518264E+02  0.96484454512E+01  0.50528857237E+02  0.29999992059E+02 0.  0.
        -12    1    1    2    0    0  0.15951245984E+02  0.36133518264E+02 -0.96484454512E+01  0.40659142763E+02  0.00000000000E+00 0.  1.
         11    1    3    3    0    0 -0.88215451356E+01 -0.21014037951E+02 -0.35739647537E+01  0.23069084809E+02  0.51100000000E-03 0. -1.
        -11    1    3    3    0    0 -0.11408214866E+02 -0.61222262998E+01  0.32185415909E+01  0.13341215519E+02  0.51100000000E-03 0.  1.
        -12    1    3    3    0    0  0.42785140170E+01 -0.89972540126E+01  0.10003868614E+02  0.14118556910E+02  0.00000000000E+00 0.  1.
</event>
<event>
 7    1  0.5487071E-013  0.5052886E+02  0.7816164E-02  0.1300439E+00
        -11   -1    0    0    0    0  0.00000000000E+00  0.00000000000E+00  0.45593999997E+02  0.45594000000E+02  0.51100000000E-03 0. -1.
         11   -1    0    0    0    0 -0.00000000000E+00 -0.00000000000E+00 -0.45593999997E+02  0.45594000000E+02  0.51100000000E-03 0.  1.
    9900012    2    1    2    0    0 -0.24391585839E+02  0.32081280217E+02 -0.53858607559E+01  0.50528862083E+02  0.30000006786E+02 0.  0.
        -12    1    1    2    0    0  0.24391585839E+02 -0.32081280217E+02  0.53858607559E+01  0.40659137917E+02  0.00000000000E+00 0.  1.
         11    1    3    3    0    0 -0.73272064616E+01  0.21827158924E+01 -0.24259059047E+01  0.80210487418E+01  0.51100000000E-03 0. -1.
        -11    1    3    3    0    0 -0.21151831631E+02  0.12890543748E+02 -0.34457483015E+01  0.25008784079E+02  0.51100000000E-03 0.  1.
         12    1    3    3    0    0  0.40874522533E+01  0.17008020576E+02  0.48579345039E+00  0.17499029262E+02  0.00000000000E+00 0. -1.
</event>
<event>
 7    1  0.5487071E-013  0.5052886E+02  0.7816164E-02  0.1300439E+00
        -11   -1    0    0    0    0  0.00000000000E+00  0.00000000000E+00  0.45593999997E+02  0.45594000000E+02  0.51100000000E-03 0.  1.
         11   -1    0    0    0    0 -0.00000000000E+00 -0.00000000000E+00 -0.45593999997E+02  0.45594000000E+02  0.51100000000E-03 0. -1.
    9900012    2    1    2    0    0 -0.40779880152E+01 -0.94098443196E+00 -0.40443174848E+02  0.50528857981E+02  0.29999994318E+02 0.  0.
        -12    1    1    2    0    0  0.40779880152E+01  0.94098443196E+00  0.40443174848E+02  0.40659142019E+02  0.00000000000E+00 0.  1.
         11    1    3    3    0    0 -0.47645043816E+01 -0.43740802867E+01 -0.87549866150E+01  0.10884983750E+02  0.51100000000E-03 0. -1.
        -11    1    3    3    0    0  0.10898002999E+02 -0.34999013845E+01 -0.14201658443E+02  0.18240144788E+02  0.51100000000E-03 0.  1.
         12    1    3    3    0    0 -0.10211486633E+02  0.69329972392E+01 -0.17486529790E+02  0.21403729443E+02  0.00000000000E+00 0. -1.
</event>
<event>
 7    1  0.5487071E-013  0.5052888E+02  0.7816164E-02  0.1300439E+00
        -11   -1    0    0    0    0  0.00000000000E+00  0.00000000000E+00  0.45593999997E+02  0.45594000000E+02  0.51100000000E-03 0.  1.
         11   -1    0    0    0    0 -0.00000000000E+00 -0.00000000000E+00 -0.45593999997E+02  0.45594000000E+02  0.51100000000E-03 0. -1.
    9900012    2    1    2    0    0 -0.13332174733E+02  0.30857776311E+02 -0.22873889438E+02  0.50528879744E+02  0.30000060470E+02 0.  0.
        -12    1    1    2    0    0  0.13332174733E+02 -0.30857776311E+02  0.22873889438E+02  0.40659120256E+02  0.00000000000E+00 0.  1.
         11    1    3    3    0    0  0.79168208938E+00  0.12520616817E+02 -0.85230739427E+01  0.15166917805E+02  0.51100000000E-03 0. -1.
        -11    1    3    3    0    0  0.49704592017E+01  0.10608049364E+02 -0.49051732818E+01  0.12700271697E+02  0.51100000000E-03 0.  1.
         12    1    3    3    0    0 -0.19094316024E+02  0.77291101303E+01 -0.94456422134E+01  0.22661690243E+02  0.00000000000E+00 0. -1.
</event>
<event>
 7    1  0.5487071E-013  0.5052886E+02  0.7816164E-02  0.1300439E+00
        -11   -1    0    0    0    0  0.00000000000E+00  0.00000000000E+00  0.45593999997E+02  0.45594000000E+02  0.51100000000E-03 0. -1.
         11   -1    0    0    0    0 -0.00000000000E+00 -0.00000000000E+00 -0.45593999997E+02  0.45594000000E+02  0.51100000000E-03 0.  1.
    9900012    2    1    2    0    0 -0.32607095937E+02 -0.15505566194E+02  0.18695470627E+02  0.50528856989E+02  0.29999991303E+02 0.  0.
        -12    1    1    2    0    0  0.32607095937E+02  0.15505566194E+02 -0.18695470627E+02  0.40659143011E+02  0.00000000000E+00 0.  1.
         11    1    3    3    0    0 -0.62816569572E+01 -0.37715149597E+01 -0.30053076915E+01  0.79193063964E+01  0.51100000000E-03 0. -1.
        -11    1    3    3    0    0 -0.99803990851E+01 -0.10561305004E+02 -0.10529480634E+01  0.14569084706E+02  0.51100000000E-03 0.  1.
         12    1    3    3    0    0 -0.16345039895E+02 -0.11727462304E+01  0.22753726382E+02  0.28040465887E+02  0.00000000000E+00 0. -1.
</event>
<event>
 7    1  0.5487071E-013  0.5052886E+02  0.7816164E-02  0.1300439E+00
        -11   -1    0    0    0    0  0.00000000000E+00  0.00000000000E+00  0.45593999997E+02  0.45594000000E+02  0.51100000000E-03 0.  1.
         11   -1    0    0    0    0 -0.00000000000E+00 -0.00000000000E+00 -0.45593999997E+02  0.45594000000E+02  0.51100000000E-03 0. -1.
    9900012    2    1    2    0    0 -0.13440507693E+02  0.33297623728E+02 -0.19073186237E+02  0.50528862943E+02  0.30000009401E+02 0.  0.
        -12    1    1    2    0    0  0.13440507693E+02 -0.33297623728E+02  0.19073186237E+02  0.40659137057E+02  0.00000000000E+00 0.  1.
         11    1    3    3    0    0 -0.34454768301E+01  0.97369724868E+01  0.18721272640E+01  0.10496894996E+02  0.51100000000E-03 0. -1.
        -11    1    3    3    0    0 -0.15051826560E+02  0.66352228970E+01 -0.99345784785E+01  0.19216646833E+02  0.51100000000E-03 0.  1.
        -12    1    3    3    0    0  0.50567956971E+01  0.16925428344E+02 -0.11010735023E+02  0.20815321115E+02  0.00000000000E+00 0.  1.
</event>
<event>
 7    1  0.5487071E-013  0.5052886E+02  0.7816164E-02  0.1300439E+00
        -11   -1    0    0    0    0  0.00000000000E+00  0.00000000000E+00  0.45593999997E+02  0.45594000000E+02  0.51100000000E-03 0. -1.
         11   -1    0    0    0    0 -0.00000000000E+00 -0.00000000000E+00 -0.45593999997E+02  0.45594000000E+02  0.51100000000E-03 0.  1.
    9900012    2    1    2    0    0 -0.12020397393E+02  0.35032656668E+02  0.16774647804E+02  0.50528858400E+02  0.29999995592E+02 0.  0.
        -12    1    1    2    0    0  0.12020397393E+02 -0.35032656668E+02 -0.16774647804E+02  0.40659141600E+02  0.00000000000E+00 0.  1.
         11    1    3    3    0    0  0.15183896466E+01  0.19919409533E+02  0.36744808740E+00  0.19980575608E+02  0.51100000000E-03 0.  1.
        -11    1    3    3    0    0 -0.14544379196E+02  0.13279666357E+02  0.69850893144E+01  0.20896889188E+02  0.51100000000E-03 0. -1.
        -12    1    3    3    0    0  0.10055921572E+01  0.18335807788E+01  0.94221104022E+01  0.96513936035E+01  0.00000000000E+00 0.  1.
</event>
<event>
 7    1  0.5487071E-013  0.5052885E+02  0.7816164E-02  0.1300439E+00
        -11   -1    0    0    0    0  0.00000000000E+00  0.00000000000E+00  0.45593999997E+02  0.45594000000E+02  0.51100000000E-03 0.  1.
         11   -1    0    0    0    0 -0.00000000000E+00 -0.00000000000E+00 -0.45593999997E+02  0.45594000000E+02  0.51100000000E-03 0. -1.
    9900012    2    1    2    0    0  0.28398731082E+02  0.22909160831E+02 -0.17940147355E+02  0.50528850179E+02  0.29999970605E+02 0.  0.
        -12    1    1    2    0    0 -0.28398731082E+02 -0.22909160831E+02  0.17940147355E+02  0.40659149821E+02  0.00000000000E+00 0.  1.
         11    1    3    3    0    0  0.12181657229E+02  0.25901148204E-01  0.17932894071E+01  0.12312974087E+02  0.51100000000E-03 0. -1.
        -11    1    3    3    0    0  0.49150765334E+01  0.70102016079E+01  0.22373963354E+01  0.88491155793E+01  0.51100000000E-03 0.  1.
        -12    1    3    3    0    0  0.11301997319E+02  0.15873058075E+02 -0.21970833097E+02  0.29366760513E+02  0.00000000000E+00 0.  1.
</event>
<event>
 7    1  0.5487071E-013  0.5052886E+02  0.7816164E-02  0.1300439E+00
        -11   -1    0    0    0    0  0.00000000000E+00  0.00000000000E+00  0.45593999997E+02  0.45594000000E+02  0.51100000000E-03 0.  1.
         11   -1    0    0    0    0 -0.00000000000E+00 -0.00000000000E+00 -0.45593999997E+02  0.45594000000E+02  0.51100000000E-03 0. -1.
    9900012    2    1    2    0    0 -0.25317724834E+02 -0.60720392057E+01 -0.31229936795E+02  0.50528858308E+02  0.29999995314E+02 0.  0.
        -12    1    1    2    0    0  0.25317724834E+02  0.60720392057E+01  0.31229936795E+02  0.40659141692E+02  0.00000000000E+00 0.  1.
         11    1    3    3    0    0  0.79837397265E+00 -0.39864248699E+01 -0.99521595011E+01  0.10750556415E+02  0.51100000000E-03 0. -1.
        -11    1    3    3    0    0 -0.12488171402E+02 -0.84856477093E+01 -0.19434191308E+02  0.24609925519E+02  0.51100000000E-03 0.  1.
         12    1    3    3    0    0 -0.13627927405E+02  0.64000333735E+01 -0.18435859860E+01  0.15168376374E+02  0.00000000000E+00 0. -1.
</event>
<event>
 7    1  0.5487071E-013  0.5052891E+02  0.7816164E-02  0.1300439E+00
        -11   -1    0    0    0    0  0.00000000000E+00  0.00000000000E+00  0.45593999997E+02  0.45594000000E+02  0.51100000000E-03 0.  1.
         11   -1    0    0    0    0 -0.00000000000E+00 -0.00000000000E+00 -0.45593999997E+02  0.45594000000E+02  0.51100000000E-03 0. -1.
    9900012    2    1    2    0    0  0.19546907363E+02 -0.19397559350E+02 -0.29913455527E+02  0.50528908547E+02  0.30000148020E+02 0.  0.
        -12    1    1    2    0    0 -0.19546907363E+02  0.19397559350E+02  0.29913455527E+02  0.40659091453E+02  0.00000000000E+00 0.  1.
         11    1    3    3    0    0  0.10589228133E+02 -0.83306882887E+01 -0.30960556713E+02  0.33765192019E+02  0.51100000000E-03 0. -1.
        -11    1    3    3    0    0  0.78298575054E+01 -0.67470616168E+01 -0.29740316616E+01  0.10755202165E+02  0.51100000000E-03 0.  1.
        -12    1    3    3    0    0  0.11278217252E+01 -0.43198094445E+01  0.40211328482E+01  0.60085143641E+01  0.00000000000E+00 0.  1.
</event>
<event>
 7    1  0.5487071E-013  0.5052883E+02  0.7816164E-02  0.1300439E+00
        -11   -1    0    0    0    0  0.00000000000E+00  0.00000000000E+00  0.45593999997E+02  0.45594000000E+02  0.51100000000E-03 0. -1.
         11   -1    0    0    0    0 -0.00000000000E+00 -0.00000000000E+00 -0.45593999997E+02  0.45594000000E+02  0.51100000000E-03 0.  1.
    9900012    2    1    2    0    0 -0.95698438121E+01  0.22441558453E+02  0.32526343029E+02  0.50528825793E+02  0.29999896480E+02 0.  0.
        -12    1    1    2    0    0  0.95698438121E+01 -0.22441558453E+02 -0.32526343029E+02  0.40659174207E+02  0.00000000000E+00 0.  1.
         11    1    3    3    0    0 -0.52465770228E+01 -0.38545426415E+01  0.86099910595E+01  0.10794258462E+02  0.51100000000E-03 0.  1.
        -11    1    3    3    0    0  0.90334456556E+00 -0.23200235557E+01  0.30391407671E+01  0.39287297650E+01  0.51100000000E-03 0. -1.
        -12    1    3    3    0    0 -0.52266113548E+01  0.28616124650E+02  0.20877211202E+02  0.35805837566E+02  0.00000000000E+00 0.  1.
</event>
<event>
 7    1  0.5487071E-013  0.5052886E+02  0.7816164E-02  0.1300439E+00
        -11   -1    0    0    0    0  0.00000000000E+00  0.00000000000E+00  0.45593999997E+02  0.45594000000E+02  0.51100000000E-03 0.  1.
         11   -1    0    0    0    0 -0.00000000000E+00 -0.00000000000E+00 -0.45593999997E+02  0.45594000000E+02  0.51100000000E-03 0. -1.
    9900012    2    1    2    0    0 -0.30621513290E+02 -0.24958976578E+02 -0.96196543521E+01  0.50528864030E+02  0.30000012705E+02 0.  0.
        -12    1    1    2    0    0  0.30621513290E+02  0.24958976578E+02  0.96196543521E+01  0.40659135970E+02  0.00000000000E+00 0.  1.
         11    1    3    3    0    0 -0.64014415908E+01  0.38060076447E+01  0.46091346022E+00  0.74616747524E+01  0.51100000000E-03 0. -1.
        -11    1    3    3    0    0 -0.66245886670E+01  0.12190237463E+01 -0.38163403890E+01  0.77418116825E+01  0.51100000000E-03 0.  1.
         12    1    3    3    0    0 -0.17595483033E+02 -0.29984007968E+02 -0.62642274234E+01  0.35325377595E+02  0.00000000000E+00 0. -1.
</event>
<event>
 7    1  0.5487071E-013  0.5052886E+02  0.7816164E-02  0.1300439E+00
        -11   -1    0    0    0    0  0.00000000000E+00  0.00000000000E+00  0.45593999997E+02  0.45594000000E+02  0.51100000000E-03 0.  1.
         11   -1    0    0    0    0 -0.00000000000E+00 -0.00000000000E+00 -0.45593999997E+02  0.45594000000E+02  0.51100000000E-03 0. -1.
    9900012    2    1    2    0    0 -0.20087755934E+01 -0.15672325938E+02 -0.37463433726E+02  0.50528857778E+02  0.29999993703E+02 0.  0.
        -12    1    1    2    0    0  0.20087755934E+01  0.15672325938E+02  0.37463433726E+02  0.40659142222E+02  0.00000000000E+00 0.  1.
         11    1    3    3    0    0 -0.96818958191E+00  0.89729802240E+00 -0.15081511945E+02  0.15139172290E+02  0.51100000000E-03 0. -1.
        -11    1    3    3    0    0 -0.67864085873E+01  0.26430873451E+01 -0.48218428395E+01  0.87344960277E+01  0.51100000000E-03 0.  1.
         12    1    3    3    0    0  0.57458225759E+01 -0.19212711305E+02 -0.17560078941E+02  0.26655189460E+02  0.00000000000E+00 0. -1.
</event>
<event>
 7    1  0.5487071E-013  0.5052886E+02  0.7816164E-02  0.1300439E+00
        -11   -1    0    0    0    0  0.00000000000E+00  0.00000000000E+00  0.45593999997E+02  0.45594000000E+02  0.51100000000E-03 0.  1.
         11   -1    0    0    0    0 -0.00000000000E+00 -0.00000000000E+00 -0.45593999997E+02  0.45594000000E+02  0.51100000000E-03 0. -1.
    9900012    2    1    2    0    0 -0.11231881589E+01 -0.23633982962E+02 -0.33065681118E+02  0.50528856255E+02  0.29999989072E+02 0.  0.
        -12    1    1    2    0    0  0.11231881589E+01  0.23633982962E+02  0.33065681118E+02  0.40659143745E+02  0.00000000000E+00 0.  1.
         11    1    3    3    0    0  0.24786412883E+01  0.28027813221E+01 -0.32263533361E+01  0.49405062378E+01  0.51100000000E-03 0. -1.
        -11    1    3    3    0    0  0.71899820991E+00 -0.10960156904E+02  0.77741376769E+00  0.11011192951E+02  0.51100000000E-03 0.  1.
         12    1    3    3    0    0 -0.43208276570E+01 -0.15476607380E+02 -0.30616741550E+02  0.34577157066E+02  0.00000000000E+00 0. -1.
</event>
<event>
 7    1  0.5487071E-013  0.5052887E+02  0.7816164E-02  0.1300439E+00
        -11   -1    0    0    0    0  0.00000000000E+00  0.00000000000E+00  0.45593999997E+02  0.45594000000E+02  0.51100000000E-03 0.  1.
         11   -1    0    0    0    0 -0.00000000000E+00 -0.00000000000E+00 -0.45593999997E+02  0.45594000000E+02  0.51100000000E-03 0. -1.
    9900012    2    1    2    0    0 -0.21078105433E+01  0.20670929494E+02 -0.34949034297E+02  0.50528865851E+02  0.30000018241E+02 0.  0.
        -12    1    1    2    0    0  0.21078105433E+01 -0.20670929494E+02  0.34949034297E+02  0.40659134149E+02  0.00000000000E+00 0.  1.
         11    1    3    3    0    0 -0.54652653771E+01  0.18999551092E+02 -0.19472547099E+02  0.27749453294E+02  0.51100000000E-03 0. -1.
        -11    1    3    3    0    0  0.19882817248E+01  0.64236123599E+01 -0.20533801721E+00  0.67274232757E+01  0.51100000000E-03 0.  1.
        -12    1    3    3    0    0  0.13691731091E+01 -0.47522339576E+01 -0.15271149181E+02  0.16051989282E+02  0.00000000000E+00 0.  1.
</event>
<event>
 7    1  0.5487071E-013  0.5052886E+02  0.7816164E-02  0.1300439E+00
        -11   -1    0    0    0    0  0.00000000000E+00  0.00000000000E+00  0.45593999997E+02  0.45594000000E+02  0.51100000000E-03 0.  1.
         11   -1    0    0    0    0 -0.00000000000E+00 -0.00000000000E+00 -0.45593999997E+02  0.45594000000E+02  0.51100000000E-03 0. -1.
    9900012    2    1    2    0    0  0.27485486433E+02  0.28520660184E+02 -0.91807081910E+01  0.50528862962E+02  0.30000009460E+02 0.  0.
        -12    1    1    2    0    0 -0.27485486433E+02 -0.28520660184E+02  0.91807081910E+01  0.40659137038E+02  0.00000000000E+00 0.  1.
         11    1    3    3    0    0  0.13132901081E+02  0.42225448236E+01 -0.81479189048E+01  0.16021596622E+02  0.51100000000E-03 0. -1.
        -11    1    3    3    0    0  0.12179766809E+00  0.91986436855E+00  0.61434770177E+01  0.62131550163E+01  0.51100000000E-03 0.  1.
        -12    1    3    3    0    0  0.14230787684E+02  0.23378250992E+02 -0.71762663039E+01  0.28294111324E+02  0.00000000000E+00 0.  1.
</event>
<event>
 7    1  0.5487071E-013  0.5052886E+02  0.7816164E-02  0.1300439E+00
        -11   -1    0    0    0    0  0.00000000000E+00  0.00000000000E+00  0.45593999997E+02  0.45594000000E+02  0.51100000000E-03 0. -1.
         11   -1    0    0    0    0 -0.00000000000E+00 -0.00000000000E+00 -0.45593999997E+02  0.45594000000E+02  0.51100000000E-03 0.  1.
    9900012    2    1    2    0    0 -0.58111538999E+01 -0.36663586277E+02  0.16588482472E+02  0.50528858112E+02  0.29999994718E+02 0.  0.
        -12    1    1    2    0    0  0.58111538999E+01  0.36663586277E+02 -0.16588482472E+02  0.40659141888E+02  0.00000000000E+00 0.  1.
         11    1    3    3    0    0  0.67140156193E+01 -0.19919961167E+02  0.13497250993E+02  0.24981165771E+02  0.51100000000E-03 0. -1.
        -11    1    3    3    0    0 -0.21710595817E+00 -0.11850463179E+02  0.32919412757E+01  0.12301117436E+02  0.51100000000E-03 0.  1.
        -12    1    3    3    0    0 -0.12308063561E+02 -0.48931619307E+01 -0.20070979657E+00  0.13246574905E+02  0.00000000000E+00 0.  1.
</event>
<event>
 7    1  0.5487071E-013  0.5052886E+02  0.7816164E-02  0.1300439E+00
        -11   -1    0    0    0    0  0.00000000000E+00  0.00000000000E+00  0.45593999997E+02  0.45594000000E+02  0.51100000000E-03 0. -1.
         11   -1    0    0    0    0 -0.00000000000E+00 -0.00000000000E+00 -0.45593999997E+02  0.45594000000E+02  0.51100000000E-03 0.  1.
    9900012    2    1    2    0    0  0.33969103374E+02 -0.21347348719E+02 -0.65997114693E+01  0.50528862370E+02  0.30000007660E+02 0.  0.
        -12    1    1    2    0    0 -0.33969103374E+02  0.21347348719E+02  0.65997114693E+01  0.40659137630E+02  0.00000000000E+00 0.  1.
         11    1    3    3    0    0  0.29215976021E+01 -0.11714741637E+02 -0.50972627295E+00  0.12084317329E+02  0.51100000000E-03 0. -1.
        -11    1    3    3    0    0 -0.37694349200E+00 -0.44941116490E+01 -0.47859562417E+01  0.65760553008E+01  0.51100000000E-03 0.  1.
        -12    1    3    3    0    0  0.31424449264E+02 -0.51384954328E+01 -0.13040289546E+01  0.31868489741E+02  0.00000000000E+00 0.  1.
</event>
<event>
 7    1  0.5487071E-013  0.5052886E+02  0.7816164E-02  0.1300439E+00
        -11   -1    0    0    0    0  0.00000000000E+00  0.00000000000E+00  0.45593999997E+02  0.45594000000E+02  0.51100000000E-03 0.  1.
         11   -1    0    0    0    0 -0.00000000000E+00 -0.00000000000E+00 -0.45593999997E+02  0.45594000000E+02  0.51100000000E-03 0. -1.
    9900012    2    1    2    0    0 -0.13358376676E+02 -0.19735862386E+02 -0.32942599997E+02  0.50528863436E+02  0.30000010900E+02 0.  0.
        -12    1    1    2    0    0  0.13358376676E+02  0.19735862386E+02  0.32942599997E+02  0.40659136564E+02  0.00000000000E+00 0.  1.
         11    1    3    3    0    0 -0.35305503472E+01  0.60724170117E+00 -0.36291575947E+01  0.50994424544E+01  0.51100000000E-03 0. -1.
        -11    1    3    3    0    0 -0.17571768742E+02 -0.18947505713E+02 -0.26651988299E+02  0.37122816569E+02  0.51100000000E-03 0.  1.
        -12    1    3    3    0    0  0.77439424131E+01 -0.13955983738E+01 -0.26614541035E+01  0.83066044123E+01  0.00000000000E+00 0.  1.
</event>
<event>
 7    1  0.5487071E-013  0.5052886E+02  0.7816164E-02  0.1300439E+00
        -11   -1    0    0    0    0  0.00000000000E+00  0.00000000000E+00  0.45593999997E+02  0.45594000000E+02  0.51100000000E-03 0.  1.
         11   -1    0    0    0    0 -0.00000000000E+00 -0.00000000000E+00 -0.45593999997E+02  0.45594000000E+02  0.51100000000E-03 0. -1.
    9900012    2    1    2    0    0  0.96337581280E+01  0.30371803808E+02 -0.25256873556E+02  0.50528862970E+02  0.30000009484E+02 0.  0.
        -12    1    1    2    0    0 -0.96337581280E+01 -0.30371803808E+02  0.25256873556E+02  0.40659137030E+02  0.00000000000E+00 0.  1.
         11    1    3    3    0    0  0.11455696177E+02  0.13273632112E+02 -0.18443561286E+02  0.25447735411E+02  0.51100000000E-03 0. -1.
        -11    1    3    3    0    0 -0.40539470912E-01  0.19704333922E+02 -0.85485558862E+01  0.21478832062E+02  0.51100000000E-03 0.  1.
        -12    1    3    3    0    0 -0.17813985776E+01 -0.26061622263E+01  0.17352436166E+01  0.36022954975E+01  0.00000000000E+00 0.  1.
</event>
<event>
 7    1  0.5487071E-013  0.5052886E+02  0.7816164E-02  0.1300439E+00
        -11   -1    0    0    0    0  0.00000000000E+00  0.00000000000E+00  0.45593999997E+02  0.45594000000E+02  0.51100000000E-03 0. -1.
         11   -1    0    0    0    0 -0.00000000000E+00 -0.00000000000E+00 -0.45593999997E+02  0.45594000000E+02  0.51100000000E-03 0.  1.
    9900012    2    1    2    0    0 -0.39737094701E+01  0.12799684354E+02  0.38386760450E+02  0.50528860014E+02  0.30000000499E+02 0.  0.
        -12    1    1    2    0    0  0.39737094701E+01 -0.12799684354E+02 -0.38386760450E+02  0.40659139986E+02  0.00000000000E+00 0.  1.
         11    1    3    3    0    0  0.24844125652E+01  0.32023145144E+01  0.18894726887E+02  0.19324539540E+02  0.51100000000E-03 0. -1.
        -11    1    3    3    0    0  0.93453501036E+00 -0.57256651488E+01  0.10413524405E+02  0.11920490253E+02  0.51100000000E-03 0.  1.
         12    1    3    3    0    0 -0.73926570457E+01  0.15323034989E+02  0.90785091582E+01  0.19283830221E+02  0.00000000000E+00 0. -1.
</event>
<event>
 7    1  0.5487071E-013  0.5052888E+02  0.7816164E-02  0.1300439E+00
        -11   -1    0    0    0    0  0.00000000000E+00  0.00000000000E+00  0.45593999997E+02  0.45594000000E+02  0.51100000000E-03 0.  1.
         11   -1    0    0    0    0 -0.00000000000E+00 -0.00000000000E+00 -0.45593999997E+02  0.45594000000E+02  0.51100000000E-03 0. -1.
    9900012    2    1    2    0    0  0.57000680862E+01 -0.48986425869E+01 -0.39958433228E+02  0.50528882186E+02  0.30000067892E+02 0.  0.
        -12    1    1    2    0    0 -0.57000680862E+01  0.48986425869E+01  0.39958433228E+02  0.40659117814E+02  0.00000000000E+00 0.  1.
         11    1    3    3    0    0 -0.50311522242E+01 -0.31431960682E+01 -0.20479018757E+02  0.21320937685E+02  0.51100000000E-03 0. -1.
        -11    1    3    3    0    0  0.52360098047E+01 -0.97869305204E+01 -0.14546621524E+02  0.18297650279E+02  0.51100000000E-03 0.  1.
        -12    1    3    3    0    0  0.54952105057E+01  0.80314840017E+01 -0.49327929465E+01  0.10910294223E+02  0.00000000000E+00 0.  1.
</event>
<event>
 7    1  0.5487071E-013  0.5052888E+02  0.7816164E-02  0.1300439E+00
        -11   -1    0    0    0    0  0.00000000000E+00  0.00000000000E+00  0.45593999997E+02  0.45594000000E+02  0.51100000000E-03 0. -1.
         11   -1    0    0    0    0 -0.00000000000E+00 -0.00000000000E+00 -0.45593999997E+02  0.45594000000E+02  0.51100000000E-03 0.  1.
    9900012    2    1    2    0    0 -0.26337263458E+01  0.27845045080E+02  0.29510696065E+02  0.50528877626E+02  0.30000054032E+02 0.  0.
        -12    1    1    2    0    0  0.26337263458E+01 -0.27845045080E+02 -0.29510696065E+02  0.40659122374E+02  0.00000000000E+00 0.  1.
         11    1    3    3    0    0  0.13886580227E+00  0.12039133425E+02  0.10546372970E+02  0.16005811458E+02  0.51100000000E-03 0. -1.
        -11    1    3    3    0    0 -0.21361161486E+01  0.20693187077E+02  0.76207295291E+01  0.22155055911E+02  0.51100000000E-03 0.  1.
        -12    1    3    3    0    0 -0.63647599955E+00 -0.48872754213E+01  0.11343593566E+02  0.12368010258E+02  0.00000000000E+00 0.  1.
</event>
<event>
 7    1  0.5487071E-013  0.5052877E+02  0.7816164E-02  0.1300439E+00
        -11   -1    0    0    0    0  0.00000000000E+00  0.00000000000E+00  0.45593999997E+02  0.45594000000E+02  0.51100000000E-03 0.  1.
         11   -1    0    0    0    0 -0.00000000000E+00 -0.00000000000E+00 -0.45593999997E+02  0.45594000000E+02  0.51100000000E-03 0. -1.
    9900012    2    1    2    0    0 -0.38391080308E+02  0.12779656602E+02 -0.39972968863E+01  0.50528769161E+02  0.29999724340E+02 0.  0.
        -12    1    1    2    0    0  0.38391080308E+02 -0.12779656602E+02  0.39972968863E+01  0.40659230839E+02  0.00000000000E+00 0.  1.
         11    1    3    3    0    0 -0.40249439886E+01 -0.38967045939E+01  0.13043789728E+01  0.57520331683E+01  0.51100000000E-03 0.  1.
        -11    1    3    3    0    0  0.26396119266E+01  0.20047893080E+01  0.25745101492E+01  0.41970029857E+01  0.51100000000E-03 0. -1.
         12    1    3    3    0    0 -0.37005748246E+02  0.14671571887E+02 -0.78761860084E+01  0.40579733007E+02  0.00000000000E+00 0. -1.
</event>
<event>
 7    1  0.5487071E-013  0.5052886E+02  0.7816164E-02  0.1300439E+00
        -11   -1    0    0    0    0  0.00000000000E+00  0.00000000000E+00  0.45593999997E+02  0.45594000000E+02  0.51100000000E-03 0.  1.
         11   -1    0    0    0    0 -0.00000000000E+00 -0.00000000000E+00 -0.45593999997E+02  0.45594000000E+02  0.51100000000E-03 0. -1.
    9900012    2    1    2    0    0 -0.15312819014E+02  0.22768712612E+02 -0.30004479460E+02  0.50528862185E+02  0.30000007099E+02 0.  0.
        -12    1    1    2    0    0  0.15312819014E+02 -0.22768712612E+02  0.30004479460E+02  0.40659137815E+02  0.00000000000E+00 0.  1.
         11    1    3    3    0    0 -0.15554512717E+02  0.20187258942E+01 -0.14616203319E+02  0.21439485065E+02  0.51100000000E-03 0. -1.
        -11    1    3    3    0    0  0.25260529202E+01  0.17017460230E+00  0.95963266659E+00  0.27075446195E+01  0.51100000000E-03 0.  1.
         12    1    3    3    0    0 -0.22843592165E+01  0.20579812116E+02 -0.16347908808E+02  0.26381832501E+02  0.00000000000E+00 0. -1.
</event>
<event>
 7    1  0.5487071E-013  0.5052885E+02  0.7816164E-02  0.1300439E+00
        -11   -1    0    0    0    0  0.00000000000E+00  0.00000000000E+00  0.45593999997E+02  0.45594000000E+02  0.51100000000E-03 0.  1.
         11   -1    0    0    0    0 -0.00000000000E+00 -0.00000000000E+00 -0.45593999997E+02  0.45594000000E+02  0.51100000000E-03 0. -1.
    9900012    2    1    2    0    0  0.40066781086E+01 -0.36650914974E+02 -0.17141274825E+02  0.50528851699E+02  0.29999975226E+02 0.  0.
        -12    1    1    2    0    0 -0.40066781086E+01  0.36650914974E+02  0.17141274825E+02  0.40659148301E+02  0.00000000000E+00 0.  1.
         11    1    3    3    0    0  0.79480322716E+01 -0.96846949015E+01 -0.11569014229E+01  0.12581850162E+02  0.51100000000E-03 0. -1.
        -11    1    3    3    0    0  0.39944237782E+01  0.10587327538E+00  0.20227564738E+01  0.44786353373E+01  0.51100000000E-03 0.  1.
         12    1    3    3    0    0 -0.79357779412E+01 -0.27072093348E+02 -0.18007129876E+02  0.33468366201E+02  0.00000000000E+00 0. -1.
</event>
<event>
 7    1  0.5487071E-013  0.5052887E+02  0.7816164E-02  0.1300439E+00
        -11   -1    0    0    0    0  0.00000000000E+00  0.00000000000E+00  0.45593999997E+02  0.45594000000E+02  0.51100000000E-03 0.  1.
         11   -1    0    0    0    0 -0.00000000000E+00 -0.00000000000E+00 -0.45593999997E+02  0.45594000000E+02  0.51100000000E-03 0. -1.
    9900012    2    1    2    0    0  0.69414912420E+01 -0.29074319371E+02 -0.27562014824E+02  0.50528868077E+02  0.30000025007E+02 0.  0.
        -12    1    1    2    0    0 -0.69414912420E+01  0.29074319371E+02  0.27562014824E+02  0.40659131923E+02  0.00000000000E+00 0.  1.
         11    1    3    3    0    0 -0.19002090916E+01 -0.62101511960E+00 -0.31401333405E+01  0.37224846578E+01  0.51100000000E-03 0. -1.
        -11    1    3    3    0    0 -0.27250965632E+01 -0.70621989274E+01  0.46660552787E+01  0.88922931291E+01  0.51100000000E-03 0.  1.
        -12    1    3    3    0    0  0.11566796897E+02 -0.21391105324E+02 -0.29087936762E+02  0.37914090290E+02  0.00000000000E+00 0.  1.
</event>
<event>
 7    1  0.5487071E-013  0.5052885E+02  0.7816164E-02  0.1300439E+00
        -11   -1    0    0    0    0  0.00000000000E+00  0.00000000000E+00  0.45593999997E+02  0.45594000000E+02  0.51100000000E-03 0.  1.
         11   -1    0    0    0    0 -0.00000000000E+00 -0.00000000000E+00 -0.45593999997E+02  0.45594000000E+02  0.51100000000E-03 0. -1.
    9900012    2    1    2    0    0 -0.32705562666E+00  0.99185646690E+01 -0.39429452492E+02  0.50528848332E+02  0.29999964991E+02 0.  0.
        -12    1    1    2    0    0  0.32705562666E+00 -0.99185646690E+01  0.39429452492E+02  0.40659151668E+02  0.00000000000E+00 0.  1.
         11    1    3    3    0    0  0.57558433106E+01  0.11816132060E+02 -0.10788518377E+02  0.17004200602E+02  0.51100000000E-03 0. -1.
        -11    1    3    3    0    0 -0.49677782911E+01  0.48703214602E+01 -0.24597548561E+02  0.25562438220E+02  0.51100000000E-03 0.  1.
         12    1    3    3    0    0 -0.11151206461E+01 -0.67678888510E+01 -0.40433855548E+01  0.79622095112E+01  0.00000000000E+00 0. -1.
</event>
<event>
 7    1  0.5487071E-013  0.5052885E+02  0.7816164E-02  0.1300439E+00
        -11   -1    0    0    0    0  0.00000000000E+00  0.00000000000E+00  0.45593999997E+02  0.45594000000E+02  0.51100000000E-03 0. -1.
         11   -1    0    0    0    0 -0.00000000000E+00 -0.00000000000E+00 -0.45593999997E+02  0.45594000000E+02  0.51100000000E-03 0.  1.
    9900012    2    1    2    0    0 -0.30348518011E+02 -0.31308896136E+01  0.26876222009E+02  0.50528851894E+02  0.29999975816E+02 0.  0.
        -12    1    1    2    0    0  0.30348518011E+02  0.31308896136E+01 -0.26876222009E+02  0.40659148106E+02  0.00000000000E+00 0.  1.
         11    1    3    3    0    0 -0.22316591932E+02 -0.10824342827E+01  0.16781684372E+02  0.27943279515E+02  0.51100000000E-03 0. -1.
        -11    1    3    3    0    0 -0.95955159879E+01  0.60633268977E+01  0.84790418903E+01  0.14167992511E+02  0.51100000000E-03 0.  1.
        -12    1    3    3    0    0  0.15635899088E+01 -0.81117822286E+01  0.16154957466E+01  0.84175798680E+01  0.00000000000E+00 0.  1.
</event>
<event>
 7    1  0.5487071E-013  0.5052886E+02  0.7816164E-02  0.1300439E+00
        -11   -1    0    0    0    0  0.00000000000E+00  0.00000000000E+00  0.45593999997E+02  0.45594000000E+02  0.51100000000E-03 0.  1.
         11   -1    0    0    0    0 -0.00000000000E+00 -0.00000000000E+00 -0.45593999997E+02  0.45594000000E+02  0.51100000000E-03 0. -1.
    9900012    2    1    2    0    0  0.37983633291E+02 -0.90501511358E+00  0.14477222680E+02  0.50528862935E+02  0.30000009378E+02 0.  0.
        -12    1    1    2    0    0 -0.37983633291E+02  0.90501511358E+00 -0.14477222680E+02  0.40659137065E+02  0.00000000000E+00 0.  1.
         11    1    3    3    0    0 -0.92312575356E-01  0.35793765033E+01  0.76768457444E+01  0.84707979912E+01  0.51100000000E-03 0. -1.
        -11    1    3    3    0    0  0.69715942940E+01 -0.62275889212E+01 -0.22536882676E+01  0.96158775907E+01  0.51100000000E-03 0.  1.
         12    1    3    3    0    0  0.31104351572E+02  0.17431973043E+01  0.90540652030E+01  0.32442187353E+02  0.00000000000E+00 0. -1.
</event>
<event>
 7    1  0.5487071E-013  0.5052886E+02  0.7816164E-02  0.1300439E+00
        -11   -1    0    0    0    0  0.00000000000E+00  0.00000000000E+00  0.45593999997E+02  0.45594000000E+02  0.51100000000E-03 0. -1.
         11   -1    0    0    0    0 -0.00000000000E+00 -0.00000000000E+00 -0.45593999997E+02  0.45594000000E+02  0.51100000000E-03 0.  1.
    9900012    2    1    2    0    0 -0.12437221203E+01 -0.29262320213E+02  0.28201697763E+02  0.50528856063E+02  0.29999988490E+02 0.  0.
        -12    1    1    2    0    0  0.12437221203E+01  0.29262320213E+02 -0.28201697763E+02  0.40659143937E+02  0.00000000000E+00 0.  1.
         11    1    3    3    0    0 -0.86799809414E+00 -0.55627969524E+01  0.64769349359E+01  0.85818888976E+01  0.51100000000E-03 0. -1.
        -11    1    3    3    0    0  0.86587821638E+00 -0.29405306730E+02  0.14936473543E+02  0.32992727246E+02  0.51100000000E-03 0.  1.
        -12    1    3    3    0    0 -0.12416022425E+01  0.57057834696E+01  0.67882892842E+01  0.89542399195E+01  0.00000000000E+00 0.  1.
</event>
<event>
 7    1  0.5487071E-013  0.5052886E+02  0.7816164E-02  0.1300439E+00
        -11   -1    0    0    0    0  0.00000000000E+00  0.00000000000E+00  0.45593999997E+02  0.45594000000E+02  0.51100000000E-03 0. -1.
         11   -1    0    0    0    0 -0.00000000000E+00 -0.00000000000E+00 -0.45593999997E+02  0.45594000000E+02  0.51100000000E-03 0.  1.
    9900012    2    1    2    0    0  0.18171861636E+02 -0.20629095752E+02  0.29956462209E+02  0.50528858655E+02  0.29999996366E+02 0.  0.
        -12    1    1    2    0    0 -0.18171861636E+02  0.20629095752E+02 -0.29956462209E+02  0.40659141345E+02  0.00000000000E+00 0.  1.
         11    1    3    3    0    0  0.28960060820E+01 -0.24396410470E+01  0.20321702326E+02  0.20671484837E+02  0.51100000000E-03 0. -1.
        -11    1    3    3    0    0  0.30233173728E+01 -0.15040114531E+02  0.73146347768E+01  0.16995569282E+02  0.51100000000E-03 0.  1.
        -12    1    3    3    0    0  0.12252538181E+02 -0.31493401742E+01  0.23201251065E+01  0.12861804536E+02  0.00000000000E+00 0.  1.
</event>
<event>
 7    1  0.5487071E-013  0.5052887E+02  0.7816164E-02  0.1300439E+00
        -11   -1    0    0    0    0  0.00000000000E+00  0.00000000000E+00  0.45593999997E+02  0.45594000000E+02  0.51100000000E-03 0. -1.
         11   -1    0    0    0    0 -0.00000000000E+00 -0.00000000000E+00 -0.45593999997E+02  0.45594000000E+02  0.51100000000E-03 0.  1.
    9900012    2    1    2    0    0  0.19948382925E+02 -0.35427795631E+02  0.31342246089E+00  0.50528869190E+02  0.30000028391E+02 0.  0.
        -12    1    1    2    0    0 -0.19948382925E+02  0.35427795631E+02 -0.31342246089E+00  0.40659130810E+02  0.00000000000E+00 0.  1.
         11    1    3    3    0    0  0.11737891479E+02 -0.19801349612E+02 -0.14313451807E+01  0.23063397237E+02  0.51100000000E-03 0. -1.
        -11    1    3    3    0    0  0.13858506981E+02 -0.15592850180E+02 -0.15634274048E+01  0.20919835037E+02  0.51100000000E-03 0.  1.
        -12    1    3    3    0    0 -0.56480155351E+01 -0.33595838156E-01  0.33081950463E+01  0.65456369155E+01  0.00000000000E+00 0.  1.
</event>
<event>
 7    1  0.5487071E-013  0.5052886E+02  0.7816164E-02  0.1300439E+00
        -11   -1    0    0    0    0  0.00000000000E+00  0.00000000000E+00  0.45593999997E+02  0.45594000000E+02  0.51100000000E-03 0.  1.
         11   -1    0    0    0    0 -0.00000000000E+00 -0.00000000000E+00 -0.45593999997E+02  0.45594000000E+02  0.51100000000E-03 0. -1.
    9900012    2    1    2    0    0  0.42533619305E+01 -0.40367706996E+02 -0.23500673315E+01  0.50528859917E+02  0.30000000205E+02 0.  0.
        -12    1    1    2    0    0 -0.42533619305E+01  0.40367706996E+02  0.23500673315E+01  0.40659140083E+02  0.00000000000E+00 0.  1.
         11    1    3    3    0    0  0.16720347594E+01 -0.22706457710E+02  0.90430030566E+01  0.24498057607E+02  0.51100000000E-03 0. -1.
        -11    1    3    3    0    0  0.38279281855E+01 -0.10139982625E+02  0.16101469141E+01  0.10957410971E+02  0.51100000000E-03 0.  1.
        -12    1    3    3    0    0 -0.12466010145E+01 -0.75212666601E+01 -0.13003217302E+02  0.15073391339E+02  0.00000000000E+00 0.  1.
</event>
<event>
 7    1  0.5487071E-013  0.5052888E+02  0.7816164E-02  0.1300439E+00
        -11   -1    0    0    0    0  0.00000000000E+00  0.00000000000E+00  0.45593999997E+02  0.45594000000E+02  0.51100000000E-03 0.  1.
         11   -1    0    0    0    0 -0.00000000000E+00 -0.00000000000E+00 -0.45593999997E+02  0.45594000000E+02  0.51100000000E-03 0. -1.
    9900012    2    1    2    0    0  0.16057457387E+02 -0.36758981378E+02 -0.66407174543E+01  0.50528883212E+02  0.30000071011E+02 0.  0.
        -12    1    1    2    0    0 -0.16057457387E+02  0.36758981378E+02  0.66407174543E+01  0.40659116788E+02  0.00000000000E+00 0.  1.
         11    1    3    3    0    0  0.37584757918E+01 -0.17731338887E+02 -0.17364001305E+02  0.25100499210E+02  0.51100000000E-03 0. -1.
        -11    1    3    3    0    0  0.95460127182E-01 -0.24713783290E+01  0.14474896953E+01  0.28656674894E+01  0.51100000000E-03 0.  1.
         12    1    3    3    0    0  0.12203521468E+02 -0.16556264162E+02  0.92757941557E+01  0.22562716513E+02  0.00000000000E+00 0. -1.
</event>
<event>
 7    1  0.5487071E-013  0.5052886E+02  0.7816164E-02  0.1300439E+00
        -11   -1    0    0    0    0  0.00000000000E+00  0.00000000000E+00  0.45593999997E+02  0.45594000000E+02  0.51100000000E-03 0. -1.
         11   -1    0    0    0    0 -0.00000000000E+00 -0.00000000000E+00 -0.45593999997E+02  0.45594000000E+02  0.51100000000E-03 0.  1.
    9900012    2    1    2    0    0  0.38330947876E+02 -0.13032431936E+02  0.37496083818E+01  0.50528863139E+02  0.30000009999E+02 0.  0.
        -12    1    1    2    0    0 -0.38330947876E+02  0.13032431936E+02 -0.37496083818E+01  0.40659136861E+02  0.00000000000E+00 0.  1.
         11    1    3    3    0    0  0.63273718543E+01 -0.41021898931E+01  0.57841482040E+01  0.95036817712E+01  0.51100000000E-03 0. -1.
        -11    1    3    3    0    0 -0.52347441431E+00  0.53461079885E+01 -0.11425081758E+01  0.54918322335E+01  0.51100000000E-03 0.  1.
         12    1    3    3    0    0  0.32527050436E+02 -0.14276350031E+02 -0.89203164640E+00  0.35533349135E+02  0.00000000000E+00 0. -1.
</event>
<event>
 7    1  0.5487071E-013  0.5052872E+02  0.7816164E-02  0.1300439E+00
        -11   -1    0    0    0    0  0.00000000000E+00  0.00000000000E+00  0.45593999997E+02  0.45594000000E+02  0.51100000000E-03 0.  1.
         11   -1    0    0    0    0 -0.00000000000E+00 -0.00000000000E+00 -0.45593999997E+02  0.45594000000E+02  0.51100000000E-03 0. -1.
    9900012    2    1    2    0    0  0.22767670633E+01  0.36210776393E+02 -0.18351380361E+02  0.50528718693E+02  0.29999570937E+02 0.  0.
        -12    1    1    2    0    0 -0.22767670633E+01 -0.36210776393E+02  0.18351380361E+02  0.40659281307E+02  0.00000000000E+00 0.  1.
         11    1    3    3    0    0 -0.48174037683E+01  0.82164761161E+01 -0.54236688937E+01  0.10960567657E+02  0.51100000000E-03 0. -1.
        -11    1    3    3    0    0  0.58556415306E+01  0.36908694568E+01 -0.13560538741E+02  0.15224955379E+02  0.51100000000E-03 0.  1.
         12    1    3    3    0    0  0.12385293009E+01  0.24303430820E+02  0.63282727406E+00  0.24343195657E+02  0.00000000000E+00 0. -1.
</event>
<event>
 7    1  0.5487071E-013  0.5052885E+02  0.7816164E-02  0.1300439E+00
        -11   -1    0    0    0    0  0.00000000000E+00  0.00000000000E+00  0.45593999997E+02  0.45594000000E+02  0.51100000000E-03 0.  1.
         11   -1    0    0    0    0 -0.00000000000E+00 -0.00000000000E+00 -0.45593999997E+02  0.45594000000E+02  0.51100000000E-03 0. -1.
    9900012    2    1    2    0    0  0.19984797756E+00 -0.34975567979E+01 -0.40507941028E+02  0.50528854300E+02  0.29999983130E+02 0.  0.
        -12    1    1    2    0    0 -0.19984797756E+00  0.34975567979E+01  0.40507941028E+02  0.40659145700E+02  0.00000000000E+00 0.  1.
         11    1    3    3    0    0 -0.94345759154E+00  0.93340064192E+00 -0.15403156622E+02  0.15460225845E+02  0.51100000000E-03 0. -1.
        -11    1    3    3    0    0 -0.78526616337E+01  0.65667218045E+01 -0.11521199591E+02  0.15411819175E+02  0.51100000000E-03 0.  1.
         12    1    3    3    0    0  0.89959672028E+01 -0.10997679244E+02 -0.13583584814E+02  0.19656809280E+02  0.00000000000E+00 0. -1.
</event>
<event>
 7    1  0.5487071E-013  0.5052886E+02  0.7816164E-02  0.1300439E+00
        -11   -1    0    0    0    0  0.00000000000E+00  0.00000000000E+00  0.45593999997E+02  0.45594000000E+02  0.51100000000E-03 0.  1.
         11   -1    0    0    0    0 -0.00000000000E+00 -0.00000000000E+00 -0.45593999997E+02  0.45594000000E+02  0.51100000000E-03 0. -1.
    9900012    2    1    2    0    0  0.37706020358E+02 -0.14533645025E+02 -0.44938805777E+01  0.50528858695E+02  0.29999996490E+02 0.  0.
        -12    1    1    2    0    0 -0.37706020358E+02  0.14533645025E+02  0.44938805777E+01  0.40659141305E+02  0.00000000000E+00 0.  1.
         11    1    3    3    0    0  0.12110905975E+02  0.51386245004E+01 -0.28855468964E+01  0.13468700251E+02  0.51100000000E-03 0.  1.
        -11    1    3    3    0    0  0.18601949070E+02 -0.30643652518E+01  0.85694850225E+00  0.18872127718E+02  0.51100000000E-03 0. -1.
        -12    1    3    3    0    0  0.69931653135E+01 -0.16607904274E+02 -0.24652821836E+01  0.18188030727E+02  0.00000000000E+00 0.  1.
</event>
<event>
 7    1  0.5487071E-013  0.5052888E+02  0.7816164E-02  0.1300439E+00
        -11   -1    0    0    0    0  0.00000000000E+00  0.00000000000E+00  0.45593999997E+02  0.45594000000E+02  0.51100000000E-03 0. -1.
         11   -1    0    0    0    0 -0.00000000000E+00 -0.00000000000E+00 -0.45593999997E+02  0.45594000000E+02  0.51100000000E-03 0.  1.
    9900012    2    1    2    0    0 -0.29671858648E+01  0.94338246799E+01  0.39438090381E+02  0.50528877863E+02  0.30000054752E+02 0.  0.
        -12    1    1    2    0    0  0.29671858648E+01 -0.94338246799E+01 -0.39438090381E+02  0.40659122137E+02  0.00000000000E+00 0.  1.
         11    1    3    3    0    0  0.62429139867E+01  0.11453979036E+02  0.19181518067E+02  0.23196944764E+02  0.51100000000E-03 0. -1.
        -11    1    3    3    0    0  0.42513690729E+01  0.11207723216E+01  0.63546276353E+01  0.77273256845E+01  0.51100000000E-03 0.  1.
        -12    1    3    3    0    0 -0.13461468924E+02 -0.31409266774E+01  0.13901944679E+02  0.19604607414E+02  0.00000000000E+00 0.  1.
</event>
<event>
 7    1  0.5487071E-013  0.5052887E+02  0.7816164E-02  0.1300439E+00
        -11   -1    0    0    0    0  0.00000000000E+00  0.00000000000E+00  0.45593999997E+02  0.45594000000E+02  0.51100000000E-03 0. -1.
         11   -1    0    0    0    0 -0.00000000000E+00 -0.00000000000E+00 -0.45593999997E+02  0.45594000000E+02  0.51100000000E-03 0.  1.
    9900012    2    1    2    0    0  0.57781496082E+01 -0.36082831251E+02  0.17827155169E+02  0.50528865905E+02  0.30000018403E+02 0.  0.
        -12    1    1    2    0    0 -0.57781496082E+01  0.36082831251E+02 -0.17827155169E+02  0.40659134095E+02  0.00000000000E+00 0.  1.
         11    1    3    3    0    0  0.14739607716E+02 -0.13927082667E+02  0.10182468280E+02  0.22691459358E+02  0.51100000000E-03 0. -1.
        -11    1    3    3    0    0  0.28258420925E+01 -0.25182199895E+01  0.35468308779E+00  0.38016596114E+01  0.51100000000E-03 0.  1.
         12    1    3    3    0    0 -0.11787300201E+02 -0.19637528594E+02  0.72900038005E+01  0.24035746935E+02  0.00000000000E+00 0. -1.
</event>
<event>
 7    1  0.5487071E-013  0.5052886E+02  0.7816164E-02  0.1300439E+00
        -11   -1    0    0    0    0  0.00000000000E+00  0.00000000000E+00  0.45593999997E+02  0.45594000000E+02  0.51100000000E-03 0. -1.
         11   -1    0    0    0    0 -0.00000000000E+00 -0.00000000000E+00 -0.45593999997E+02  0.45594000000E+02  0.51100000000E-03 0.  1.
    9900012    2    1    2    0    0 -0.19591721137E+02 -0.18120964746E+02  0.30675087143E+02  0.50528857465E+02  0.29999992750E+02 0.  0.
        -12    1    1    2    0    0  0.19591721137E+02  0.18120964746E+02 -0.30675087143E+02  0.40659142535E+02  0.00000000000E+00 0.  1.
         11    1    3    3    0    0 -0.10247394609E+02 -0.52103369446E+00  0.11735354330E+02  0.15588428846E+02  0.51100000000E-03 0. -1.
        -11    1    3    3    0    0 -0.12289016549E+02 -0.17079449124E+02  0.22151651737E+02  0.30551975142E+02  0.51100000000E-03 0.  1.
        -12    1    3    3    0    0  0.29446900200E+01 -0.52048192730E+00 -0.32119189233E+01  0.43884534770E+01  0.00000000000E+00 0.  1.
</event>
<event>
 7    1  0.5487071E-013  0.5052886E+02  0.7816164E-02  0.1300439E+00
        -11   -1    0    0    0    0  0.00000000000E+00  0.00000000000E+00  0.45593999997E+02  0.45594000000E+02  0.51100000000E-03 0.  1.
         11   -1    0    0    0    0 -0.00000000000E+00 -0.00000000000E+00 -0.45593999997E+02  0.45594000000E+02  0.51100000000E-03 0. -1.
    9900012    2    1    2    0    0 -0.27427630075E+02 -0.20588233316E+02 -0.21840686885E+02  0.50528857778E+02  0.29999993702E+02 0.  0.
        -12    1    1    2    0    0  0.27427630075E+02  0.20588233316E+02  0.21840686885E+02  0.40659142222E+02  0.00000000000E+00 0.  1.
         11    1    3    3    0    0 -0.14369911551E+02 -0.12271979846E+02  0.99695505008E-01  0.18897242836E+02  0.51100000000E-03 0. -1.
        -11    1    3    3    0    0 -0.51099457472E+01  0.37222146954E+01 -0.13068770806E+01  0.64555678095E+01  0.51100000000E-03 0.  1.
         12    1    3    3    0    0 -0.79477727767E+01 -0.12038468165E+02 -0.20633505310E+02  0.25176047133E+02  0.00000000000E+00 0. -1.
</event>
<event>
 7    1  0.5487071E-013  0.5052887E+02  0.7816164E-02  0.1300439E+00
        -11   -1    0    0    0    0  0.00000000000E+00  0.00000000000E+00  0.45593999997E+02  0.45594000000E+02  0.51100000000E-03 0. -1.
         11   -1    0    0    0    0 -0.00000000000E+00 -0.00000000000E+00 -0.45593999997E+02  0.45594000000E+02  0.51100000000E-03 0.  1.
    9900012    2    1    2    0    0  0.21162208124E+02 -0.31462871221E+02  0.14676981126E+02  0.50528867039E+02  0.30000021852E+02 0.  0.
        -12    1    1    2    0    0 -0.21162208124E+02  0.31462871221E+02 -0.14676981126E+02  0.40659132961E+02  0.00000000000E+00 0.  1.
         11    1    3    3    0    0  0.12249213859E+02 -0.65587771490E+01  0.51763347069E+01  0.14827516282E+02  0.51100000000E-03 0. -1.
        -11    1    3    3    0    0  0.11033336896E+02 -0.65792830865E+01 -0.32815136513E+01  0.13258575380E+02  0.51100000000E-03 0.  1.
         12    1    3    3    0    0 -0.21203426310E+01 -0.18324810986E+02  0.12782160071E+02  0.22442775377E+02  0.00000000000E+00 0. -1.
</event>
<event>
 7    1  0.5487071E-013  0.5052890E+02  0.7816164E-02  0.1300439E+00
        -11   -1    0    0    0    0  0.00000000000E+00  0.00000000000E+00  0.45593999997E+02  0.45594000000E+02  0.51100000000E-03 0.  1.
         11   -1    0    0    0    0 -0.00000000000E+00 -0.00000000000E+00 -0.45593999997E+02  0.45594000000E+02  0.51100000000E-03 0. -1.
    9900012    2    1    2    0    0  0.13953350267E+02 -0.37797346043E+02 -0.54614195020E+01  0.50528899487E+02  0.30000120481E+02 0.  0.
        -12    1    1    2    0    0 -0.13953350267E+02  0.37797346043E+02  0.54614195020E+01  0.40659100513E+02  0.00000000000E+00 0.  1.
         11    1    3    3    0    0  0.14055171241E+02 -0.25407906519E+02 -0.52600135639E+01  0.29508935854E+02  0.51100000000E-03 0. -1.
        -11    1    3    3    0    0  0.39793996019E+01 -0.81996679079E+01  0.71795916203E+01  0.11602444186E+02  0.51100000000E-03 0.  1.
        -12    1    3    3    0    0 -0.40812205762E+01 -0.41897716157E+01 -0.73809975584E+01  0.94175194473E+01  0.00000000000E+00 0.  1.
</event>
<event>
 7    1  0.5487071E-013  0.5052885E+02  0.7816164E-02  0.1300439E+00
        -11   -1    0    0    0    0  0.00000000000E+00  0.00000000000E+00  0.45593999997E+02  0.45594000000E+02  0.51100000000E-03 0.  1.
         11   -1    0    0    0    0 -0.00000000000E+00 -0.00000000000E+00 -0.45593999997E+02  0.45594000000E+02  0.51100000000E-03 0. -1.
    9900012    2    1    2    0    0  0.95336094797E+01  0.11617377122E+01 -0.39508575361E+02  0.50528845172E+02  0.29999955386E+02 0.  0.
        -12    1    1    2    0    0 -0.95336094797E+01 -0.11617377122E+01  0.39508575361E+02  0.40659154828E+02  0.00000000000E+00 0.  1.
         11    1    3    3    0    0 -0.17901915307E+01  0.15005394172E+01 -0.17800332381E+01  0.29368218960E+01  0.51100000000E-03 0. -1.
        -11    1    3    3    0    0  0.14719766721E+02 -0.37784134855E+01 -0.74404086209E+01  0.16920627101E+02  0.51100000000E-03 0.  1.
         12    1    3    3    0    0 -0.33959657104E+01  0.34396117805E+01 -0.30288133502E+02  0.30671396175E+02  0.00000000000E+00 0. -1.
</event>
<event>
 7    1  0.5487071E-013  0.5052887E+02  0.7816164E-02  0.1300439E+00
        -11   -1    0    0    0    0  0.00000000000E+00  0.00000000000E+00  0.45593999997E+02  0.45594000000E+02  0.51100000000E-03 0.  1.
         11   -1    0    0    0    0 -0.00000000000E+00 -0.00000000000E+00 -0.45593999997E+02  0.45594000000E+02  0.51100000000E-03 0. -1.
    9900012    2    1    2    0    0 -0.23315877563E+02 -0.63795088702E+01 -0.32693064001E+02  0.50528871705E+02  0.30000036033E+02 0.  0.
        -12    1    1    2    0    0  0.23315877563E+02  0.63795088702E+01  0.32693064001E+02  0.40659128295E+02  0.00000000000E+00 0.  1.
         11    1    3    3    0    0 -0.66203297573E+01  0.56490169214E+01 -0.40524474083E+01  0.96001296102E+01  0.51100000000E-03 0. -1.
        -11    1    3    3    0    0  0.13645436455E+01  0.23250513106E+00  0.25245931645E+01  0.28791680923E+01  0.51100000000E-03 0.  1.
         12    1    3    3    0    0 -0.18060091452E+02 -0.12261030923E+02 -0.31165209757E+02  0.38049574002E+02  0.00000000000E+00 0. -1.
</event>
<event>
 7    1  0.5487071E-013  0.5052886E+02  0.7816164E-02  0.1300439E+00
        -11   -1    0    0    0    0  0.00000000000E+00  0.00000000000E+00  0.45593999997E+02  0.45594000000E+02  0.51100000000E-03 0.  1.
         11   -1    0    0    0    0 -0.00000000000E+00 -0.00000000000E+00 -0.45593999997E+02  0.45594000000E+02  0.51100000000E-03 0. -1.
    9900012    2    1    2    0    0 -0.17007369652E+02 -0.32517335902E+01 -0.36787786073E+02  0.50528860831E+02  0.30000002981E+02 0.  0.
        -12    1    1    2    0    0  0.17007369652E+02  0.32517335902E+01  0.36787786073E+02  0.40659139169E+02  0.00000000000E+00 0.  1.
         11    1    3    3    0    0 -0.20176157184E+02  0.88000121806E-01 -0.24140841587E+02  0.31462124778E+02  0.51100000000E-03 0. -1.
        -11    1    3    3    0    0 -0.41216714225E+01  0.23939704957E+01 -0.27496276134E+01  0.55027013659E+01  0.51100000000E-03 0.  1.
         12    1    3    3    0    0  0.72904589547E+01 -0.57337042077E+01 -0.98973168727E+01  0.13564034687E+02  0.00000000000E+00 0. -1.
</event>
<event>
 7    1  0.5487071E-013  0.5052886E+02  0.7816164E-02  0.1300439E+00
        -11   -1    0    0    0    0  0.00000000000E+00  0.00000000000E+00  0.45593999997E+02  0.45594000000E+02  0.51100000000E-03 0. -1.
         11   -1    0    0    0    0 -0.00000000000E+00 -0.00000000000E+00 -0.45593999997E+02  0.45594000000E+02  0.51100000000E-03 0.  1.
    9900012    2    1    2    0    0  0.30807696858E+02 -0.26276176510E+02 -0.36897289062E+01  0.50528859120E+02  0.29999997781E+02 0.  0.
        -12    1    1    2    0    0 -0.30807696858E+02  0.26276176510E+02  0.36897289062E+01  0.40659140880E+02  0.00000000000E+00 0.  1.
         11    1    3    3    0    0  0.12254510636E+02 -0.25348708549E+01 -0.11609709222E+01  0.12567675001E+02  0.51100000000E-03 0. -1.
        -11    1    3    3    0    0  0.17544983261E+02 -0.81929434560E+01  0.59050764917E+01  0.20244028471E+02  0.51100000000E-03 0.  1.
        -12    1    3    3    0    0  0.10082029605E+01 -0.15548362199E+02 -0.84338344757E+01  0.17717155648E+02  0.00000000000E+00 0.  1.
</event>
<event>
 7    1  0.5487071E-013  0.5052885E+02  0.7816164E-02  0.1300439E+00
        -11   -1    0    0    0    0  0.00000000000E+00  0.00000000000E+00  0.45593999997E+02  0.45594000000E+02  0.51100000000E-03 0.  1.
         11   -1    0    0    0    0 -0.00000000000E+00 -0.00000000000E+00 -0.45593999997E+02  0.45594000000E+02  0.51100000000E-03 0. -1.
    9900012    2    1    2    0    0  0.17320603302E+02 -0.25265404918E+02 -0.26736170104E+02  0.50528846341E+02  0.29999958939E+02 0.  0.
        -12    1    1    2    0    0 -0.17320603302E+02  0.25265404918E+02  0.26736170104E+02  0.40659153659E+02  0.00000000000E+00 0.  1.
         11    1    3    3    0    0  0.13175232947E+01 -0.16783133104E+02 -0.20386452046E+02  0.26438926826E+02  0.51100000000E-03 0. -1.
        -11    1    3    3    0    0  0.38764057648E+01  0.40874108402E+01 -0.43577636959E+00  0.56500752504E+01  0.51100000000E-03 0.  1.
         12    1    3    3    0    0  0.12126674243E+02 -0.12569682655E+02 -0.59139416880E+01  0.18439844265E+02  0.00000000000E+00 0. -1.
</event>
<event>
 7    1  0.5487071E-013  0.5052888E+02  0.7816164E-02  0.1300439E+00
        -11   -1    0    0    0    0  0.00000000000E+00  0.00000000000E+00  0.45593999997E+02  0.45594000000E+02  0.51100000000E-03 0.  1.
         11   -1    0    0    0    0 -0.00000000000E+00 -0.00000000000E+00 -0.45593999997E+02  0.45594000000E+02  0.51100000000E-03 0. -1.
    9900012    2    1    2    0    0  0.23523437913E+02 -0.29098269734E+00 -0.33162139575E+02  0.50528876751E+02  0.30000051372E+02 0.  0.
        -12    1    1    2    0    0 -0.23523437913E+02  0.29098269734E+00  0.33162139575E+02  0.40659123249E+02  0.00000000000E+00 0.  1.
         11    1    3    3    0    0  0.93964915457E+01 -0.21781193390E+01 -0.30416208320E+02  0.31908995378E+02  0.51100000000E-03 0. -1.
        -11    1    3    3    0    0 -0.12507946855E+01  0.39142084428E+00 -0.28852216085E+01  0.31689432961E+01  0.51100000000E-03 0.  1.
        -12    1    3    3    0    0  0.15377741053E+02  0.14957157974E+01  0.13929035306E+00  0.15450938077E+02  0.00000000000E+00 0.  1.
</event>
<event>
 7    1  0.5487071E-013  0.5052887E+02  0.7816164E-02  0.1300439E+00
        -11   -1    0    0    0    0  0.00000000000E+00  0.00000000000E+00  0.45593999997E+02  0.45594000000E+02  0.51100000000E-03 0.  1.
         11   -1    0    0    0    0 -0.00000000000E+00 -0.00000000000E+00 -0.45593999997E+02  0.45594000000E+02  0.51100000000E-03 0. -1.
    9900012    2    1    2    0    0 -0.15418400762E+02 -0.28232919556E+01 -0.37516225485E+02  0.50528865305E+02  0.30000016580E+02 0.  0.
        -12    1    1    2    0    0  0.15418400762E+02  0.28232919556E+01  0.37516225485E+02  0.40659134695E+02  0.00000000000E+00 0.  1.
         11    1    3    3    0    0 -0.13374911011E+01 -0.31616923384E+01 -0.94424761588E+00  0.35604472625E+01  0.51100000000E-03 0. -1.
        -11    1    3    3    0    0 -0.10940154362E+01 -0.38451232915E+01  0.30723145757E+01  0.50419202705E+01  0.51100000000E-03 0.  1.
         12    1    3    3    0    0 -0.12986894224E+02  0.41835236742E+01 -0.39644292445E+02  0.41926497772E+02  0.00000000000E+00 0. -1.
</event>
<event>
 7    1  0.5487071E-013  0.5052884E+02  0.7816164E-02  0.1300439E+00
        -11   -1    0    0    0    0  0.00000000000E+00  0.00000000000E+00  0.45593999997E+02  0.45594000000E+02  0.51100000000E-03 0.  1.
         11   -1    0    0    0    0 -0.00000000000E+00 -0.00000000000E+00 -0.45593999997E+02  0.45594000000E+02  0.51100000000E-03 0. -1.
    9900012    2    1    2    0    0  0.15515373186E+02 -0.37194064494E+02 -0.53890926112E+01  0.50528836730E+02  0.29999929724E+02 0.  0.
        -12    1    1    2    0    0 -0.15515373186E+02  0.37194064494E+02  0.53890926112E+01  0.40659163270E+02  0.00000000000E+00 0.  1.
         11    1    3    3    0    0  0.56023350411E+01 -0.70376271859E+01 -0.36143442832E+01  0.96942167904E+01  0.51100000000E-03 0. -1.
        -11    1    3    3    0    0  0.14527481629E+02 -0.10106556843E+02  0.62249434114E+01  0.18760067548E+02  0.51100000000E-03 0.  1.
        -12    1    3    3    0    0 -0.46144434838E+01 -0.20049880465E+02 -0.79996917395E+01  0.22074552391E+02  0.00000000000E+00 0.  1.
</event>
<event>
 7    1  0.5487071E-013  0.5052886E+02  0.7816164E-02  0.1300439E+00
        -11   -1    0    0    0    0  0.00000000000E+00  0.00000000000E+00  0.45593999997E+02  0.45594000000E+02  0.51100000000E-03 0.  1.
         11   -1    0    0    0    0 -0.00000000000E+00 -0.00000000000E+00 -0.45593999997E+02  0.45594000000E+02  0.51100000000E-03 0. -1.
    9900012    2    1    2    0    0 -0.32647018079E+02  0.16244786314E+02 -0.17984578294E+02  0.50528856769E+02  0.29999990636E+02 0.  0.
        -12    1    1    2    0    0  0.32647018079E+02 -0.16244786314E+02  0.17984578294E+02  0.40659143231E+02  0.00000000000E+00 0.  1.
         11    1    3    3    0    0 -0.16585137617E+02  0.28591811936E+01 -0.32987027801E+01  0.17150018868E+02  0.51100000000E-03 0. -1.
        -11    1    3    3    0    0  0.40085136367E+00 -0.50381806840E+01 -0.10630916643E+01  0.51646984973E+01  0.51100000000E-03 0.  1.
         12    1    3    3    0    0 -0.16462731826E+02  0.18423785804E+02 -0.13622783849E+02  0.28214139404E+02  0.00000000000E+00 0. -1.
</event>
<event>
 7    1  0.5487071E-013  0.5052886E+02  0.7816164E-02  0.1300439E+00
        -11   -1    0    0    0    0  0.00000000000E+00  0.00000000000E+00  0.45593999997E+02  0.45594000000E+02  0.51100000000E-03 0.  1.
         11   -1    0    0    0    0 -0.00000000000E+00 -0.00000000000E+00 -0.45593999997E+02  0.45594000000E+02  0.51100000000E-03 0. -1.
    9900012    2    1    2    0    0  0.95705880096E+00 -0.26084815678E+02 -0.31174221396E+02  0.50528860189E+02  0.30000001031E+02 0.  0.
        -12    1    1    2    0    0 -0.95705880096E+00  0.26084815678E+02  0.31174221396E+02  0.40659139811E+02  0.00000000000E+00 0.  1.
         11    1    3    3    0    0 -0.29023452268E+01 -0.12638447177E+02 -0.19912161101E+02  0.23762325535E+02  0.51100000000E-03 0. -1.
        -11    1    3    3    0    0  0.10120871270E+02 -0.55848319245E+01 -0.12034082271E+02  0.16686567030E+02  0.51100000000E-03 0.  1.
        -12    1    3    3    0    0 -0.62614672425E+01 -0.78615365761E+01  0.77202197533E+00  0.10079967624E+02  0.00000000000E+00 0.  1.
</event>
<event>
 7    1  0.5487071E-013  0.5052885E+02  0.7816164E-02  0.1300439E+00
        -11   -1    0    0    0    0  0.00000000000E+00  0.00000000000E+00  0.45593999997E+02  0.45594000000E+02  0.51100000000E-03 0.  1.
         11   -1    0    0    0    0 -0.00000000000E+00 -0.00000000000E+00 -0.45593999997E+02  0.45594000000E+02  0.51100000000E-03 0. -1.
    9900012    2    1    2    0    0 -0.23857402991E+02  0.28116338323E+02 -0.17130742068E+02  0.50528849960E+02  0.29999969938E+02 0.  0.
        -12    1    1    2    0    0  0.23857402991E+02 -0.28116338323E+02  0.17130742068E+02  0.40659150040E+02  0.00000000000E+00 0.  1.
         11    1    3    3    0    0 -0.13539318338E+02  0.11319590738E+02 -0.12764415970E+02  0.21780188035E+02  0.51100000000E-03 0. -1.
        -11    1    3    3    0    0 -0.10304119392E+02  0.11318760850E+01 -0.74726645163E+01  0.12778761096E+02  0.51100000000E-03 0.  1.
        -12    1    3    3    0    0 -0.13965261429E-01  0.15664871500E+02  0.31063384174E+01  0.15969900829E+02  0.00000000000E+00 0.  1.
</event>
<event>
 7    1  0.5487071E-013  0.5052886E+02  0.7816164E-02  0.1300439E+00
        -11   -1    0    0    0    0  0.00000000000E+00  0.00000000000E+00  0.45593999997E+02  0.45594000000E+02  0.51100000000E-03 0. -1.
         11   -1    0    0    0    0 -0.00000000000E+00 -0.00000000000E+00 -0.45593999997E+02  0.45594000000E+02  0.51100000000E-03 0.  1.
    9900012    2    1    2    0    0 -0.11210192477E+02  0.15086222941E+02  0.36054166423E+02  0.50528862596E+02  0.30000008346E+02 0.  0.
        -12    1    1    2    0    0  0.11210192477E+02 -0.15086222941E+02 -0.36054166423E+02  0.40659137404E+02  0.00000000000E+00 0.  1.
         11    1    3    3    0    0 -0.99320499705E+01  0.26433085194E+01  0.44875544423E+01  0.11214759992E+02  0.51100000000E-03 0.  1.
        -11    1    3    3    0    0 -0.65422882603E+01  0.94215232234E+01  0.58211166820E+01  0.12862815991E+02  0.51100000000E-03 0. -1.
         12    1    3    3    0    0  0.52641457533E+01  0.30213911981E+01  0.25745495299E+02  0.26451286613E+02  0.00000000000E+00 0. -1.
</event>
<event>
 7    1  0.5487071E-013  0.5052887E+02  0.7816164E-02  0.1300439E+00
        -11   -1    0    0    0    0  0.00000000000E+00  0.00000000000E+00  0.45593999997E+02  0.45594000000E+02  0.51100000000E-03 0. -1.
         11   -1    0    0    0    0 -0.00000000000E+00 -0.00000000000E+00 -0.45593999997E+02  0.45594000000E+02  0.51100000000E-03 0.  1.
    9900012    2    1    2    0    0  0.31794939180E+02 -0.10648930572E+02  0.22996679435E+02  0.50528866403E+02  0.30000019919E+02 0.  0.
        -12    1    1    2    0    0 -0.31794939180E+02  0.10648930572E+02 -0.22996679435E+02  0.40659133597E+02  0.00000000000E+00 0.  1.
         11    1    3    3    0    0  0.72364872678E+01 -0.63793307080E+01  0.98502763877E+01  0.13787333079E+02  0.51100000000E-03 0. -1.
        -11    1    3    3    0    0  0.15145505910E+02 -0.13855630295E+02  0.10468258578E+02  0.23042336645E+02  0.51100000000E-03 0.  1.
         12    1    3    3    0    0  0.94129460023E+01  0.95860304305E+01  0.26781444693E+01  0.13699196679E+02  0.00000000000E+00 0. -1.
</event>
<event>
 7    1  0.5487071E-013  0.5052885E+02  0.7816164E-02  0.1300439E+00
        -11   -1    0    0    0    0  0.00000000000E+00  0.00000000000E+00  0.45593999997E+02  0.45594000000E+02  0.51100000000E-03 0.  1.
         11   -1    0    0    0    0 -0.00000000000E+00 -0.00000000000E+00 -0.45593999997E+02  0.45594000000E+02  0.51100000000E-03 0. -1.
    9900012    2    1    2    0    0 -0.22951248235E+02 -0.13317029241E+01 -0.33535554952E+02  0.50528847597E+02  0.29999962755E+02 0.  0.
        -12    1    1    2    0    0  0.22951248235E+02  0.13317029241E+01  0.33535554952E+02  0.40659152403E+02  0.00000000000E+00 0.  1.
         11    1    3    3    0    0 -0.30472312744E+01 -0.39744814689E+01 -0.69808101885E+01  0.85914976887E+01  0.51100000000E-03 0. -1.
        -11    1    3    3    0    0  0.34549638745E+01 -0.48058588858E+01 -0.17244796992E+00  0.59213844300E+01  0.51100000000E-03 0.  1.
         12    1    3    3    0    0 -0.23358980835E+02  0.74486374305E+01 -0.26382296793E+02  0.36015965478E+02  0.00000000000E+00 0. -1.
</event>
<event>
 7    1  0.5487071E-013  0.5052891E+02  0.7816164E-02  0.1300439E+00
        -11   -1    0    0    0    0  0.00000000000E+00  0.00000000000E+00  0.45593999997E+02  0.45594000000E+02  0.51100000000E-03 0.  1.
         11   -1    0    0    0    0 -0.00000000000E+00 -0.00000000000E+00 -0.45593999997E+02  0.45594000000E+02  0.51100000000E-03 0. -1.
    9900012    2    1    2    0    0  0.34727825732E+02  0.13606923815E+01 -0.21101854939E+02  0.50528909433E+02  0.30000150713E+02 0.  0.
        -12    1    1    2    0    0 -0.34727825732E+02 -0.13606923815E+01  0.21101854939E+02  0.40659090567E+02  0.00000000000E+00 0.  1.
         11    1    3    3    0    0  0.21590620460E+02 -0.11051777027E+02 -0.15815257020E+02  0.28955466188E+02  0.51100000000E-03 0. -1.
        -11    1    3    3    0    0 -0.13326786653E+01  0.35942432985E+01 -0.19579494676E+01  0.43044376744E+01  0.51100000000E-03 0.  1.
        -12    1    3    3    0    0  0.14469883937E+02  0.88182261097E+01 -0.33286484513E+01  0.17269005571E+02  0.00000000000E+00 0.  1.
</event>
<event>
 7    1  0.5487071E-013  0.5052885E+02  0.7816164E-02  0.1300439E+00
        -11   -1    0    0    0    0  0.00000000000E+00  0.00000000000E+00  0.45593999997E+02  0.45594000000E+02  0.51100000000E-03 0.  1.
         11   -1    0    0    0    0 -0.00000000000E+00 -0.00000000000E+00 -0.45593999997E+02  0.45594000000E+02  0.51100000000E-03 0. -1.
    9900012    2    1    2    0    0  0.23130048353E+02  0.27464625000E+02 -0.19075149438E+02  0.50528854789E+02  0.29999984617E+02 0.  0.
        -12    1    1    2    0    0 -0.23130048353E+02 -0.27464625000E+02  0.19075149438E+02  0.40659145211E+02  0.00000000000E+00 0.  1.
         11    1    3    3    0    0  0.18424533097E+02  0.67837321358E+01 -0.10598081844E+02  0.22311471950E+02  0.51100000000E-03 0. -1.
        -11    1    3    3    0    0  0.58067720670E+01  0.47294061171E+00 -0.50114668662E+01  0.76848601205E+01  0.51100000000E-03 0.  1.
         12    1    3    3    0    0 -0.11012568110E+01  0.20207952252E+02 -0.34656007285E+01  0.20532522719E+02  0.00000000000E+00 0. -1.
</event>
<event>
 7    1  0.5487071E-013  0.5052886E+02  0.7816164E-02  0.1300439E+00
        -11   -1    0    0    0    0  0.00000000000E+00  0.00000000000E+00  0.45593999997E+02  0.45594000000E+02  0.51100000000E-03 0.  1.
         11   -1    0    0    0    0 -0.00000000000E+00 -0.00000000000E+00 -0.45593999997E+02  0.45594000000E+02  0.51100000000E-03 0. -1.
    9900012    2    1    2    0    0 -0.26369260975E+02 -0.30589243827E+02 -0.47037759309E+01  0.50528864861E+02  0.30000015230E+02 0.  0.
        -12    1    1    2    0    0  0.26369260975E+02  0.30589243827E+02  0.47037759309E+01  0.40659135139E+02  0.00000000000E+00 0.  1.
         11    1    3    3    0    0  0.12141824513E+01 -0.14359782285E+01 -0.18116446442E+01  0.26111930369E+01  0.51100000000E-03 0. -1.
        -11    1    3    3    0    0 -0.30102438620E+00  0.50181957793E+00 -0.73524780726E+01  0.73757286175E+01  0.51100000000E-03 0.  1.
         12    1    3    3    0    0 -0.27282419040E+02 -0.29655085177E+02  0.44603467859E+01  0.40541943206E+02  0.00000000000E+00 0. -1.
</event>
<event>
 7    1  0.5487071E-013  0.5052886E+02  0.7816164E-02  0.1300439E+00
        -11   -1    0    0    0    0  0.00000000000E+00  0.00000000000E+00  0.45593999997E+02  0.45594000000E+02  0.51100000000E-03 0. -1.
         11   -1    0    0    0    0 -0.00000000000E+00 -0.00000000000E+00 -0.45593999997E+02  0.45594000000E+02  0.51100000000E-03 0.  1.
    9900012    2    1    2    0    0  0.25045587474E+02  0.16496276404E+02  0.27454643157E+02  0.50528855666E+02  0.29999987282E+02 0.  0.
        -12    1    1    2    0    0 -0.25045587474E+02 -0.16496276404E+02 -0.27454643157E+02  0.40659144334E+02  0.00000000000E+00 0.  1.
         11    1    3    3    0    0  0.84051242757E+01  0.58141348426E+01  0.11618957479E+02  0.15474186610E+02  0.51100000000E-03 0. -1.
        -11    1    3    3    0    0  0.97911728908E+00  0.77994388791E+01  0.17360693249E+02  0.19057376206E+02  0.51100000000E-03 0.  1.
         12    1    3    3    0    0  0.15661345909E+02  0.28827026822E+01 -0.15250075722E+01  0.15997292850E+02  0.00000000000E+00 0. -1.
</event>
<event>
 7    1  0.5487071E-013  0.5052886E+02  0.7816164E-02  0.1300439E+00
        -11   -1    0    0    0    0  0.00000000000E+00  0.00000000000E+00  0.45593999997E+02  0.45594000000E+02  0.51100000000E-03 0.  1.
         11   -1    0    0    0    0 -0.00000000000E+00 -0.00000000000E+00 -0.45593999997E+02  0.45594000000E+02  0.51100000000E-03 0. -1.
    9900012    2    1    2    0    0 -0.25591298706E+02  0.20067870920E+02 -0.24403521448E+02  0.50528857463E+02  0.29999992746E+02 0.  0.
        -12    1    1    2    0    0  0.25591298706E+02 -0.20067870920E+02  0.24403521448E+02  0.40659142537E+02  0.00000000000E+00 0.  1.
         11    1    3    3    0    0 -0.12661670852E+02  0.61134792376E+00 -0.18059925782E+02  0.22064735996E+02  0.51100000000E-03 0. -1.
        -11    1    3    3    0    0  0.12054596176E+01 -0.10345365258E+01 -0.29364450524E+01  0.33385788173E+01  0.51100000000E-03 0.  1.
        -12    1    3    3    0    0 -0.14135087472E+02  0.20491059522E+02 -0.34071506139E+01  0.25125542651E+02  0.00000000000E+00 0.  1.
</event>
<event>
 7    1  0.5487071E-013  0.5052886E+02  0.7816164E-02  0.1300439E+00
        -11   -1    0    0    0    0  0.00000000000E+00  0.00000000000E+00  0.45593999997E+02  0.45594000000E+02  0.51100000000E-03 0. -1.
         11   -1    0    0    0    0 -0.00000000000E+00 -0.00000000000E+00 -0.45593999997E+02  0.45594000000E+02  0.51100000000E-03 0.  1.
    9900012    2    1    2    0    0  0.15262682418E+02 -0.36069064798E+02 -0.10919636586E+02  0.50528863595E+02  0.30000011384E+02 0.  0.
        -12    1    1    2    0    0 -0.15262682418E+02  0.36069064798E+02  0.10919636586E+02  0.40659136405E+02  0.00000000000E+00 0.  1.
         11    1    3    3    0    0  0.94537467477E+01 -0.16213532039E+02  0.23152441911E+01  0.18910639986E+02  0.51100000000E-03 0. -1.
        -11    1    3    3    0    0  0.31664835604E+01 -0.47955335773E+01  0.51426674436E+01  0.77117306181E+01  0.51100000000E-03 0.  1.
        -12    1    3    3    0    0  0.26424521095E+01 -0.15059999182E+02 -0.18377548221E+02  0.23906492991E+02  0.00000000000E+00 0.  1.
</event>
<event>
 7    1  0.5487071E-013  0.5052886E+02  0.7816164E-02  0.1300439E+00
        -11   -1    0    0    0    0  0.00000000000E+00  0.00000000000E+00  0.45593999997E+02  0.45594000000E+02  0.51100000000E-03 0.  1.
         11   -1    0    0    0    0 -0.00000000000E+00 -0.00000000000E+00 -0.45593999997E+02  0.45594000000E+02  0.51100000000E-03 0. -1.
    9900012    2    1    2    0    0 -0.62674311188E+01 -0.20568706656E+02 -0.34508163099E+02  0.50528859493E+02  0.29999998915E+02 0.  0.
        -12    1    1    2    0    0  0.62674311188E+01  0.20568706656E+02  0.34508163099E+02  0.40659140507E+02  0.00000000000E+00 0.  1.
         11    1    3    3    0    0 -0.24618166518E+01 -0.11852224859E+02 -0.29772581001E+02  0.32139420577E+02  0.51100000000E-03 0. -1.
        -11    1    3    3    0    0  0.33840563911E+01  0.93578195491E+00  0.25328430702E+01  0.43292978420E+01  0.51100000000E-03 0.  1.
        -12    1    3    3    0    0 -0.71896708581E+01 -0.96522637518E+01 -0.72684251684E+01  0.14060141074E+02  0.00000000000E+00 0.  1.
</event>
<event>
 7    1  0.5487071E-013  0.5052886E+02  0.7816164E-02  0.1300439E+00
        -11   -1    0    0    0    0  0.00000000000E+00  0.00000000000E+00  0.45593999997E+02  0.45594000000E+02  0.51100000000E-03 0.  1.
         11   -1    0    0    0    0 -0.00000000000E+00 -0.00000000000E+00 -0.45593999997E+02  0.45594000000E+02  0.51100000000E-03 0. -1.
    9900012    2    1    2    0    0 -0.35358782171E+02 -0.19384740231E+02  0.52109484525E+01  0.50528860631E+02  0.30000002375E+02 0.  0.
        -12    1    1    2    0    0  0.35358782171E+02  0.19384740231E+02 -0.52109484525E+01  0.40659139369E+02  0.00000000000E+00 0.  1.
         11    1    3    3    0    0 -0.25378457542E+02 -0.88447292852E+01  0.21632856398E+00  0.26876423528E+02  0.51100000000E-03 0. -1.
        -11    1    3    3    0    0 -0.91491018846E+01 -0.50384412738E+01  0.11202329170E+02  0.15316139686E+02  0.51100000000E-03 0.  1.
        -12    1    3    3    0    0 -0.83122274390E+00 -0.55015696721E+01 -0.62077092819E+01  0.83362974177E+01  0.00000000000E+00 0.  1.
</event>
<event>
 7    1  0.5487071E-013  0.5052886E+02  0.7816164E-02  0.1300439E+00
        -11   -1    0    0    0    0  0.00000000000E+00  0.00000000000E+00  0.45593999997E+02  0.45594000000E+02  0.51100000000E-03 0. -1.
         11   -1    0    0    0    0 -0.00000000000E+00 -0.00000000000E+00 -0.45593999997E+02  0.45594000000E+02  0.51100000000E-03 0.  1.
    9900012    2    1    2    0    0  0.36053921551E+02 -0.89205445839E+01  0.16544009876E+02  0.50528860343E+02  0.30000001498E+02 0.  0.
        -12    1    1    2    0    0 -0.36053921551E+02  0.89205445839E+01 -0.16544009876E+02  0.40659139657E+02  0.00000000000E+00 0.  1.
         11    1    3    3    0    0  0.14653262342E+02 -0.14311815821E+02  0.20715152523E+01  0.20587310292E+02  0.51100000000E-03 0. -1.
        -11    1    3    3    0    0  0.11562371321E+02 -0.43396841064E+01  0.61889817319E+01  0.13813934408E+02  0.51100000000E-03 0.  1.
        -12    1    3    3    0    0  0.98382878884E+01  0.97309553435E+01  0.82835128921E+01  0.16127615642E+02  0.00000000000E+00 0.  1.
</event>
<event>
 7    1  0.5487071E-013  0.5052886E+02  0.7816164E-02  0.1300439E+00
        -11   -1    0    0    0    0  0.00000000000E+00  0.00000000000E+00  0.45593999997E+02  0.45594000000E+02  0.51100000000E-03 0. -1.
         11   -1    0    0    0    0 -0.00000000000E+00 -0.00000000000E+00 -0.45593999997E+02  0.45594000000E+02  0.51100000000E-03 0.  1.
    9900012    2    1    2    0    0  0.30285950277E+02 -0.27121975915E+02 -0.57047437012E+00  0.50528858313E+02  0.29999995328E+02 0.  0.
        -12    1    1    2    0    0 -0.30285950277E+02  0.27121975915E+02  0.57047437012E+00  0.40659141687E+02  0.00000000000E+00 0.  1.
         11    1    3    3    0    0  0.33724811941E+00 -0.42437494603E+00  0.72045021932E+00  0.90159811918E+00  0.51100000000E-03 0. -1.
        -11    1    3    3    0    0  0.22894714732E+01  0.24162318457E+01  0.77761099468E+01  0.84585898425E+01  0.51100000000E-03 0.  1.
         12    1    3    3    0    0  0.27659230684E+02 -0.29113832815E+02 -0.90670345362E+01  0.41168670351E+02  0.00000000000E+00 0. -1.
</event>
<event>
 7    1  0.5487071E-013  0.5052885E+02  0.7816164E-02  0.1300439E+00
        -11   -1    0    0    0    0  0.00000000000E+00  0.00000000000E+00  0.45593999997E+02  0.45594000000E+02  0.51100000000E-03 0. -1.
         11   -1    0    0    0    0 -0.00000000000E+00 -0.00000000000E+00 -0.45593999997E+02  0.45594000000E+02  0.51100000000E-03 0.  1.
    9900012    2    1    2    0    0  0.36650957161E+02  0.16447206887E+02  0.62739887964E+01  0.50528853297E+02  0.29999980082E+02 0.  0.
        -12    1    1    2    0    0 -0.36650957161E+02 -0.16447206887E+02 -0.62739887964E+01  0.40659146703E+02  0.00000000000E+00 0.  1.
         11    1    3    3    0    0 -0.96317948067E+00 -0.44746551337E+01  0.18247748200E+00  0.45807806726E+01  0.51100000000E-03 0. -1.
        -11    1    3    3    0    0  0.65200368518E+01 -0.20490166290E+01  0.16838230635E+01  0.70387932250E+01  0.51100000000E-03 0.  1.
         12    1    3    3    0    0  0.31094099790E+02  0.22970878650E+02  0.44076882509E+01  0.38909279400E+02  0.00000000000E+00 0. -1.
</event>
<event>
 7    1  0.5487071E-013  0.5052892E+02  0.7816164E-02  0.1300439E+00
        -11   -1    0    0    0    0  0.00000000000E+00  0.00000000000E+00  0.45593999997E+02  0.45594000000E+02  0.51100000000E-03 0. -1.
         11   -1    0    0    0    0 -0.00000000000E+00 -0.00000000000E+00 -0.45593999997E+02  0.45594000000E+02  0.51100000000E-03 0.  1.
    9900012    2    1    2    0    0  0.16252598474E+02  0.31785813839E+02  0.19459602548E+02  0.50528916760E+02  0.30000172983E+02 0.  0.
        -12    1    1    2    0    0 -0.16252598474E+02 -0.31785813839E+02 -0.19459602548E+02  0.40659083240E+02  0.00000000000E+00 0.  1.
         11    1    3    3    0    0  0.20473858635E+01  0.27164087644E+02  0.80586221356E+01  0.28408112176E+02  0.51100000000E-03 0. -1.
        -11    1    3    3    0    0 -0.18259997158E+01  0.15922962200E+01  0.27111568210E+01  0.36359391887E+01  0.51100000000E-03 0.  1.
        -12    1    3    3    0    0  0.16031212327E+02  0.30294299750E+01  0.86898235917E+01  0.18484865396E+02  0.00000000000E+00 0.  1.
</event>
<event>
 7    1  0.5487071E-013  0.5052881E+02  0.7816164E-02  0.1300439E+00
        -11   -1    0    0    0    0  0.00000000000E+00  0.00000000000E+00  0.45593999997E+02  0.45594000000E+02  0.51100000000E-03 0. -1.
         11   -1    0    0    0    0 -0.00000000000E+00 -0.00000000000E+00 -0.45593999997E+02  0.45594000000E+02  0.51100000000E-03 0.  1.
    9900012    2    1    2    0    0  0.36362292726E+02  0.27706094910E+01  0.17979903519E+02  0.50528812357E+02  0.29999855639E+02 0.  0.
        -12    1    1    2    0    0 -0.36362292726E+02 -0.27706094910E+01 -0.17979903519E+02  0.40659187643E+02  0.00000000000E+00 0.  1.
         11    1    3    3    0    0  0.42511021798E+01  0.51052963992E+01  0.32727584398E+00  0.66515434905E+01  0.51100000000E-03 0. -1.
        -11    1    3    3    0    0  0.89951325165E+01  0.18595804597E+01 -0.56526228206E+01  0.10785295243E+02  0.51100000000E-03 0.  1.
        -12    1    3    3    0    0  0.23116058030E+02 -0.41942673679E+01  0.23305250496E+02  0.33091973623E+02  0.00000000000E+00 0.  1.
</event>
<event>
 7    1  0.5487071E-013  0.5052886E+02  0.7816164E-02  0.1300439E+00
        -11   -1    0    0    0    0  0.00000000000E+00  0.00000000000E+00  0.45593999997E+02  0.45594000000E+02  0.51100000000E-03 0.  1.
         11   -1    0    0    0    0 -0.00000000000E+00 -0.00000000000E+00 -0.45593999997E+02  0.45594000000E+02  0.51100000000E-03 0. -1.
    9900012    2    1    2    0    0 -0.19513785799E+02 -0.21212701552E+02 -0.28677508605E+02  0.50528855357E+02  0.29999986343E+02 0.  0.
        -12    1    1    2    0    0  0.19513785799E+02  0.21212701552E+02  0.28677508605E+02  0.40659144643E+02  0.00000000000E+00 0.  1.
         11    1    3    3    0    0 -0.20048845130E+02 -0.19726862292E+02 -0.22440512643E+02  0.35981688327E+02  0.51100000000E-03 0. -1.
        -11    1    3    3    0    0  0.16402432036E+01 -0.21923482341E+01 -0.10101562271E+02  0.10466057000E+02  0.51100000000E-03 0.  1.
        -12    1    3    3    0    0 -0.11051838726E+01  0.70650897370E+00  0.38645663090E+01  0.40811100302E+01  0.00000000000E+00 0.  1.
</event>
<event>
 7    1  0.5487071E-013  0.5052886E+02  0.7816164E-02  0.1300439E+00
        -11   -1    0    0    0    0  0.00000000000E+00  0.00000000000E+00  0.45593999997E+02  0.45594000000E+02  0.51100000000E-03 0.  1.
         11   -1    0    0    0    0 -0.00000000000E+00 -0.00000000000E+00 -0.45593999997E+02  0.45594000000E+02  0.51100000000E-03 0. -1.
    9900012    2    1    2    0    0  0.34445085091E+02  0.15436824283E+02  0.15113102544E+02  0.50528864503E+02  0.30000014144E+02 0.  0.
        -12    1    1    2    0    0 -0.34445085091E+02 -0.15436824283E+02 -0.15113102544E+02  0.40659135497E+02  0.00000000000E+00 0.  1.
         11    1    3    3    0    0  0.72396515040E+00  0.24654023563E+01  0.66558845332E+01  0.71346431935E+01  0.51100000000E-03 0.  1.
        -11    1    3    3    0    0  0.82559827501E+01  0.32839943719E+01  0.13026504186E+02  0.15768185748E+02  0.51100000000E-03 0. -1.
         12    1    3    3    0    0  0.25465137190E+02  0.96874275546E+01 -0.45692861752E+01  0.27626035562E+02  0.00000000000E+00 0. -1.
</event>
<event>
 7    1  0.5487071E-013  0.5052887E+02  0.7816164E-02  0.1300439E+00
        -11   -1    0    0    0    0  0.00000000000E+00  0.00000000000E+00  0.45593999997E+02  0.45594000000E+02  0.51100000000E-03 0.  1.
         11   -1    0    0    0    0 -0.00000000000E+00 -0.00000000000E+00 -0.45593999997E+02  0.45594000000E+02  0.51100000000E-03 0. -1.
    9900012    2    1    2    0    0  0.93474405947E+01  0.23677527160E+02 -0.31704334252E+02  0.50528871278E+02  0.30000034737E+02 0.  0.
        -12    1    1    2    0    0 -0.93474405947E+01 -0.23677527160E+02  0.31704334252E+02  0.40659128722E+02  0.00000000000E+00 0.  1.
         11    1    3    3    0    0  0.11385408482E+02  0.43570126198E+01 -0.34826819910E+00  0.12195588394E+02  0.51100000000E-03 0. -1.
        -11    1    3    3    0    0 -0.21906404798E+00  0.26660971884E+01  0.11840733681E+00  0.26777012219E+01  0.51100000000E-03 0.  1.
         12    1    3    3    0    0 -0.18189038397E+01  0.16654417352E+02 -0.31474473390E+02  0.35655581662E+02  0.00000000000E+00 0. -1.
</event>
<event>
 7    1  0.5487071E-013  0.5052887E+02  0.7816164E-02  0.1300439E+00
        -11   -1    0    0    0    0  0.00000000000E+00  0.00000000000E+00  0.45593999997E+02  0.45594000000E+02  0.51100000000E-03 0.  1.
         11   -1    0    0    0    0 -0.00000000000E+00 -0.00000000000E+00 -0.45593999997E+02  0.45594000000E+02  0.51100000000E-03 0. -1.
    9900012    2    1    2    0    0 -0.19178102076E+02 -0.24649251088E+02 -0.26034209429E+02  0.50528865245E+02  0.30000016398E+02 0.  0.
        -12    1    1    2    0    0  0.19178102076E+02  0.24649251088E+02  0.26034209429E+02  0.40659134755E+02  0.00000000000E+00 0.  1.
         11    1    3    3    0    0 -0.13310032137E+01 -0.16533377610E+02 -0.86622208981E+01  0.18712514954E+02  0.51100000000E-03 0. -1.
        -11    1    3    3    0    0  0.65195906712E+00  0.18603034278E+01  0.22997138481E+01  0.30289376872E+01  0.51100000000E-03 0.  1.
         12    1    3    3    0    0 -0.18499057929E+02 -0.99761769059E+01 -0.19671702379E+02  0.28787412604E+02  0.00000000000E+00 0. -1.
</event>
<event>
 7    1  0.5487071E-013  0.5052890E+02  0.7816164E-02  0.1300439E+00
        -11   -1    0    0    0    0  0.00000000000E+00  0.00000000000E+00  0.45593999997E+02  0.45594000000E+02  0.51100000000E-03 0.  1.
         11   -1    0    0    0    0 -0.00000000000E+00 -0.00000000000E+00 -0.45593999997E+02  0.45594000000E+02  0.51100000000E-03 0. -1.
    9900012    2    1    2    0    0 -0.23130380365E+01 -0.15776599460E+02 -0.37402024216E+02  0.50528897071E+02  0.30000113138E+02 0.  0.
        -12    1    1    2    0    0  0.23130380365E+01  0.15776599460E+02  0.37402024216E+02  0.40659102929E+02  0.00000000000E+00 0.  1.
         11    1    3    3    0    0 -0.83526581603E+01 -0.36129200469E+01 -0.12650056973E+02  0.15583453766E+02  0.51100000000E-03 0. -1.
        -11    1    3    3    0    0 -0.69678925508E+01 -0.27388735326E+01 -0.13145291075E+02  0.15127842957E+02  0.51100000000E-03 0.  1.
        -12    1    3    3    0    0  0.13007512675E+02 -0.94248058807E+01 -0.11606676169E+02  0.19817600348E+02  0.00000000000E+00 0.  1.
</event>
<event>
 7    1  0.5487071E-013  0.5052885E+02  0.7816164E-02  0.1300439E+00
        -11   -1    0    0    0    0  0.00000000000E+00  0.00000000000E+00  0.45593999997E+02  0.45594000000E+02  0.51100000000E-03 0. -1.
         11   -1    0    0    0    0 -0.00000000000E+00 -0.00000000000E+00 -0.45593999997E+02  0.45594000000E+02  0.51100000000E-03 0.  1.
    9900012    2    1    2    0    0 -0.19723087555E+02  0.15465892627E+02  0.32015190974E+02  0.50528850101E+02  0.29999970366E+02 0.  0.
        -12    1    1    2    0    0  0.19723087555E+02 -0.15465892627E+02 -0.32015190974E+02  0.40659149899E+02  0.00000000000E+00 0.  1.
         11    1    3    3    0    0 -0.15531999912E+02  0.71319596545E+01  0.17278053845E+02  0.24303065953E+02  0.51100000000E-03 0. -1.
        -11    1    3    3    0    0 -0.10999517877E+02  0.86486386876E+01  0.62076046676E+01  0.15307602708E+02  0.51100000000E-03 0.  1.
         12    1    3    3    0    0  0.68084302345E+01 -0.31470571545E+00  0.85295324614E+01  0.10918181440E+02  0.00000000000E+00 0. -1.
</event>
<event>
 7    1  0.5487071E-013  0.5052872E+02  0.7816164E-02  0.1300439E+00
        -11   -1    0    0    0    0  0.00000000000E+00  0.00000000000E+00  0.45593999997E+02  0.45594000000E+02  0.51100000000E-03 0.  1.
         11   -1    0    0    0    0 -0.00000000000E+00 -0.00000000000E+00 -0.45593999997E+02  0.45594000000E+02  0.51100000000E-03 0. -1.
    9900012    2    1    2    0    0 -0.92865905770E+01 -0.46760224914E+01 -0.39307397107E+02  0.50528715474E+02  0.29999561151E+02 0.  0.
        -12    1    1    2    0    0  0.92865905770E+01  0.46760224914E+01  0.39307397107E+02  0.40659284526E+02  0.00000000000E+00 0.  1.
         11    1    3    3    0    0  0.40302831935E+01  0.25389021212E+01 -0.11434048290E+02  0.12386551867E+02  0.51100000000E-03 0. -1.
        -11    1    3    3    0    0 -0.93880918971E+01 -0.51844479166E+01 -0.84867298374E+00  0.10758020997E+02  0.51100000000E-03 0.  1.
         12    1    3    3    0    0 -0.39287818735E+01 -0.20304766960E+01 -0.27024675833E+02  0.27384142610E+02  0.00000000000E+00 0. -1.
</event>
<event>
 7    1  0.5487071E-013  0.5052889E+02  0.7816164E-02  0.1300439E+00
        -11   -1    0    0    0    0  0.00000000000E+00  0.00000000000E+00  0.45593999997E+02  0.45594000000E+02  0.51100000000E-03 0.  1.
         11   -1    0    0    0    0 -0.00000000000E+00 -0.00000000000E+00 -0.45593999997E+02  0.45594000000E+02  0.51100000000E-03 0. -1.
    9900012    2    1    2    0    0  0.21021286405E+02 -0.33927085834E+02 -0.77602627283E+01  0.50528888931E+02  0.30000088395E+02 0.  0.
        -12    1    1    2    0    0 -0.21021286405E+02  0.33927085834E+02  0.77602627283E+01  0.40659111069E+02  0.00000000000E+00 0.  1.
         11    1    3    3    0    0  0.14772850895E+02 -0.20800279023E+02 -0.12171720886E+02  0.28267287110E+02  0.51100000000E-03 0. -1.
        -11    1    3    3    0    0  0.51611509741E+01  0.27763099989E+01  0.77159146243E+00  0.59110684511E+01  0.51100000000E-03 0.  1.
        -12    1    3    3    0    0  0.10872845366E+01 -0.15903116810E+02  0.36398666954E+01  0.16350533370E+02  0.00000000000E+00 0.  1.
</event>
<event>
 7    1  0.5487071E-013  0.5052890E+02  0.7816164E-02  0.1300439E+00
        -11   -1    0    0    0    0  0.00000000000E+00  0.00000000000E+00  0.45593999997E+02  0.45594000000E+02  0.51100000000E-03 0. -1.
         11   -1    0    0    0    0 -0.00000000000E+00 -0.00000000000E+00 -0.45593999997E+02  0.45594000000E+02  0.51100000000E-03 0.  1.
    9900012    2    1    2    0    0 -0.34159645026E+02 -0.13148453335E+02  0.17703084506E+02  0.50528900472E+02  0.30000123474E+02 0.  0.
        -12    1    1    2    0    0  0.34159645026E+02  0.13148453335E+02 -0.17703084506E+02  0.40659099528E+02  0.00000000000E+00 0.  1.
         11    1    3    3    0    0 -0.10294539123E+02  0.32487416464E+01 -0.42052503910E+01  0.11585162457E+02  0.51100000000E-03 0. -1.
        -11    1    3    3    0    0 -0.12838119850E+01 -0.15649807462E+01 -0.20157999895E+01  0.28567092620E+01  0.51100000000E-03 0.  1.
         12    1    3    3    0    0 -0.22581293918E+02 -0.14832214235E+02  0.23924134886E+02  0.36087028753E+02  0.00000000000E+00 0. -1.
</event>
<event>
 7    1  0.5487071E-013  0.5052886E+02  0.7816164E-02  0.1300439E+00
        -11   -1    0    0    0    0  0.00000000000E+00  0.00000000000E+00  0.45593999997E+02  0.45594000000E+02  0.51100000000E-03 0. -1.
         11   -1    0    0    0    0 -0.00000000000E+00 -0.00000000000E+00 -0.45593999997E+02  0.45594000000E+02  0.51100000000E-03 0.  1.
    9900012    2    1    2    0    0  0.28738282933E+02 -0.12344960647E+02 -0.25978422754E+02  0.50528863165E+02  0.30000010078E+02 0.  0.
        -12    1    1    2    0    0 -0.28738282933E+02  0.12344960647E+02  0.25978422754E+02  0.40659136835E+02  0.00000000000E+00 0.  1.
         11    1    3    3    0    0  0.26797184230E+02 -0.41425530954E+01 -0.23215538678E+02  0.35696093136E+02  0.51100000000E-03 0. -1.
        -11    1    3    3    0    0  0.28678286380E+01 -0.12066096510E+01 -0.62348156266E+01  0.69680179467E+01  0.51100000000E-03 0.  1.
         12    1    3    3    0    0 -0.92672993460E+00 -0.69957979010E+01  0.34719315498E+01  0.78647520832E+01  0.00000000000E+00 0. -1.
</event>
<event>
 7    1  0.5487071E-013  0.5052886E+02  0.7816164E-02  0.1300439E+00
        -11   -1    0    0    0    0  0.00000000000E+00  0.00000000000E+00  0.45593999997E+02  0.45594000000E+02  0.51100000000E-03 0. -1.
         11   -1    0    0    0    0 -0.00000000000E+00 -0.00000000000E+00 -0.45593999997E+02  0.45594000000E+02  0.51100000000E-03 0.  1.
    9900012    2    1    2    0    0  0.20265933702E+02 -0.23243799010E+02  0.26498736172E+02  0.50528864742E+02  0.30000014869E+02 0.  0.
        -12    1    1    2    0    0 -0.20265933702E+02  0.23243799010E+02 -0.26498736172E+02  0.40659135258E+02  0.00000000000E+00 0.  1.
         11    1    3    3    0    0 -0.88106140007E+00 -0.25910317178E+01  0.53507690177E+01  0.60100286102E+01  0.51100000000E-03 0. -1.
        -11    1    3    3    0    0  0.19635705666E+02 -0.15587062118E+02  0.26855874519E+02  0.36739017936E+02  0.51100000000E-03 0.  1.
        -12    1    3    3    0    0  0.15112894365E+01 -0.50657051733E+01 -0.57079073649E+01  0.77798181952E+01  0.00000000000E+00 0.  1.
</event>
<event>
 7    1  0.5487071E-013  0.5052887E+02  0.7816164E-02  0.1300439E+00
        -11   -1    0    0    0    0  0.00000000000E+00  0.00000000000E+00  0.45593999997E+02  0.45594000000E+02  0.51100000000E-03 0.  1.
         11   -1    0    0    0    0 -0.00000000000E+00 -0.00000000000E+00 -0.45593999997E+02  0.45594000000E+02  0.51100000000E-03 0. -1.
    9900012    2    1    2    0    0 -0.27686471442E+02  0.30651207545E+01 -0.29618054321E+02  0.50528870547E+02  0.30000032515E+02 0.  0.
        -12    1    1    2    0    0  0.27686471442E+02 -0.30651207545E+01  0.29618054321E+02  0.40659129453E+02  0.00000000000E+00 0.  1.
         11    1    3    3    0    0 -0.77042351632E+01  0.10228158730E+02 -0.16030035248E+02  0.20516639608E+02  0.51100000000E-03 0. -1.
        -11    1    3    3    0    0  0.21822460311E+01  0.17528745249E+01 -0.21229254362E+01  0.35130584267E+01  0.51100000000E-03 0.  1.
        -12    1    3    3    0    0 -0.22164482310E+02 -0.89159125007E+01 -0.11465093636E+02  0.26499172513E+02  0.00000000000E+00 0.  1.
</event>
<event>
 7    1  0.5487071E-013  0.5052872E+02  0.7816164E-02  0.1300439E+00
        -11   -1    0    0    0    0  0.00000000000E+00  0.00000000000E+00  0.45593999997E+02  0.45594000000E+02  0.51100000000E-03 0.  1.
         11   -1    0    0    0    0 -0.00000000000E+00 -0.00000000000E+00 -0.45593999997E+02  0.45594000000E+02  0.51100000000E-03 0. -1.
    9900012    2    1    2    0    0  0.30435351596E+01 -0.67442243779E+00 -0.40539596160E+02  0.50528722969E+02  0.29999583933E+02 0.  0.
        -12    1    1    2    0    0 -0.30435351596E+01  0.67442243779E+00  0.40539596160E+02  0.40659277031E+02  0.00000000000E+00 0.  1.
         11    1    3    3    0    0 -0.46851551066E+01  0.22991106294E+01 -0.34439498995E+01  0.62527897158E+01  0.51100000000E-03 0. -1.
        -11    1    3    3    0    0 -0.47514794820E+01  0.68163452690E+01 -0.12937663288E+02  0.15376028477E+02  0.51100000000E-03 0.  1.
        -12    1    3    3    0    0  0.12480169748E+02 -0.97898783361E+01 -0.24157982972E+02  0.28899904776E+02  0.00000000000E+00 0.  1.
</event>
<event>
 7    1  0.5487071E-013  0.5052886E+02  0.7816164E-02  0.1300439E+00
        -11   -1    0    0    0    0  0.00000000000E+00  0.00000000000E+00  0.45593999997E+02  0.45594000000E+02  0.51100000000E-03 0. -1.
         11   -1    0    0    0    0 -0.00000000000E+00 -0.00000000000E+00 -0.45593999997E+02  0.45594000000E+02  0.51100000000E-03 0.  1.
    9900012    2    1    2    0    0 -0.37332332227E+02 -0.36075190022E+01 -0.15698688192E+02  0.50528855471E+02  0.29999986691E+02 0.  0.
        -12    1    1    2    0    0  0.37332332227E+02  0.36075190022E+01  0.15698688192E+02  0.40659144529E+02  0.00000000000E+00 0.  1.
         11    1    3    3    0    0 -0.20621774309E+02 -0.10134950544E+02 -0.82708904061E+01  0.24420942377E+02  0.51100000000E-03 0. -1.
        -11    1    3    3    0    0 -0.24665326114E+01  0.35747856425E+01  0.52487825178E+01  0.68126788925E+01  0.51100000000E-03 0.  1.
         12    1    3    3    0    0 -0.14244025306E+02  0.29526458989E+01 -0.12676580304E+02  0.19295234202E+02  0.00000000000E+00 0. -1.
</event>
<event>
 7    1  0.5487071E-013  0.5052886E+02  0.7816164E-02  0.1300439E+00
        -11   -1    0    0    0    0  0.00000000000E+00  0.00000000000E+00  0.45593999997E+02  0.45594000000E+02  0.51100000000E-03 0. -1.
         11   -1    0    0    0    0 -0.00000000000E+00 -0.00000000000E+00 -0.45593999997E+02  0.45594000000E+02  0.51100000000E-03 0.  1.
    9900012    2    1    2    0    0 -0.20401238943E+02  0.23794818751E+02  0.25899066443E+02  0.50528860899E+02  0.30000003188E+02 0.  0.
        -12    1    1    2    0    0  0.20401238943E+02 -0.23794818751E+02 -0.25899066443E+02  0.40659139101E+02  0.00000000000E+00 0.  1.
         11    1    3    3    0    0 -0.43336220027E+01 -0.11502310943E+01 -0.16944413441E+01  0.47931662774E+01  0.51100000000E-03 0. -1.
        -11    1    3    3    0    0 -0.62763546942E+01 -0.29079664738E+01  0.60144016025E+01  0.91663473727E+01  0.51100000000E-03 0.  1.
         12    1    3    3    0    0 -0.97912622460E+01  0.27853016320E+02  0.21579106185E+02  0.36569347249E+02  0.00000000000E+00 0. -1.
</event>
<event>
 7    1  0.5487071E-013  0.5052886E+02  0.7816164E-02  0.1300439E+00
        -11   -1    0    0    0    0  0.00000000000E+00  0.00000000000E+00  0.45593999997E+02  0.45594000000E+02  0.51100000000E-03 0.  1.
         11   -1    0    0    0    0 -0.00000000000E+00 -0.00000000000E+00 -0.45593999997E+02  0.45594000000E+02  0.51100000000E-03 0. -1.
    9900012    2    1    2    0    0 -0.11656361528E+02  0.24040757998E+02 -0.30648607397E+02  0.50528856568E+02  0.29999990025E+02 0.  0.
        -12    1    1    2    0    0  0.11656361528E+02 -0.24040757998E+02  0.30648607397E+02  0.40659143432E+02  0.00000000000E+00 0.  1.
         11    1    3    3    0    0  0.20468819279E+01  0.23074366203E+01 -0.14558771595E+02  0.14881929310E+02  0.51100000000E-03 0. -1.
        -11    1    3    3    0    0  0.26289342291E+01  0.11120154148E+02 -0.10149989748E+02  0.15283697707E+02  0.51100000000E-03 0.  1.
        -12    1    3    3    0    0 -0.16332177685E+02  0.10613167231E+02 -0.59398460545E+01  0.20363229551E+02  0.00000000000E+00 0.  1.
</event>
<event>
 7    1  0.5487071E-013  0.5052886E+02  0.7816164E-02  0.1300439E+00
        -11   -1    0    0    0    0  0.00000000000E+00  0.00000000000E+00  0.45593999997E+02  0.45594000000E+02  0.51100000000E-03 0.  1.
         11   -1    0    0    0    0 -0.00000000000E+00 -0.00000000000E+00 -0.45593999997E+02  0.45594000000E+02  0.51100000000E-03 0. -1.
    9900012    2    1    2    0    0  0.98458588118E+01 -0.31910279749E+02 -0.23193940302E+02  0.50528858885E+02  0.29999997068E+02 0.  0.
        -12    1    1    2    0    0 -0.98458588118E+01  0.31910279749E+02  0.23193940302E+02  0.40659141115E+02  0.00000000000E+00 0.  1.
         11    1    3    3    0    0  0.34888331982E+01 -0.21143476950E+02 -0.18319928109E+01  0.21507551523E+02  0.51100000000E-03 0. -1.
        -11    1    3    3    0    0 -0.38375358887E+01 -0.48508676413E+01 -0.22790944227E+01  0.65918032601E+01  0.51100000000E-03 0.  1.
        -12    1    3    3    0    0  0.10194561502E+02 -0.59159351582E+01 -0.19082853069E+02  0.22429504102E+02  0.00000000000E+00 0.  1.
</event>
<event>
 7    1  0.5487071E-013  0.5052891E+02  0.7816164E-02  0.1300439E+00
        -11   -1    0    0    0    0  0.00000000000E+00  0.00000000000E+00  0.45593999997E+02  0.45594000000E+02  0.51100000000E-03 0.  1.
         11   -1    0    0    0    0 -0.00000000000E+00 -0.00000000000E+00 -0.45593999997E+02  0.45594000000E+02  0.51100000000E-03 0. -1.
    9900012    2    1    2    0    0 -0.61435212787E+01  0.34005409725E+02 -0.21425478450E+02  0.50528906662E+02  0.30000142289E+02 0.  0.
        -12    1    1    2    0    0  0.61435212787E+01 -0.34005409725E+02  0.21425478450E+02  0.40659093338E+02  0.00000000000E+00 0.  1.
         11    1    3    3    0    0 -0.74524450480E+01  0.95059624653E+01  0.13084415636E+01  0.12149661690E+02  0.51100000000E-03 0. -1.
        -11    1    3    3    0    0 -0.59956219224E+01  0.78568065855E+01 -0.83180466242E+00  0.99181042148E+01  0.51100000000E-03 0.  1.
         12    1    3    3    0    0  0.73045456917E+01  0.16642640674E+02 -0.21902115351E+02  0.28461140758E+02  0.00000000000E+00 0. -1.
</event>
<event>
 7    1  0.5487071E-013  0.5052887E+02  0.7816164E-02  0.1300439E+00
        -11   -1    0    0    0    0  0.00000000000E+00  0.00000000000E+00  0.45593999997E+02  0.45594000000E+02  0.51100000000E-03 0.  1.
         11   -1    0    0    0    0 -0.00000000000E+00 -0.00000000000E+00 -0.45593999997E+02  0.45594000000E+02  0.51100000000E-03 0. -1.
    9900012    2    1    2    0    0  0.39453583980E+02 -0.53546458769E+01  0.82406083670E+01  0.50528866370E+02  0.30000019817E+02 0.  0.
        -12    1    1    2    0    0 -0.39453583980E+02  0.53546458769E+01 -0.82406083670E+01  0.40659133630E+02  0.00000000000E+00 0.  1.
         11    1    3    3    0    0  0.15804531030E+02  0.87159497075E+00 -0.17397206165E+00  0.15829502374E+02  0.51100000000E-03 0. -1.
        -11    1    3    3    0    0  0.24085057328E+02 -0.17465773521E+01 -0.11006198307E+01  0.24173371366E+02  0.51100000000E-03 0.  1.
        -12    1    3    3    0    0 -0.43600437822E+00 -0.44796634956E+01  0.95152002594E+01  0.10525992629E+02  0.00000000000E+00 0.  1.
</event>
<event>
 7    1  0.5487071E-013  0.5052886E+02  0.7816164E-02  0.1300439E+00
        -11   -1    0    0    0    0  0.00000000000E+00  0.00000000000E+00  0.45593999997E+02  0.45594000000E+02  0.51100000000E-03 0.  1.
         11   -1    0    0    0    0 -0.00000000000E+00 -0.00000000000E+00 -0.45593999997E+02  0.45594000000E+02  0.51100000000E-03 0. -1.
    9900012    2    1    2    0    0 -0.30383157876E+02 -0.52386441985E-01 -0.27019004649E+02  0.50528860326E+02  0.30000001447E+02 0.  0.
        -12    1    1    2    0    0  0.30383157876E+02  0.52386441985E-01  0.27019004649E+02  0.40659139674E+02  0.00000000000E+00 0.  1.
         11    1    3    3    0    0 -0.26387578877E+02  0.10318173665E+02 -0.19316767867E+02  0.34291493813E+02  0.51100000000E-03 0. -1.
        -11    1    3    3    0    0 -0.52247234854E+01 -0.17444022653E+01 -0.37894996436E+01  0.66858793417E+01  0.51100000000E-03 0.  1.
        -12    1    3    3    0    0  0.12291444873E+01 -0.86261578418E+01 -0.39127371377E+01  0.95514871717E+01  0.00000000000E+00 0.  1.
</event>
<event>
 7    1  0.5487071E-013  0.5052886E+02  0.7816164E-02  0.1300439E+00
        -11   -1    0    0    0    0  0.00000000000E+00  0.00000000000E+00  0.45593999997E+02  0.45594000000E+02  0.51100000000E-03 0. -1.
         11   -1    0    0    0    0 -0.00000000000E+00 -0.00000000000E+00 -0.45593999997E+02  0.45594000000E+02  0.51100000000E-03 0.  1.
    9900012    2    1    2    0    0  0.31616913352E+02  0.12605302722E+02  0.22240572632E+02  0.50528856654E+02  0.29999990286E+02 0.  0.
        -12    1    1    2    0    0 -0.31616913352E+02 -0.12605302722E+02 -0.22240572632E+02  0.40659143346E+02  0.00000000000E+00 0.  1.
         11    1    3    3    0    0  0.10759805832E+02 -0.85764239856E+00  0.10899726303E+02  0.15339915442E+02  0.51100000000E-03 0. -1.
        -11    1    3    3    0    0 -0.21974985568E+01  0.88269857270E+01  0.64991002170E+01  0.11179578741E+02  0.51100000000E-03 0.  1.
         12    1    3    3    0    0  0.23054606077E+02  0.46359593936E+01  0.48417461115E+01  0.24009362472E+02  0.00000000000E+00 0. -1.
</event>
<event>
 7    1  0.5487071E-013  0.5052886E+02  0.7816164E-02  0.1300439E+00
        -11   -1    0    0    0    0  0.00000000000E+00  0.00000000000E+00  0.45593999997E+02  0.45594000000E+02  0.51100000000E-03 0.  1.
         11   -1    0    0    0    0 -0.00000000000E+00 -0.00000000000E+00 -0.45593999997E+02  0.45594000000E+02  0.51100000000E-03 0. -1.
    9900012    2    1    2    0    0  0.32194398818E+02  0.10555846986E+02 -0.22477999346E+02  0.50528859878E+02  0.30000000084E+02 0.  0.
        -12    1    1    2    0    0 -0.32194398818E+02 -0.10555846986E+02  0.22477999346E+02  0.40659140122E+02  0.00000000000E+00 0.  1.
         11    1    3    3    0    0  0.10835987966E+02  0.92131769568E+01 -0.40684158571E+01  0.14793690300E+02  0.51100000000E-03 0. -1.
        -11    1    3    3    0    0  0.13828000333E+02  0.10509844282E+02 -0.55378380508E+01  0.18230141815E+02  0.51100000000E-03 0.  1.
        -12    1    3    3    0    0  0.75304105193E+01 -0.91671742524E+01 -0.12871745439E+02  0.17505027763E+02  0.00000000000E+00 0.  1.
</event>
<event>
 7    1  0.5487071E-013  0.5052884E+02  0.7816164E-02  0.1300439E+00
        -11   -1    0    0    0    0  0.00000000000E+00  0.00000000000E+00  0.45593999997E+02  0.45594000000E+02  0.51100000000E-03 0.  1.
         11   -1    0    0    0    0 -0.00000000000E+00 -0.00000000000E+00 -0.45593999997E+02  0.45594000000E+02  0.51100000000E-03 0. -1.
    9900012    2    1    2    0    0 -0.16732828255E+02 -0.16274778237E+02 -0.33291309355E+02  0.50528840803E+02  0.29999942104E+02 0.  0.
        -12    1    1    2    0    0  0.16732828255E+02  0.16274778237E+02  0.33291309355E+02  0.40659159197E+02  0.00000000000E+00 0.  1.
         11    1    3    3    0    0  0.47382682799E+01 -0.14868219644E+01 -0.39484616940E+01  0.63444602494E+01  0.51100000000E-03 0.  1.
        -11    1    3    3    0    0 -0.17824382320E+02 -0.13589831512E+02 -0.10138949040E+02  0.24600618153E+02  0.51100000000E-03 0. -1.
         12    1    3    3    0    0 -0.36467142150E+01 -0.11981247606E+01 -0.19203898621E+02  0.19583762400E+02  0.00000000000E+00 0. -1.
</event>
<event>
 7    1  0.5487071E-013  0.5052889E+02  0.7816164E-02  0.1300439E+00
        -11   -1    0    0    0    0  0.00000000000E+00  0.00000000000E+00  0.45593999997E+02  0.45594000000E+02  0.51100000000E-03 0.  1.
         11   -1    0    0    0    0 -0.00000000000E+00 -0.00000000000E+00 -0.45593999997E+02  0.45594000000E+02  0.51100000000E-03 0. -1.
    9900012    2    1    2    0    0 -0.28197412087E+02 -0.24300868972E+01 -0.29191851365E+02  0.50528885931E+02  0.30000079276E+02 0.  0.
        -12    1    1    2    0    0  0.28197412087E+02  0.24300868972E+01  0.29191851365E+02  0.40659114069E+02  0.00000000000E+00 0.  1.
         11    1    3    3    0    0 -0.14109726313E+02  0.26358160942E+01 -0.12715881671E+02  0.19176171413E+02  0.51100000000E-03 0. -1.
        -11    1    3    3    0    0 -0.11723315970E+02  0.36357700447E+01 -0.18413785174E+02  0.22129673424E+02  0.51100000000E-03 0.  1.
        -12    1    3    3    0    0 -0.23643698038E+01 -0.87016730362E+01  0.19378154797E+01  0.92230410945E+01  0.00000000000E+00 0.  1.
</event>
<event>
 7    1  0.5487071E-013  0.5052888E+02  0.7816164E-02  0.1300439E+00
        -11   -1    0    0    0    0  0.00000000000E+00  0.00000000000E+00  0.45593999997E+02  0.45594000000E+02  0.51100000000E-03 0.  1.
         11   -1    0    0    0    0 -0.00000000000E+00 -0.00000000000E+00 -0.45593999997E+02  0.45594000000E+02  0.51100000000E-03 0. -1.
    9900012    2    1    2    0    0 -0.20442199821E+02 -0.17987648119E+02 -0.30194789477E+02  0.50528876424E+02  0.30000050379E+02 0.  0.
        -12    1    1    2    0    0  0.20442199821E+02  0.17987648119E+02  0.30194789477E+02  0.40659123576E+02  0.00000000000E+00 0.  1.
         11    1    3    3    0    0 -0.10667098458E-01 -0.85324580369E+01  0.13498662014E+01  0.86385816522E+01  0.51100000000E-03 0. -1.
        -11    1    3    3    0    0 -0.11277323890E+02  0.15537827685E+01 -0.66829042671E+01  0.13200510774E+02  0.51100000000E-03 0.  1.
         12    1    3    3    0    0 -0.91542088330E+01 -0.11008972851E+02 -0.24861751411E+02  0.28689783998E+02  0.00000000000E+00 0. -1.
</event>
<event>
 7    1  0.5487071E-013  0.5052883E+02  0.7816164E-02  0.1300439E+00
        -11   -1    0    0    0    0  0.00000000000E+00  0.00000000000E+00  0.45593999997E+02  0.45594000000E+02  0.51100000000E-03 0.  1.
         11   -1    0    0    0    0 -0.00000000000E+00 -0.00000000000E+00 -0.45593999997E+02  0.45594000000E+02  0.51100000000E-03 0. -1.
    9900012    2    1    2    0    0 -0.14466630269E+02 -0.32980780763E+02 -0.18872006411E+02  0.50528832313E+02  0.29999916297E+02 0.  0.
        -12    1    1    2    0    0  0.14466630269E+02  0.32980780763E+02  0.18872006411E+02  0.40659167687E+02  0.00000000000E+00 0.  1.
         11    1    3    3    0    0 -0.19399961264E+01 -0.18109844327E+02 -0.20343417783E+02  0.27305396790E+02  0.51100000000E-03 0. -1.
        -11    1    3    3    0    0  0.19461718324E+01 -0.22629330372E+01 -0.21655268003E+01  0.36875408223E+01  0.51100000000E-03 0.  1.
        -12    1    3    3    0    0 -0.14472805975E+02 -0.12608003398E+02  0.36369381715E+01  0.19535894700E+02  0.00000000000E+00 0.  1.
</event>
<event>
 7    1  0.5487071E-013  0.5052886E+02  0.7816164E-02  0.1300439E+00
        -11   -1    0    0    0    0  0.00000000000E+00  0.00000000000E+00  0.45593999997E+02  0.45594000000E+02  0.51100000000E-03 0. -1.
         11   -1    0    0    0    0 -0.00000000000E+00 -0.00000000000E+00 -0.45593999997E+02  0.45594000000E+02  0.51100000000E-03 0.  1.
    9900012    2    1    2    0    0  0.66458532154E+01  0.12418238712E+02  0.38141651680E+02  0.50528860677E+02  0.30000002512E+02 0.  0.
        -12    1    1    2    0    0 -0.66458532154E+01 -0.12418238712E+02 -0.38141651680E+02  0.40659139323E+02  0.00000000000E+00 0.  1.
         11    1    3    3    0    0  0.11261798622E+02 -0.27376399812E+01  0.41116910594E+01  0.12297511313E+02  0.51100000000E-03 0. -1.
        -11    1    3    3    0    0  0.41836633695E+00  0.31318482602E+01  0.22414973251E+01  0.38739920542E+01  0.51100000000E-03 0.  1.
         12    1    3    3    0    0 -0.50343117437E+01  0.12024030433E+02  0.31788463295E+02  0.34357357309E+02  0.00000000000E+00 0. -1.
</event>
<event>
 7    1  0.5487071E-013  0.5052886E+02  0.7816164E-02  0.1300439E+00
        -11   -1    0    0    0    0  0.00000000000E+00  0.00000000000E+00  0.45593999997E+02  0.45594000000E+02  0.51100000000E-03 0.  1.
         11   -1    0    0    0    0 -0.00000000000E+00 -0.00000000000E+00 -0.45593999997E+02  0.45594000000E+02  0.51100000000E-03 0. -1.
    9900012    2    1    2    0    0 -0.35032805751E+01 -0.39964444542E+02 -0.66133178337E+01  0.50528858652E+02  0.29999996360E+02 0.  0.
        -12    1    1    2    0    0  0.35032805751E+01  0.39964444542E+02  0.66133178337E+01  0.40659141348E+02  0.00000000000E+00 0.  1.
         11    1    3    3    0    0  0.10141595217E+01 -0.47255189001E+01  0.26453045453E+01  0.55096900828E+01  0.51100000000E-03 0. -1.
        -11    1    3    3    0    0  0.18708516655E+01  0.13377577313E+01  0.47951012388E+01  0.53181460918E+01  0.51100000000E-03 0.  1.
         12    1    3    3    0    0 -0.63882917623E+01 -0.36576683374E+02 -0.14053723618E+02  0.39701022478E+02  0.00000000000E+00 0. -1.
</event>
<event>
 7    1  0.5487071E-013  0.5052896E+02  0.7816164E-02  0.1300438E+00
        -11   -1    0    0    0    0  0.00000000000E+00  0.00000000000E+00  0.45593999997E+02  0.45594000000E+02  0.51100000000E-03 0. -1.
         11   -1    0    0    0    0 -0.00000000000E+00 -0.00000000000E+00 -0.45593999997E+02  0.45594000000E+02  0.51100000000E-03 0.  1.
    9900012    2    1    2    0    0 -0.10192033623E+02  0.33104477239E+02  0.21292568925E+02  0.50528960979E+02  0.30000307390E+02 0.  0.
        -12    1    1    2    0    0  0.10192033623E+02 -0.33104477239E+02 -0.21292568925E+02  0.40659039021E+02  0.00000000000E+00 0.  1.
         11    1    3    3    0    0 -0.38681144659E+01  0.13433195256E+02  0.23023601170E+02  0.26935093380E+02  0.51100000000E-03 0. -1.
        -11    1    3    3    0    0  0.25875337425E+01  0.77955576475E+01  0.16222933581E+01  0.83724480234E+01  0.51100000000E-03 0.  1.
        -12    1    3    3    0    0 -0.89114528994E+01  0.11875724336E+02 -0.33533256030E+01  0.15221419575E+02  0.00000000000E+00 0.  1.
</event>
<event>
 7    1  0.5487071E-013  0.5052886E+02  0.7816164E-02  0.1300439E+00
        -11   -1    0    0    0    0  0.00000000000E+00  0.00000000000E+00  0.45593999997E+02  0.45594000000E+02  0.51100000000E-03 0. -1.
         11   -1    0    0    0    0 -0.00000000000E+00 -0.00000000000E+00 -0.45593999997E+02  0.45594000000E+02  0.51100000000E-03 0.  1.
    9900012    2    1    2    0    0 -0.31436513056E+02 -0.21123980039E+02 -0.14788131719E+02  0.50528859262E+02  0.29999998214E+02 0.  0.
        -12    1    1    2    0    0  0.31436513056E+02  0.21123980039E+02  0.14788131719E+02  0.40659140738E+02  0.00000000000E+00 0.  1.
         11    1    3    3    0    0 -0.13765593836E+02 -0.37242338593E+01  0.14033165877E+01  0.14329368067E+02  0.51100000000E-03 0. -1.
        -11    1    3    3    0    0 -0.23571458234E+01  0.41288847501E+01  0.75221390113E+00  0.48134864420E+01  0.51100000000E-03 0.  1.
         12    1    3    3    0    0 -0.15313773396E+02 -0.21528630930E+02 -0.16943662208E+02  0.31386004753E+02  0.00000000000E+00 0. -1.
</event>
<event>
 7    1  0.5487071E-013  0.5052886E+02  0.7816164E-02  0.1300439E+00
        -11   -1    0    0    0    0  0.00000000000E+00  0.00000000000E+00  0.45593999997E+02  0.45594000000E+02  0.51100000000E-03 0. -1.
         11   -1    0    0    0    0 -0.00000000000E+00 -0.00000000000E+00 -0.45593999997E+02  0.45594000000E+02  0.51100000000E-03 0.  1.
    9900012    2    1    2    0    0  0.37001388906E+02 -0.14021476004E+02  0.93520542329E+01  0.50528862174E+02  0.30000007065E+02 0.  0.
        -12    1    1    2    0    0 -0.37001388906E+02  0.14021476004E+02 -0.93520542329E+01  0.40659137826E+02  0.00000000000E+00 0.  1.
         11    1    3    3    0    0 -0.33267358360E+01 -0.26357256247E+00  0.57541274223E+00  0.33864054546E+01  0.51100000000E-03 0. -1.
        -11    1    3    3    0    0  0.13123608818E+02  0.34956237951E+01 -0.58980054869E+00  0.13593982458E+02  0.51100000000E-03 0.  1.
         12    1    3    3    0    0  0.27204515925E+02 -0.17253527237E+02  0.93664420394E+01  0.33548474262E+02  0.00000000000E+00 0. -1.
</event>
<event>
 7    1  0.5487071E-013  0.5052885E+02  0.7816164E-02  0.1300439E+00
        -11   -1    0    0    0    0  0.00000000000E+00  0.00000000000E+00  0.45593999997E+02  0.45594000000E+02  0.51100000000E-03 0.  1.
         11   -1    0    0    0    0 -0.00000000000E+00 -0.00000000000E+00 -0.45593999997E+02  0.45594000000E+02  0.51100000000E-03 0. -1.
    9900012    2    1    2    0    0  0.18615432325E+02  0.38302944112E+01 -0.35943856897E+02  0.50528851896E+02  0.29999975824E+02 0.  0.
        -12    1    1    2    0    0 -0.18615432325E+02 -0.38302944112E+01  0.35943856897E+02  0.40659148104E+02  0.00000000000E+00 0.  1.
         11    1    3    3    0    0  0.34942758275E+01 -0.43137425797E+01 -0.57126674950E+00  0.55807422950E+01  0.51100000000E-03 0. -1.
        -11    1    3    3    0    0  0.11490237263E+02 -0.20259326080E+01 -0.49649829560E+01  0.12679945240E+02  0.51100000000E-03 0.  1.
         12    1    3    3    0    0  0.36309192349E+01  0.10169969599E+02 -0.30407607191E+02  0.32268164361E+02  0.00000000000E+00 0. -1.
</event>
<event>
 7    1  0.5487071E-013  0.5052886E+02  0.7816164E-02  0.1300439E+00
        -11   -1    0    0    0    0  0.00000000000E+00  0.00000000000E+00  0.45593999997E+02  0.45594000000E+02  0.51100000000E-03 0.  1.
         11   -1    0    0    0    0 -0.00000000000E+00 -0.00000000000E+00 -0.45593999997E+02  0.45594000000E+02  0.51100000000E-03 0. -1.
    9900012    2    1    2    0    0 -0.25772276826E+02  0.23692794524E+02 -0.20678652395E+02  0.50528862897E+02  0.30000009262E+02 0.  0.
        -12    1    1    2    0    0  0.25772276826E+02 -0.23692794524E+02  0.20678652395E+02  0.40659137103E+02  0.00000000000E+00 0.  1.
         11    1    3    3    0    0 -0.13169916469E+02  0.23459752545E+02 -0.19559927404E+02  0.33262553263E+02  0.51100000000E-03 0. -1.
        -11    1    3    3    0    0  0.17773489538E+01 -0.15385957574E+01 -0.14718870389E+01  0.27735713304E+01  0.51100000000E-03 0.  1.
        -12    1    3    3    0    0 -0.14379709310E+02  0.17716377360E+01  0.35316204788E+00  0.14492738304E+02  0.00000000000E+00 0.  1.
</event>
<event>
 7    1  0.5487071E-013  0.5052882E+02  0.7816164E-02  0.1300439E+00
        -11   -1    0    0    0    0  0.00000000000E+00  0.00000000000E+00  0.45593999997E+02  0.45594000000E+02  0.51100000000E-03 0.  1.
         11   -1    0    0    0    0 -0.00000000000E+00 -0.00000000000E+00 -0.45593999997E+02  0.45594000000E+02  0.51100000000E-03 0. -1.
    9900012    2    1    2    0    0  0.84876019248E+01 -0.33266030902E+02  0.21783033616E+02  0.50528822045E+02  0.29999885089E+02 0.  0.
        -12    1    1    2    0    0 -0.84876019248E+01  0.33266030902E+02 -0.21783033616E+02  0.40659177955E+02  0.00000000000E+00 0.  1.
         11    1    3    3    0    0 -0.31706880611E-01 -0.88862140698E+01  0.40069085599E+01  0.97478778351E+01  0.51100000000E-03 0. -1.
        -11    1    3    3    0    0  0.71146574783E+01 -0.23204200945E+02  0.24096320314E+02  0.34200671711E+02  0.51100000000E-03 0.  1.
        -12    1    3    3    0    0  0.14046513270E+01 -0.11756158877E+01 -0.63201952581E+01  0.65802724994E+01  0.00000000000E+00 0.  1.
</event>
<event>
 7    1  0.5487071E-013  0.5052886E+02  0.7816164E-02  0.1300439E+00
        -11   -1    0    0    0    0  0.00000000000E+00  0.00000000000E+00  0.45593999997E+02  0.45594000000E+02  0.51100000000E-03 0. -1.
         11   -1    0    0    0    0 -0.00000000000E+00 -0.00000000000E+00 -0.45593999997E+02  0.45594000000E+02  0.51100000000E-03 0.  1.
    9900012    2    1    2    0    0  0.38164885288E+02 -0.26205916729E+01  0.13774607013E+02  0.50528858739E+02  0.29999996623E+02 0.  0.
        -12    1    1    2    0    0 -0.38164885288E+02  0.26205916729E+01 -0.13774607013E+02  0.40659141261E+02  0.00000000000E+00 0.  1.
         11    1    3    3    0    0  0.28152804730E+01 -0.32536669539E+01 -0.24113385186E+01  0.49322111169E+01  0.51100000000E-03 0. -1.
        -11    1    3    3    0    0 -0.26461877529E+01  0.35683062457E+01  0.25454325412E+01  0.51199947431E+01  0.51100000000E-03 0.  1.
         12    1    3    3    0    0  0.37995792567E+02 -0.29352309646E+01  0.13640512990E+02  0.40476652879E+02  0.00000000000E+00 0. -1.
</event>
<event>
 7    1  0.5487071E-013  0.5052887E+02  0.7816164E-02  0.1300439E+00
        -11   -1    0    0    0    0  0.00000000000E+00  0.00000000000E+00  0.45593999997E+02  0.45594000000E+02  0.51100000000E-03 0.  1.
         11   -1    0    0    0    0 -0.00000000000E+00 -0.00000000000E+00 -0.45593999997E+02  0.45594000000E+02  0.51100000000E-03 0. -1.
    9900012    2    1    2    0    0  0.17365128832E+01 -0.90158088694E+00 -0.40612028350E+02  0.50528866072E+02  0.30000018911E+02 0.  0.
        -12    1    1    2    0    0 -0.17365128832E+01  0.90158088694E+00  0.40612028350E+02  0.40659133928E+02  0.00000000000E+00 0.  1.
         11    1    3    3    0    0 -0.17741665597E+00  0.23367118200E+01 -0.15977399134E+01  0.28362778234E+01  0.51100000000E-03 0. -1.
        -11    1    3    3    0    0  0.87044771158E+01  0.46255249432E+01 -0.31417882581E+01  0.10345735188E+02  0.51100000000E-03 0.  1.
         12    1    3    3    0    0 -0.67905475765E+01 -0.78638176502E+01 -0.35872500179E+02  0.37346853060E+02  0.00000000000E+00 0. -1.
</event>
<event>
 7    1  0.5487071E-013  0.5052888E+02  0.7816164E-02  0.1300439E+00
        -11   -1    0    0    0    0  0.00000000000E+00  0.00000000000E+00  0.45593999997E+02  0.45594000000E+02  0.51100000000E-03 0.  1.
         11   -1    0    0    0    0 -0.00000000000E+00 -0.00000000000E+00 -0.45593999997E+02  0.45594000000E+02  0.51100000000E-03 0. -1.
    9900012    2    1    2    0    0  0.19754571886E+01  0.93217890781E+01 -0.39526774800E+02  0.50528879144E+02  0.30000058646E+02 0.  0.
        -12    1    1    2    0    0 -0.19754571886E+01 -0.93217890781E+01  0.39526774800E+02  0.40659120856E+02  0.00000000000E+00 0.  1.
         11    1    3    3    0    0 -0.58317020264E+01  0.14318909919E+02 -0.25839317432E+02  0.30111629903E+02  0.51100000000E-03 0. -1.
        -11    1    3    3    0    0  0.83581265601E+01  0.48773841612E-02 -0.35131025609E+01  0.90664322226E+01  0.51100000000E-03 0.  1.
        -12    1    3    3    0    0 -0.55096734513E+00 -0.50019982251E+01 -0.10174354806E+02  0.11350817018E+02  0.00000000000E+00 0.  1.
</event>
<event>
 7    1  0.5487071E-013  0.5052886E+02  0.7816164E-02  0.1300439E+00
        -11   -1    0    0    0    0  0.00000000000E+00  0.00000000000E+00  0.45593999997E+02  0.45594000000E+02  0.51100000000E-03 0.  1.
         11   -1    0    0    0    0 -0.00000000000E+00 -0.00000000000E+00 -0.45593999997E+02  0.45594000000E+02  0.51100000000E-03 0. -1.
    9900012    2    1    2    0    0 -0.23862044985E+02  0.60780120076E+01 -0.32354695188E+02  0.50528859311E+02  0.29999998362E+02 0.  0.
        -12    1    1    2    0    0  0.23862044985E+02 -0.60780120076E+01  0.32354695188E+02  0.40659140689E+02  0.00000000000E+00 0.  1.
         11    1    3    3    0    0 -0.14591684045E+02  0.67062914669E+01 -0.15747492694E+02  0.22491667678E+02  0.51100000000E-03 0. -1.
        -11    1    3    3    0    0 -0.14492855419E+02  0.24677520273E+01 -0.61304707294E+01  0.15928444051E+02  0.51100000000E-03 0.  1.
        -12    1    3    3    0    0  0.52224944789E+01 -0.30960314866E+01 -0.10476731765E+02  0.12108747582E+02  0.00000000000E+00 0.  1.
</event>
<event>
 7    1  0.5487071E-013  0.5052886E+02  0.7816164E-02  0.1300439E+00
        -11   -1    0    0    0    0  0.00000000000E+00  0.00000000000E+00  0.45593999997E+02  0.45594000000E+02  0.51100000000E-03 0. -1.
         11   -1    0    0    0    0 -0.00000000000E+00 -0.00000000000E+00 -0.45593999997E+02  0.45594000000E+02  0.51100000000E-03 0.  1.
    9900012    2    1    2    0    0 -0.20664544448E+02 -0.28399575651E+02 -0.20484303024E+02  0.50528856321E+02  0.29999989272E+02 0.  0.
        -12    1    1    2    0    0  0.20664544448E+02  0.28399575651E+02  0.20484303024E+02  0.40659143679E+02  0.00000000000E+00 0.  1.
         11    1    3    3    0    0 -0.68859278524E+01 -0.11782926808E+02 -0.42240363299E+01  0.14286211874E+02  0.51100000000E-03 0. -1.
        -11    1    3    3    0    0 -0.15222332997E+02 -0.18059797945E+02 -0.41742047283E+01  0.23985406168E+02  0.51100000000E-03 0.  1.
        -12    1    3    3    0    0  0.14437164013E+01  0.14431491016E+01 -0.12086061965E+02  0.12257238278E+02  0.00000000000E+00 0.  1.
</event>
<event>
 7    1  0.5487071E-013  0.5052886E+02  0.7816164E-02  0.1300439E+00
        -11   -1    0    0    0    0  0.00000000000E+00  0.00000000000E+00  0.45593999997E+02  0.45594000000E+02  0.51100000000E-03 0.  1.
         11   -1    0    0    0    0 -0.00000000000E+00 -0.00000000000E+00 -0.45593999997E+02  0.45594000000E+02  0.51100000000E-03 0. -1.
    9900012    2    1    2    0    0  0.70814119912E+01 -0.10508087760E+02 -0.38634169794E+02  0.50528863513E+02  0.30000011135E+02 0.  0.
        -12    1    1    2    0    0 -0.70814119912E+01  0.10508087760E+02  0.38634169794E+02  0.40659136487E+02  0.00000000000E+00 0.  1.
         11    1    3    3    0    0 -0.72950465261E+01  0.24095248710E+00 -0.75840026762E+01  0.10525818675E+02  0.51100000000E-03 0. -1.
        -11    1    3    3    0    0 -0.29266142300E+01  0.21243477515E+01 -0.37153092794E+01  0.51847321554E+01  0.51100000000E-03 0.  1.
         12    1    3    3    0    0  0.17303072747E+02 -0.12873387999E+02 -0.27334857838E+02  0.34818312683E+02  0.00000000000E+00 0. -1.
</event>
<event>
 7    1  0.5487071E-013  0.5052886E+02  0.7816164E-02  0.1300439E+00
        -11   -1    0    0    0    0  0.00000000000E+00  0.00000000000E+00  0.45593999997E+02  0.45594000000E+02  0.51100000000E-03 0. -1.
         11   -1    0    0    0    0 -0.00000000000E+00 -0.00000000000E+00 -0.45593999997E+02  0.45594000000E+02  0.51100000000E-03 0.  1.
    9900012    2    1    2    0    0  0.11800944022E+02  0.58826961269E+01  0.38461633305E+02  0.50528860437E+02  0.30000001784E+02 0.  0.
        -12    1    1    2    0    0 -0.11800944022E+02 -0.58826961269E+01 -0.38461633305E+02  0.40659139563E+02  0.00000000000E+00 0.  1.
         11    1    3    3    0    0  0.15990627064E+02  0.21769930601E+01  0.20545908322E+02  0.26126113407E+02  0.51100000000E-03 0. -1.
        -11    1    3    3    0    0  0.43046698791E+01  0.29585625033E+01  0.14145906801E+02  0.15079454709E+02  0.51100000000E-03 0.  1.
        -12    1    3    3    0    0 -0.84943529213E+01  0.74714056350E+00  0.37698181821E+01  0.93232923208E+01  0.00000000000E+00 0.  1.
</event>
<event>
 7    1  0.5487071E-013  0.5052886E+02  0.7816164E-02  0.1300439E+00
        -11   -1    0    0    0    0  0.00000000000E+00  0.00000000000E+00  0.45593999997E+02  0.45594000000E+02  0.51100000000E-03 0.  1.
         11   -1    0    0    0    0 -0.00000000000E+00 -0.00000000000E+00 -0.45593999997E+02  0.45594000000E+02  0.51100000000E-03 0. -1.
    9900012    2    1    2    0    0 -0.92513446074E+01 -0.39408404580E+02 -0.38152434758E+01  0.50528858207E+02  0.29999995006E+02 0.  0.
        -12    1    1    2    0    0  0.92513446074E+01  0.39408404580E+02  0.38152434758E+01  0.40659141793E+02  0.00000000000E+00 0.  1.
         11    1    3    3    0    0 -0.19394216358E+01 -0.10279096610E+02 -0.93287810767E+01  0.14015967324E+02  0.51100000000E-03 0. -1.
        -11    1    3    3    0    0 -0.15400143835E+01 -0.59040964277E+01 -0.71806176921E+01  0.94229119507E+01  0.51100000000E-03 0.  1.
        -12    1    3    3    0    0 -0.57719085881E+01 -0.23225211542E+02  0.12694155293E+02  0.27089978932E+02  0.00000000000E+00 0.  1.
</event>
<event>
 7    1  0.5487071E-013  0.5052885E+02  0.7816164E-02  0.1300439E+00
        -11   -1    0    0    0    0  0.00000000000E+00  0.00000000000E+00  0.45593999997E+02  0.45594000000E+02  0.51100000000E-03 0. -1.
         11   -1    0    0    0    0 -0.00000000000E+00 -0.00000000000E+00 -0.45593999997E+02  0.45594000000E+02  0.51100000000E-03 0.  1.
    9900012    2    1    2    0    0 -0.19181591184E+02  0.35322687926E+02  0.61270357804E+01  0.50528852319E+02  0.29999977109E+02 0.  0.
        -12    1    1    2    0    0  0.19181591184E+02 -0.35322687926E+02 -0.61270357804E+01  0.40659147681E+02  0.00000000000E+00 0.  1.
         11    1    3    3    0    0 -0.81212117159E+01 -0.66843929028E-04  0.74501990627E+01  0.11020868662E+02  0.51100000000E-03 0. -1.
        -11    1    3    3    0    0  0.18765699006E+01  0.93853231847E+01 -0.40552845176E+01  0.10394764964E+02  0.51100000000E-03 0.  1.
        -12    1    3    3    0    0 -0.12936949369E+02  0.25937431585E+02  0.27321212352E+01  0.29113218693E+02  0.00000000000E+00 0.  1.
</event>
<event>
 7    1  0.5487071E-013  0.5052886E+02  0.7816164E-02  0.1300439E+00
        -11   -1    0    0    0    0  0.00000000000E+00  0.00000000000E+00  0.45593999997E+02  0.45594000000E+02  0.51100000000E-03 0. -1.
         11   -1    0    0    0    0 -0.00000000000E+00 -0.00000000000E+00 -0.45593999997E+02  0.45594000000E+02  0.51100000000E-03 0.  1.
    9900012    2    1    2    0    0  0.26670210253E+02 -0.30653135264E+02 -0.15002600540E+01  0.50528860847E+02  0.30000003030E+02 0.  0.
        -12    1    1    2    0    0 -0.26670210253E+02  0.30653135264E+02  0.15002600540E+01  0.40659139153E+02  0.00000000000E+00 0.  1.
         11    1    3    3    0    0  0.31058621959E+01 -0.30360248809E+01  0.10911857337E+01  0.44782266159E+01  0.51100000000E-03 0. -1.
        -11    1    3    3    0    0 -0.54953638592E+01  0.27171975862E+00  0.10777521419E+01  0.56066394134E+01  0.51100000000E-03 0.  1.
        -12    1    3    3    0    0  0.29059711917E+02 -0.27888830141E+02 -0.36691979297E+01  0.40443994817E+02  0.00000000000E+00 0.  1.
</event>
<event>
 7    1  0.5487071E-013  0.5052886E+02  0.7816164E-02  0.1300439E+00
        -11   -1    0    0    0    0  0.00000000000E+00  0.00000000000E+00  0.45593999997E+02  0.45594000000E+02  0.51100000000E-03 0. -1.
         11   -1    0    0    0    0 -0.00000000000E+00 -0.00000000000E+00 -0.45593999997E+02  0.45594000000E+02  0.51100000000E-03 0.  1.
    9900012    2    1    2    0    0  0.20450584949E+01  0.30536756118E+02  0.26767330184E+02  0.50528859531E+02  0.29999999032E+02 0.  0.
        -12    1    1    2    0    0 -0.20450584949E+01 -0.30536756118E+02 -0.26767330184E+02  0.40659140469E+02  0.00000000000E+00 0.  1.
         11    1    3    3    0    0 -0.46373598736E+01  0.59183157560E+01  0.93748691597E+01  0.12017476441E+02  0.51100000000E-03 0.  1.
        -11    1    3    3    0    0 -0.68145579619E+01  0.17444610880E+02  0.12274293842E+02  0.22392207094E+02  0.51100000000E-03 0. -1.
        -12    1    3    3    0    0  0.13496976330E+02  0.71738294822E+01  0.51181671828E+01  0.16119175997E+02  0.00000000000E+00 0.  1.
</event>
<event>
 7    1  0.5487071E-013  0.5052886E+02  0.7816164E-02  0.1300439E+00
        -11   -1    0    0    0    0  0.00000000000E+00  0.00000000000E+00  0.45593999997E+02  0.45594000000E+02  0.51100000000E-03 0.  1.
         11   -1    0    0    0    0 -0.00000000000E+00 -0.00000000000E+00 -0.45593999997E+02  0.45594000000E+02  0.51100000000E-03 0. -1.
    9900012    2    1    2    0    0  0.99535939688E+01 -0.35795889995E+01 -0.39259112273E+02  0.50528863428E+02  0.30000010877E+02 0.  0.
        -12    1    1    2    0    0 -0.99535939688E+01  0.35795889995E+01  0.39259112273E+02  0.40659136572E+02  0.00000000000E+00 0.  1.
         11    1    3    3    0    0 -0.62007093798E+01  0.20077191782E+01 -0.20784693274E+02  0.21782635467E+02  0.51100000000E-03 0. -1.
        -11    1    3    3    0    0 -0.12505836469E+01  0.23990057186E+01 -0.35734911746E+01  0.44820784611E+01  0.51100000000E-03 0.  1.
         12    1    3    3    0    0  0.17404886996E+02 -0.79863138963E+01 -0.14900927824E+02  0.24264149501E+02  0.00000000000E+00 0. -1.
</event>
<event>
 7    1  0.5487071E-013  0.5052887E+02  0.7816164E-02  0.1300439E+00
        -11   -1    0    0    0    0  0.00000000000E+00  0.00000000000E+00  0.45593999997E+02  0.45594000000E+02  0.51100000000E-03 0. -1.
         11   -1    0    0    0    0 -0.00000000000E+00 -0.00000000000E+00 -0.45593999997E+02  0.45594000000E+02  0.51100000000E-03 0.  1.
    9900012    2    1    2    0    0 -0.37179273739E+02 -0.64336188440E+01  0.15148439889E+02  0.50528867223E+02  0.30000022410E+02 0.  0.
        -12    1    1    2    0    0  0.37179273739E+02  0.64336188440E+01 -0.15148439889E+02  0.40659132777E+02  0.00000000000E+00 0.  1.
         11    1    3    3    0    0 -0.20900288941E+02  0.49603236391E+01  0.16718654865E+02  0.27220218757E+02  0.51100000000E-03 0. -1.
        -11    1    3    3    0    0 -0.82958324727E+01 -0.36123426233E+00  0.31714222226E+01  0.88887145180E+01  0.51100000000E-03 0.  1.
        -12    1    3    3    0    0 -0.79831523247E+01 -0.11032708221E+02 -0.47416371989E+01  0.14419933947E+02  0.00000000000E+00 0.  1.
</event>
<event>
 7    1  0.5487071E-013  0.5052886E+02  0.7816164E-02  0.1300439E+00
        -11   -1    0    0    0    0  0.00000000000E+00  0.00000000000E+00  0.45593999997E+02  0.45594000000E+02  0.51100000000E-03 0.  1.
         11   -1    0    0    0    0 -0.00000000000E+00 -0.00000000000E+00 -0.45593999997E+02  0.45594000000E+02  0.51100000000E-03 0. -1.
    9900012    2    1    2    0    0 -0.14728822166E+02 -0.10390610026E+01 -0.37883343559E+02  0.50528861182E+02  0.30000004050E+02 0.  0.
        -12    1    1    2    0    0  0.14728822166E+02  0.10390610026E+01  0.37883343559E+02  0.40659138818E+02  0.00000000000E+00 0.  1.
         11    1    3    3    0    0 -0.24147277101E+01 -0.54211326288E+01  0.71429521320E+00  0.59774414933E+01  0.51100000000E-03 0. -1.
        -11    1    3    3    0    0  0.40800278755E+01  0.14240795286E+01 -0.30361271783E+01  0.52813538485E+01  0.51100000000E-03 0.  1.
         12    1    3    3    0    0 -0.16394122332E+02  0.29579920976E+01 -0.35561511594E+02  0.39270065841E+02  0.00000000000E+00 0. -1.
</event>
<event>
 7    1  0.5487071E-013  0.5052889E+02  0.7816164E-02  0.1300439E+00
        -11   -1    0    0    0    0  0.00000000000E+00  0.00000000000E+00  0.45593999997E+02  0.45594000000E+02  0.51100000000E-03 0.  1.
         11   -1    0    0    0    0 -0.00000000000E+00 -0.00000000000E+00 -0.45593999997E+02  0.45594000000E+02  0.51100000000E-03 0. -1.
    9900012    2    1    2    0    0 -0.37653999987E+02 -0.33821705009E+01 -0.14963310067E+02  0.50528887362E+02  0.30000083626E+02 0.  0.
        -12    1    1    2    0    0  0.37653999987E+02  0.33821705009E+01  0.14963310067E+02  0.40659112638E+02  0.00000000000E+00 0.  1.
         11    1    3    3    0    0 -0.47402488737E+01 -0.49770474161E+01 -0.11533922698E+02  0.13426553297E+02  0.51100000000E-03 0. -1.
        -11    1    3    3    0    0 -0.27837864603E+02  0.29088779131E+01 -0.90496670414E+01  0.29416062792E+02  0.51100000000E-03 0.  1.
        -12    1    3    3    0    0 -0.50758865108E+01 -0.13140009979E+01  0.56202796724E+01  0.76862712734E+01  0.00000000000E+00 0.  1.
</event>
<event>
 7    1  0.5487071E-013  0.5052891E+02  0.7816164E-02  0.1300439E+00
        -11   -1    0    0    0    0  0.00000000000E+00  0.00000000000E+00  0.45593999997E+02  0.45594000000E+02  0.51100000000E-03 0.  1.
         11   -1    0    0    0    0 -0.00000000000E+00 -0.00000000000E+00 -0.45593999997E+02  0.45594000000E+02  0.51100000000E-03 0. -1.
    9900012    2    1    2    0    0 -0.71968847732E+01  0.57496836431E+01 -0.39601859489E+02  0.50528913839E+02  0.30000164106E+02 0.  0.
        -12    1    1    2    0    0  0.71968847732E+01 -0.57496836431E+01  0.39601859489E+02  0.40659086161E+02  0.00000000000E+00 0.  1.
         11    1    3    3    0    0 -0.34149636479E+01  0.11795269839E+02 -0.12331246463E+02  0.17402586212E+02  0.51100000000E-03 0. -1.
        -11    1    3    3    0    0  0.38082882073E+01  0.12196290349E+01 -0.19885654874E+02  0.20283732991E+02  0.51100000000E-03 0.  1.
        -12    1    3    3    0    0 -0.75902093326E+01 -0.72652152306E+01 -0.73849581524E+01  0.12842594636E+02  0.00000000000E+00 0.  1.
</event>
<event>
 7    1  0.5487071E-013  0.5052888E+02  0.7816164E-02  0.1300439E+00
        -11   -1    0    0    0    0  0.00000000000E+00  0.00000000000E+00  0.45593999997E+02  0.45594000000E+02  0.51100000000E-03 0.  1.
         11   -1    0    0    0    0 -0.00000000000E+00 -0.00000000000E+00 -0.45593999997E+02  0.45594000000E+02  0.51100000000E-03 0. -1.
    9900012    2    1    2    0    0  0.14040764985E+02 -0.25936682176E+02 -0.27987666249E+02  0.50528880166E+02  0.30000061752E+02 0.  0.
        -12    1    1    2    0    0 -0.14040764985E+02  0.25936682176E+02  0.27987666249E+02  0.40659119834E+02  0.00000000000E+00 0.  1.
         11    1    3    3    0    0  0.28394427190E+01 -0.73353155213E+01 -0.29844152162E+01  0.84128486968E+01  0.51100000000E-03 0. -1.
        -11    1    3    3    0    0  0.11419132449E+02 -0.15454402908E+02 -0.24822232679E+01  0.19375153876E+02  0.51100000000E-03 0.  1.
        -12    1    3    3    0    0 -0.21781018267E+00 -0.31469637463E+01 -0.22521027765E+02  0.22740877592E+02  0.00000000000E+00 0.  1.
</event>
<event>
 7    1  0.5487071E-013  0.5052886E+02  0.7816164E-02  0.1300439E+00
        -11   -1    0    0    0    0  0.00000000000E+00  0.00000000000E+00  0.45593999997E+02  0.45594000000E+02  0.51100000000E-03 0. -1.
         11   -1    0    0    0    0 -0.00000000000E+00 -0.00000000000E+00 -0.45593999997E+02  0.45594000000E+02  0.51100000000E-03 0.  1.
    9900012    2    1    2    0    0 -0.16217444415E+02 -0.49869911569E+01  0.36949835440E+02  0.50528856831E+02  0.29999990824E+02 0.  0.
        -12    1    1    2    0    0  0.16217444415E+02  0.49869911569E+01 -0.36949835440E+02  0.40659143169E+02  0.00000000000E+00 0.  1.
         11    1    3    3    0    0 -0.28164690775E+01 -0.82458953080E+01  0.38306690399E+01  0.95184722014E+01  0.51100000000E-03 0.  1.
        -11    1    3    3    0    0 -0.12828899549E+02 -0.37210058992E+01  0.95437423222E+01  0.16416746520E+02  0.51100000000E-03 0. -1.
        -12    1    3    3    0    0 -0.57207578937E+00  0.69799100504E+01  0.23575424078E+02  0.24593638110E+02  0.00000000000E+00 0.  1.
</event>
<event>
 7    1  0.5487071E-013  0.5052886E+02  0.7816164E-02  0.1300439E+00
        -11   -1    0    0    0    0  0.00000000000E+00  0.00000000000E+00  0.45593999997E+02  0.45594000000E+02  0.51100000000E-03 0. -1.
         11   -1    0    0    0    0 -0.00000000000E+00 -0.00000000000E+00 -0.45593999997E+02  0.45594000000E+02  0.51100000000E-03 0.  1.
    9900012    2    1    2    0    0 -0.16131709896E+02  0.20393535624E+02  0.31257597378E+02  0.50528858921E+02  0.29999997177E+02 0.  0.
        -12    1    1    2    0    0  0.16131709896E+02 -0.20393535624E+02 -0.31257597378E+02  0.40659141079E+02  0.00000000000E+00 0.  1.
         11    1    3    3    0    0 -0.24609344982E+01  0.68328243161E+01 -0.53775905493E+00  0.72823671839E+01  0.51100000000E-03 0. -1.
        -11    1    3    3    0    0 -0.13967051787E+02  0.15117154399E-01  0.23566558294E+02  0.27394551178E+02  0.51100000000E-03 0.  1.
         12    1    3    3    0    0  0.29627638967E+00  0.13545594154E+02  0.82287981384E+01  0.15851940559E+02  0.00000000000E+00 0. -1.
</event>
<event>
 7    1  0.5487071E-013  0.5052892E+02  0.7816164E-02  0.1300439E+00
        -11   -1    0    0    0    0  0.00000000000E+00  0.00000000000E+00  0.45593999997E+02  0.45594000000E+02  0.51100000000E-03 0.  1.
         11   -1    0    0    0    0 -0.00000000000E+00 -0.00000000000E+00 -0.45593999997E+02  0.45594000000E+02  0.51100000000E-03 0. -1.
    9900012    2    1    2    0    0  0.33659841980E+02  0.72712562274E+01 -0.21617237325E+02  0.50528916405E+02  0.30000171905E+02 0.  0.
        -12    1    1    2    0    0 -0.33659841980E+02 -0.72712562274E+01  0.21617237325E+02  0.40659083595E+02  0.00000000000E+00 0.  1.
         11    1    3    3    0    0  0.14014491509E+02  0.91051530331E+00 -0.23154984284E+02  0.27081143030E+02  0.51100000000E-03 0. -1.
        -11    1    3    3    0    0  0.67516141463E+00 -0.21889571622E+01 -0.97344230621E+00  0.24889689790E+01  0.51100000000E-03 0.  1.
        -12    1    3    3    0    0  0.18970189056E+02  0.85496980863E+01  0.25111892655E+01  0.20958804396E+02  0.00000000000E+00 0.  1.
</event>
<event>
 7    1  0.5487071E-013  0.5052885E+02  0.7816164E-02  0.1300439E+00
        -11   -1    0    0    0    0  0.00000000000E+00  0.00000000000E+00  0.45593999997E+02  0.45594000000E+02  0.51100000000E-03 0. -1.
         11   -1    0    0    0    0 -0.00000000000E+00 -0.00000000000E+00 -0.45593999997E+02  0.45594000000E+02  0.51100000000E-03 0.  1.
    9900012    2    1    2    0    0  0.18420217981E+02  0.23711427365E+02  0.27415870490E+02  0.50528853761E+02  0.29999981492E+02 0.  0.
        -12    1    1    2    0    0 -0.18420217981E+02 -0.23711427365E+02 -0.27415870490E+02  0.40659146239E+02  0.00000000000E+00 0.  1.
         11    1    3    3    0    0  0.10893097360E+02  0.15562589726E+02  0.19404064478E+02  0.27154585020E+02  0.51100000000E-03 0. -1.
        -11    1    3    3    0    0  0.10231698884E+02 -0.27464515023E+01  0.52011593604E+01  0.11801809898E+02  0.51100000000E-03 0.  1.
         12    1    3    3    0    0 -0.27045782642E+01  0.10895289142E+02  0.28106466517E+01  0.11572458843E+02  0.00000000000E+00 0. -1.
</event>
<event>
 7    1  0.5487071E-013  0.5052888E+02  0.7816164E-02  0.1300439E+00
        -11   -1    0    0    0    0  0.00000000000E+00  0.00000000000E+00  0.45593999997E+02  0.45594000000E+02  0.51100000000E-03 0.  1.
         11   -1    0    0    0    0 -0.00000000000E+00 -0.00000000000E+00 -0.45593999997E+02  0.45594000000E+02  0.51100000000E-03 0. -1.
    9900012    2    1    2    0    0  0.30434187574E+02  0.19379250606E+02 -0.18744836969E+02  0.50528879985E+02  0.30000061203E+02 0.  0.
        -12    1    1    2    0    0 -0.30434187574E+02 -0.19379250606E+02  0.18744836969E+02  0.40659120015E+02  0.00000000000E+00 0.  1.
         11    1    3    3    0    0  0.89649438235E+01  0.40904870771E+00 -0.51744477888E+01  0.10359172206E+02  0.51100000000E-03 0. -1.
        -11    1    3    3    0    0  0.98544042445E+01 -0.10320718241E+01  0.44371415145E+01  0.10856458002E+02  0.51100000000E-03 0.  1.
         12    1    3    3    0    0  0.11614839506E+02  0.20002273722E+02 -0.18007530695E+02  0.29313249778E+02  0.00000000000E+00 0. -1.
</event>
<event>
 7    1  0.5487071E-013  0.5052886E+02  0.7816164E-02  0.1300439E+00
        -11   -1    0    0    0    0  0.00000000000E+00  0.00000000000E+00  0.45593999997E+02  0.45594000000E+02  0.51100000000E-03 0. -1.
         11   -1    0    0    0    0 -0.00000000000E+00 -0.00000000000E+00 -0.45593999997E+02  0.45594000000E+02  0.51100000000E-03 0.  1.
    9900012    2    1    2    0    0 -0.37827401277E+02 -0.79969854110E+01  0.12581795276E+02  0.50528860370E+02  0.30000001581E+02 0.  0.
        -12    1    1    2    0    0  0.37827401277E+02  0.79969854110E+01 -0.12581795276E+02  0.40659139630E+02  0.00000000000E+00 0.  1.
         11    1    3    3    0    0 -0.33822284893E+02 -0.44279762983E+01 -0.91521580566E+00  0.34123181999E+02  0.51100000000E-03 0. -1.
        -11    1    3    3    0    0  0.47440594317E+00  0.16063527041E+00 -0.81252243389E+00  0.95449340265E+00  0.51100000000E-03 0.  1.
        -12    1    3    3    0    0 -0.44795223276E+01 -0.37296443831E+01  0.14309533516E+02  0.15451184969E+02  0.00000000000E+00 0.  1.
</event>
<event>
 7    1  0.5487071E-013  0.5052886E+02  0.7816164E-02  0.1300439E+00
        -11   -1    0    0    0    0  0.00000000000E+00  0.00000000000E+00  0.45593999997E+02  0.45594000000E+02  0.51100000000E-03 0.  1.
         11   -1    0    0    0    0 -0.00000000000E+00 -0.00000000000E+00 -0.45593999997E+02  0.45594000000E+02  0.51100000000E-03 0. -1.
    9900012    2    1    2    0    0 -0.36377387081E+02 -0.26898782058E+01 -0.17961506956E+02  0.50528862432E+02  0.30000007849E+02 0.  0.
        -12    1    1    2    0    0  0.36377387081E+02  0.26898782058E+01  0.17961506956E+02  0.40659137568E+02  0.00000000000E+00 0.  1.
         11    1    3    3    0    0 -0.11168229435E+02 -0.72304607998E+01 -0.94377068493E+01  0.16311934984E+02  0.51100000000E-03 0. -1.
        -11    1    3    3    0    0 -0.16375984027E+02 -0.75333651536E+01 -0.30221461809E+01  0.18277248458E+02  0.51100000000E-03 0.  1.
        -12    1    3    3    0    0 -0.88331736189E+01  0.12073947748E+02 -0.55016539263E+01  0.15939678990E+02  0.00000000000E+00 0.  1.
</event>
<event>
 7    1  0.5487071E-013  0.5052886E+02  0.7816164E-02  0.1300439E+00
        -11   -1    0    0    0    0  0.00000000000E+00  0.00000000000E+00  0.45593999997E+02  0.45594000000E+02  0.51100000000E-03 0.  1.
         11   -1    0    0    0    0 -0.00000000000E+00 -0.00000000000E+00 -0.45593999997E+02  0.45594000000E+02  0.51100000000E-03 0. -1.
    9900012    2    1    2    0    0 -0.91168355689E+01 -0.37049550386E+02  0.14049184404E+02  0.50528862565E+02  0.30000008252E+02 0.  0.
        -12    1    1    2    0    0  0.91168355689E+01  0.37049550386E+02 -0.14049184404E+02  0.40659137435E+02  0.00000000000E+00 0.  1.
         11    1    3    3    0    0  0.13801606604E+00 -0.21771375408E+01  0.72954818707E+01  0.76146590398E+01  0.51100000000E-03 0. -1.
        -11    1    3    3    0    0  0.41924593195E+01 -0.12868269045E+02  0.10131479004E+02  0.16906091519E+02  0.51100000000E-03 0.  1.
         12    1    3    3    0    0 -0.13447310954E+02 -0.22004143799E+02 -0.33777764704E+01  0.26008112006E+02  0.00000000000E+00 0. -1.
</event>
<event>
 7    1  0.5487071E-013  0.5052885E+02  0.7816164E-02  0.1300439E+00
        -11   -1    0    0    0    0  0.00000000000E+00  0.00000000000E+00  0.45593999997E+02  0.45594000000E+02  0.51100000000E-03 0. -1.
         11   -1    0    0    0    0 -0.00000000000E+00 -0.00000000000E+00 -0.45593999997E+02  0.45594000000E+02  0.51100000000E-03 0.  1.
    9900012    2    1    2    0    0  0.39057913646E+02  0.10601036125E+02  0.39069054953E+01  0.50528849790E+02  0.29999969421E+02 0.  0.
        -12    1    1    2    0    0 -0.39057913646E+02 -0.10601036125E+02 -0.39069054953E+01  0.40659150210E+02  0.00000000000E+00 0.  1.
         11    1    3    3    0    0  0.29235837856E+01  0.55540535829E+00 -0.33532177675E+01  0.44832897431E+01  0.51100000000E-03 0. -1.
        -11    1    3    3    0    0  0.21067948711E+02  0.12041733282E+02 -0.69468776854E+01  0.25241254191E+02  0.51100000000E-03 0.  1.
         12    1    3    3    0    0  0.15066381149E+02 -0.19961025145E+01  0.14207000948E+02  0.20804305855E+02  0.00000000000E+00 0. -1.
</event>
<event>
 7    1  0.5487071E-013  0.5052886E+02  0.7816164E-02  0.1300439E+00
        -11   -1    0    0    0    0  0.00000000000E+00  0.00000000000E+00  0.45593999997E+02  0.45594000000E+02  0.51100000000E-03 0. -1.
         11   -1    0    0    0    0 -0.00000000000E+00 -0.00000000000E+00 -0.45593999997E+02  0.45594000000E+02  0.51100000000E-03 0.  1.
    9900012    2    1    2    0    0 -0.14916756127E+02 -0.73112584344E+01  0.37110670814E+02  0.50528855868E+02  0.29999987897E+02 0.  0.
        -12    1    1    2    0    0  0.14916756127E+02  0.73112584344E+01 -0.37110670814E+02  0.40659144132E+02  0.00000000000E+00 0.  1.
         11    1    3    3    0    0  0.10955436193E+01  0.30147029655E+01  0.74867565756E+00  0.32938071124E+01  0.51100000000E-03 0. -1.
        -11    1    3    3    0    0 -0.93349862792E+01  0.12440834688E-01  0.53187287737E+00  0.93501343641E+01  0.51100000000E-03 0.  1.
         12    1    3    3    0    0 -0.66773134668E+01 -0.10338402235E+02  0.35830122280E+02  0.37884914392E+02  0.00000000000E+00 0. -1.
</event>
<event>
 7    1  0.5487071E-013  0.5052886E+02  0.7816164E-02  0.1300439E+00
        -11   -1    0    0    0    0  0.00000000000E+00  0.00000000000E+00  0.45593999997E+02  0.45594000000E+02  0.51100000000E-03 0.  1.
         11   -1    0    0    0    0 -0.00000000000E+00 -0.00000000000E+00 -0.45593999997E+02  0.45594000000E+02  0.51100000000E-03 0. -1.
    9900012    2    1    2    0    0 -0.26389912300E+01 -0.81437112716E+01 -0.39747724400E+02  0.50528857080E+02  0.29999991581E+02 0.  0.
        -12    1    1    2    0    0  0.26389912300E+01  0.81437112716E+01  0.39747724400E+02  0.40659142920E+02  0.00000000000E+00 0.  1.
         11    1    3    3    0    0  0.77916352164E+01 -0.48895177353E+01 -0.69879496242E+01  0.11551986982E+02  0.51100000000E-03 0. -1.
        -11    1    3    3    0    0  0.27998772888E+01 -0.68220401729E+01 -0.12641230140E+02  0.14634898178E+02  0.51100000000E-03 0.  1.
         12    1    3    3    0    0 -0.13230503735E+02  0.35678466366E+01 -0.20118544635E+02  0.24341971920E+02  0.00000000000E+00 0. -1.
</event>
<event>
 7    1  0.5487071E-013  0.5052886E+02  0.7816164E-02  0.1300439E+00
        -11   -1    0    0    0    0  0.00000000000E+00  0.00000000000E+00  0.45593999997E+02  0.45594000000E+02  0.51100000000E-03 0.  1.
         11   -1    0    0    0    0 -0.00000000000E+00 -0.00000000000E+00 -0.45593999997E+02  0.45594000000E+02  0.51100000000E-03 0. -1.
    9900012    2    1    2    0    0  0.35162657980E+02 -0.11450075338E+01 -0.20382398181E+02  0.50528859403E+02  0.29999998641E+02 0.  0.
        -12    1    1    2    0    0 -0.35162657980E+02  0.11450075338E+01  0.20382398181E+02  0.40659140597E+02  0.00000000000E+00 0.  1.
         11    1    3    3    0    0  0.21664152538E+02 -0.60781611337E+01 -0.18644091391E+02  0.29221254114E+02  0.51100000000E-03 0. -1.
        -11    1    3    3    0    0  0.47436194801E+01  0.14160355082E-01 -0.81237101448E+01  0.94072734130E+01  0.51100000000E-03 0.  1.
        -12    1    3    3    0    0  0.87548859622E+01  0.49189932447E+01  0.63854033545E+01  0.11900331876E+02  0.00000000000E+00 0.  1.
</event>
<event>
 7    1  0.5487071E-013  0.5052886E+02  0.7816164E-02  0.1300439E+00
        -11   -1    0    0    0    0  0.00000000000E+00  0.00000000000E+00  0.45593999997E+02  0.45594000000E+02  0.51100000000E-03 0.  1.
         11   -1    0    0    0    0 -0.00000000000E+00 -0.00000000000E+00 -0.45593999997E+02  0.45594000000E+02  0.51100000000E-03 0. -1.
    9900012    2    1    2    0    0 -0.78880665067E+01  0.11150152433E+02 -0.38296451928E+02  0.50528859296E+02  0.29999998317E+02 0.  0.
        -12    1    1    2    0    0  0.78880665067E+01 -0.11150152433E+02  0.38296451928E+02  0.40659140704E+02  0.00000000000E+00 0.  1.
         11    1    3    3    0    0  0.32599790924E+01  0.60116831361E+01 -0.23812638098E+02  0.24775179742E+02  0.51100000000E-03 0. -1.
        -11    1    3    3    0    0  0.33755955025E+00 -0.14149327138E+01  0.32917546052E+01  0.35988372673E+01  0.51100000000E-03 0.  1.
        -12    1    3    3    0    0 -0.11485605149E+02  0.65534020104E+01 -0.17775568435E+02  0.22154842287E+02  0.00000000000E+00 0.  1.
</event>
<event>
 7    1  0.5487071E-013  0.5052882E+02  0.7816164E-02  0.1300439E+00
        -11   -1    0    0    0    0  0.00000000000E+00  0.00000000000E+00  0.45593999997E+02  0.45594000000E+02  0.51100000000E-03 0.  1.
         11   -1    0    0    0    0 -0.00000000000E+00 -0.00000000000E+00 -0.45593999997E+02  0.45594000000E+02  0.51100000000E-03 0. -1.
    9900012    2    1    2    0    0 -0.32659687096E+02 -0.18723404304E+02 -0.15360598942E+02  0.50528818628E+02  0.29999874702E+02 0.  0.
        -12    1    1    2    0    0  0.32659687096E+02  0.18723404304E+02  0.15360598942E+02  0.40659181372E+02  0.00000000000E+00 0.  1.
         11    1    3    3    0    0 -0.43104493685E+01 -0.94159586387E+01 -0.13020857415E+02  0.16636795933E+02  0.51100000000E-03 0. -1.
        -11    1    3    3    0    0 -0.30831436451E+01 -0.69946639668E+01 -0.36824706186E+01  0.84847916216E+01  0.51100000000E-03 0.  1.
        -12    1    3    3    0    0 -0.25266094083E+02 -0.23127816989E+01  0.13427290916E+01  0.25407231073E+02  0.00000000000E+00 0.  1.
</event>
<event>
 7    1  0.5487071E-013  0.5052886E+02  0.7816164E-02  0.1300439E+00
        -11   -1    0    0    0    0  0.00000000000E+00  0.00000000000E+00  0.45593999997E+02  0.45594000000E+02  0.51100000000E-03 0.  1.
         11   -1    0    0    0    0 -0.00000000000E+00 -0.00000000000E+00 -0.45593999997E+02  0.45594000000E+02  0.51100000000E-03 0. -1.
    9900012    2    1    2    0    0 -0.23559319510E+02 -0.24740596301E+02 -0.22046025476E+02  0.50528857358E+02  0.29999992425E+02 0.  0.
        -12    1    1    2    0    0  0.23559319510E+02  0.24740596301E+02  0.22046025476E+02  0.40659142642E+02  0.00000000000E+00 0.  1.
         11    1    3    3    0    0 -0.14681228328E+02  0.19003086171E+01 -0.11141426626E+02  0.18527844601E+02  0.51100000000E-03 0. -1.
        -11    1    3    3    0    0 -0.30770297597E+01 -0.76119314406E+00  0.35178573037E+00  0.31892445196E+01  0.51100000000E-03 0.  1.
         12    1    3    3    0    0 -0.58010614228E+01 -0.25879711774E+02 -0.11256384581E+02  0.28811768237E+02  0.00000000000E+00 0. -1.
</event>
<event>
 7    1  0.5487071E-013  0.5052883E+02  0.7816164E-02  0.1300439E+00
        -11   -1    0    0    0    0  0.00000000000E+00  0.00000000000E+00  0.45593999997E+02  0.45594000000E+02  0.51100000000E-03 0.  1.
         11   -1    0    0    0    0 -0.00000000000E+00 -0.00000000000E+00 -0.45593999997E+02  0.45594000000E+02  0.51100000000E-03 0. -1.
    9900012    2    1    2    0    0  0.20727469906E+02 -0.13766788261E+02 -0.32156112417E+02  0.50528830881E+02  0.29999911945E+02 0.  0.
        -12    1    1    2    0    0 -0.20727469906E+02  0.13766788261E+02  0.32156112417E+02  0.40659169119E+02  0.00000000000E+00 0.  1.
         11    1    3    3    0    0  0.11133350714E+02  0.22732439586E+01 -0.10207357472E+02  0.15274465066E+02  0.51100000000E-03 0. -1.
        -11    1    3    3    0    0  0.95156193079E+01  0.14636247343E+01 -0.10955619491E+02  0.14584745691E+02  0.51100000000E-03 0.  1.
         12    1    3    3    0    0  0.78499884593E-01 -0.17503656954E+02 -0.10993135454E+02  0.20669620124E+02  0.00000000000E+00 0. -1.
</event>
<event>
 7    1  0.5487071E-013  0.5052885E+02  0.7816164E-02  0.1300439E+00
        -11   -1    0    0    0    0  0.00000000000E+00  0.00000000000E+00  0.45593999997E+02  0.45594000000E+02  0.51100000000E-03 0. -1.
         11   -1    0    0    0    0 -0.00000000000E+00 -0.00000000000E+00 -0.45593999997E+02  0.45594000000E+02  0.51100000000E-03 0.  1.
    9900012    2    1    2    0    0 -0.30651070394E+01 -0.74949580425E+01  0.39844664400E+02  0.50528849020E+02  0.29999967082E+02 0.  0.
        -12    1    1    2    0    0  0.30651070394E+01  0.74949580425E+01 -0.39844664400E+02  0.40659150980E+02  0.00000000000E+00 0.  1.
         11    1    3    3    0    0  0.13735014386E+00  0.57975887635E+01  0.15790011327E+01  0.60103365439E+01  0.51100000000E-03 0. -1.
        -11    1    3    3    0    0 -0.80887706453E+01 -0.54157040523E+01  0.72229419984E+01  0.12121425341E+02  0.51100000000E-03 0.  1.
         12    1    3    3    0    0  0.48863134621E+01 -0.78768427536E+01  0.31042721269E+02  0.32397087135E+02  0.00000000000E+00 0. -1.
</event>
<event>
 7    1  0.5487071E-013  0.5052878E+02  0.7816164E-02  0.1300439E+00
        -11   -1    0    0    0    0  0.00000000000E+00  0.00000000000E+00  0.45593999997E+02  0.45594000000E+02  0.51100000000E-03 0. -1.
         11   -1    0    0    0    0 -0.00000000000E+00 -0.00000000000E+00 -0.45593999997E+02  0.45594000000E+02  0.51100000000E-03 0.  1.
    9900012    2    1    2    0    0 -0.36597717311E+02 -0.17673216864E+02  0.11987334963E+01  0.50528776339E+02  0.29999746160E+02 0.  0.
        -12    1    1    2    0    0  0.36597717311E+02  0.17673216864E+02 -0.11987334963E+01  0.40659223661E+02  0.00000000000E+00 0.  1.
         11    1    3    3    0    0 -0.58222805678E+01 -0.14480782697E+01 -0.37833692948E+00  0.60115739020E+01  0.51100000000E-03 0. -1.
        -11    1    3    3    0    0 -0.19424833099E+01 -0.27276887700E+00  0.10255827091E+02  0.10441725617E+02  0.51100000000E-03 0.  1.
         12    1    3    3    0    0 -0.28832953433E+02 -0.15952369717E+02 -0.86787566655E+01  0.34075476820E+02  0.00000000000E+00 0. -1.
</event>
<event>
 7    1  0.5487071E-013  0.5052886E+02  0.7816164E-02  0.1300439E+00
        -11   -1    0    0    0    0  0.00000000000E+00  0.00000000000E+00  0.45593999997E+02  0.45594000000E+02  0.51100000000E-03 0.  1.
         11   -1    0    0    0    0 -0.00000000000E+00 -0.00000000000E+00 -0.45593999997E+02  0.45594000000E+02  0.51100000000E-03 0. -1.
    9900012    2    1    2    0    0 -0.36154953449E+02 -0.67934583895E+01 -0.17315713596E+02  0.50528859907E+02  0.30000000172E+02 0.  0.
        -12    1    1    2    0    0  0.36154953449E+02  0.67934583895E+01  0.17315713596E+02  0.40659140093E+02  0.00000000000E+00 0.  1.
         11    1    3    3    0    0 -0.10607133723E+02 -0.10282652572E+02 -0.95124896222E+01  0.17570762328E+02  0.51100000000E-03 0. -1.
        -11    1    3    3    0    0 -0.24781155849E+02  0.46725387712E+01 -0.12434592613E+02  0.28116852553E+02  0.51100000000E-03 0.  1.
        -12    1    3    3    0    0 -0.76666387758E+00 -0.11833445886E+01  0.46313686396E+01  0.48412450251E+01  0.00000000000E+00 0.  1.
</event>
<event>
 7    1  0.5487071E-013  0.5052886E+02  0.7816164E-02  0.1300439E+00
        -11   -1    0    0    0    0  0.00000000000E+00  0.00000000000E+00  0.45593999997E+02  0.45594000000E+02  0.51100000000E-03 0. -1.
         11   -1    0    0    0    0 -0.00000000000E+00 -0.00000000000E+00 -0.45593999997E+02  0.45594000000E+02  0.51100000000E-03 0.  1.
    9900012    2    1    2    0    0  0.18184060047E+01  0.39488342161E+02 -0.95147093310E+01  0.50528862519E+02  0.30000008113E+02 0.  0.
        -12    1    1    2    0    0 -0.18184060047E+01 -0.39488342161E+02  0.95147093310E+01  0.40659137481E+02  0.00000000000E+00 0.  1.
         11    1    3    3    0    0  0.35952769925E+00  0.10272388270E+02  0.61717174729E+01  0.11989216728E+02  0.51100000000E-03 0. -1.
        -11    1    3    3    0    0  0.78988135000E+01  0.95426958420E+01  0.28977129599E+00  0.12391055900E+02  0.51100000000E-03 0.  1.
        -12    1    3    3    0    0 -0.64399351946E+01  0.19673258049E+02 -0.15976198100E+02  0.26148589891E+02  0.00000000000E+00 0.  1.
</event>
<event>
 7    1  0.5487071E-013  0.5052886E+02  0.7816164E-02  0.1300439E+00
        -11   -1    0    0    0    0  0.00000000000E+00  0.00000000000E+00  0.45593999997E+02  0.45594000000E+02  0.51100000000E-03 0. -1.
         11   -1    0    0    0    0 -0.00000000000E+00 -0.00000000000E+00 -0.45593999997E+02  0.45594000000E+02  0.51100000000E-03 0.  1.
    9900012    2    1    2    0    0  0.64176466103E+01 -0.13122098749E+01  0.40128010929E+02  0.50528863956E+02  0.30000012480E+02 0.  0.
        -12    1    1    2    0    0 -0.64176466103E+01  0.13122098749E+01 -0.40128010929E+02  0.40659136044E+02  0.00000000000E+00 0.  1.
         11    1    3    3    0    0  0.11601102497E+01  0.86808042449E+01  0.92809610603E+01  0.12760817238E+02  0.51100000000E-03 0. -1.
        -11    1    3    3    0    0  0.12716903633E+01 -0.11982408337E+01  0.27489724321E+02  0.27545197785E+02  0.51100000000E-03 0.  1.
        -12    1    3    3    0    0  0.39858459973E+01 -0.87947732861E+01  0.33573255469E+01  0.10222848932E+02  0.00000000000E+00 0.  1.
</event>
<event>
 7    1  0.5487071E-013  0.5052887E+02  0.7816164E-02  0.1300439E+00
        -11   -1    0    0    0    0  0.00000000000E+00  0.00000000000E+00  0.45593999997E+02  0.45594000000E+02  0.51100000000E-03 0.  1.
         11   -1    0    0    0    0 -0.00000000000E+00 -0.00000000000E+00 -0.45593999997E+02  0.45594000000E+02  0.51100000000E-03 0. -1.
    9900012    2    1    2    0    0 -0.27362894396E+02 -0.30067982490E+02 -0.59443471639E+00  0.50528869249E+02  0.30000028570E+02 0.  0.
        -12    1    1    2    0    0  0.27362894396E+02  0.30067982490E+02  0.59443471639E+00  0.40659130751E+02  0.00000000000E+00 0.  1.
         11    1    3    3    0    0 -0.69402317577E+01 -0.88817676431E+01  0.47065013520E+01  0.12214899449E+02  0.51100000000E-03 0. -1.
        -11    1    3    3    0    0 -0.13326084722E+02 -0.32099255318E+01  0.70139239438E+01  0.15397509061E+02  0.51100000000E-03 0.  1.
         12    1    3    3    0    0 -0.70965779163E+01 -0.17976289315E+02 -0.12314860012E+02  0.22916460739E+02  0.00000000000E+00 0. -1.
</event>
<event>
 7    1  0.5487071E-013  0.5052887E+02  0.7816164E-02  0.1300439E+00
        -11   -1    0    0    0    0  0.00000000000E+00  0.00000000000E+00  0.45593999997E+02  0.45594000000E+02  0.51100000000E-03 0. -1.
         11   -1    0    0    0    0 -0.00000000000E+00 -0.00000000000E+00 -0.45593999997E+02  0.45594000000E+02  0.51100000000E-03 0.  1.
    9900012    2    1    2    0    0  0.37502145398E+02  0.15324042320E+02  0.34536849302E+01  0.50528866683E+02  0.30000020770E+02 0.  0.
        -12    1    1    2    0    0 -0.37502145398E+02 -0.15324042320E+02 -0.34536849302E+01  0.40659133317E+02  0.00000000000E+00 0.  1.
         11    1    3    3    0    0  0.26220148845E+02  0.66129170097E+01  0.53585171029E+00  0.27046515749E+02  0.51100000000E-03 0. -1.
        -11    1    3    3    0    0  0.76950592286E+01  0.12349866003E+01  0.99297716278E+01  0.12622974819E+02  0.51100000000E-03 0.  1.
        -12    1    3    3    0    0  0.35869373239E+01  0.74761387100E+01 -0.70119384079E+01  0.10859376115E+02  0.00000000000E+00 0.  1.
</event>
<event>
 7    1  0.5487071E-013  0.5052886E+02  0.7816164E-02  0.1300439E+00
        -11   -1    0    0    0    0  0.00000000000E+00  0.00000000000E+00  0.45593999997E+02  0.45594000000E+02  0.51100000000E-03 0.  1.
         11   -1    0    0    0    0 -0.00000000000E+00 -0.00000000000E+00 -0.45593999997E+02  0.45594000000E+02  0.51100000000E-03 0. -1.
    9900012    2    1    2    0    0  0.11298349206E+02 -0.66462248877E+01 -0.38488190362E+02  0.50528858379E+02  0.29999995529E+02 0.  0.
        -12    1    1    2    0    0 -0.11298349206E+02  0.66462248877E+01  0.38488190362E+02  0.40659141621E+02  0.00000000000E+00 0.  1.
         11    1    3    3    0    0  0.41655349984E+01 -0.71160042757E+01 -0.18069353634E+02  0.19861790948E+02  0.51100000000E-03 0. -1.
        -11    1    3    3    0    0  0.14556936413E+02  0.31040336327E+01 -0.14807345430E+02  0.20995163764E+02  0.51100000000E-03 0.  1.
        -12    1    3    3    0    0 -0.74241222055E+01 -0.26342542447E+01 -0.56114912977E+01  0.96719036664E+01  0.00000000000E+00 0.  1.
</event>
<event>
 7    1  0.5487071E-013  0.5052887E+02  0.7816164E-02  0.1300439E+00
        -11   -1    0    0    0    0  0.00000000000E+00  0.00000000000E+00  0.45593999997E+02  0.45594000000E+02  0.51100000000E-03 0. -1.
         11   -1    0    0    0    0 -0.00000000000E+00 -0.00000000000E+00 -0.45593999997E+02  0.45594000000E+02  0.51100000000E-03 0.  1.
    9900012    2    1    2    0    0 -0.18517193397E+02  0.21142879483E+01  0.36135968990E+02  0.50528869172E+02  0.30000028337E+02 0.  0.
        -12    1    1    2    0    0  0.18517193397E+02 -0.21142879483E+01 -0.36135968990E+02  0.40659130828E+02  0.00000000000E+00 0.  1.
         11    1    3    3    0    0  0.21364338314E+01  0.40872710205E+01  0.86928960423E+01  0.98405576963E+01  0.51100000000E-03 0. -1.
        -11    1    3    3    0    0 -0.44229262132E+01  0.88874720826E+01  0.56385049991E+01  0.11416749765E+02  0.51100000000E-03 0.  1.
         12    1    3    3    0    0 -0.16230701015E+02 -0.10860455155E+02  0.21804567949E+02  0.29271561711E+02  0.00000000000E+00 0. -1.
</event>
<event>
 7    1  0.5487071E-013  0.5052885E+02  0.7816164E-02  0.1300439E+00
        -11   -1    0    0    0    0  0.00000000000E+00  0.00000000000E+00  0.45593999997E+02  0.45594000000E+02  0.51100000000E-03 0. -1.
         11   -1    0    0    0    0 -0.00000000000E+00 -0.00000000000E+00 -0.45593999997E+02  0.45594000000E+02  0.51100000000E-03 0.  1.
    9900012    2    1    2    0    0 -0.42108173584E+01 -0.32434868225E+02  0.24153979036E+02  0.50528851425E+02  0.29999974390E+02 0.  0.
        -12    1    1    2    0    0  0.42108173584E+01  0.32434868225E+02 -0.24153979036E+02  0.40659148575E+02  0.00000000000E+00 0.  1.
         11    1    3    3    0    0 -0.23674703088E+01  0.15978191567E+01 -0.92769445320E+00  0.30030915704E+01  0.51100000000E-03 0. -1.
        -11    1    3    3    0    0 -0.45605259812E+01 -0.46464592286E+01 -0.26498535714E+01  0.70292037102E+01  0.51100000000E-03 0.  1.
         12    1    3    3    0    0  0.27171789316E+01 -0.29386228153E+02  0.27731527060E+02  0.40496556144E+02  0.00000000000E+00 0. -1.
</event>
<event>
 7    1  0.5487071E-013  0.5052886E+02  0.7816164E-02  0.1300439E+00
        -11   -1    0    0    0    0  0.00000000000E+00  0.00000000000E+00  0.45593999997E+02  0.45594000000E+02  0.51100000000E-03 0. -1.
         11   -1    0    0    0    0 -0.00000000000E+00 -0.00000000000E+00 -0.45593999997E+02  0.45594000000E+02  0.51100000000E-03 0.  1.
    9900012    2    1    2    0    0  0.31643085034E+02  0.56180125413E+01  0.24906194317E+02  0.50528863133E+02  0.30000009979E+02 0.  0.
        -12    1    1    2    0    0 -0.31643085034E+02 -0.56180125413E+01 -0.24906194317E+02  0.40659136867E+02  0.00000000000E+00 0.  1.
         11    1    3    3    0    0  0.46121880310E+01 -0.34209103270E+01  0.15240240346E+02  0.16286185310E+02  0.51100000000E-03 0. -1.
        -11    1    3    3    0    0  0.13384169540E+01 -0.38044568179E+01  0.36014302933E+00  0.40490683971E+01  0.51100000000E-03 0.  1.
         12    1    3    3    0    0  0.25692480049E+02  0.12843379686E+02  0.93058109420E+01  0.30193609426E+02  0.00000000000E+00 0. -1.
</event>
<event>
 7    1  0.5487071E-013  0.5052886E+02  0.7816164E-02  0.1300439E+00
        -11   -1    0    0    0    0  0.00000000000E+00  0.00000000000E+00  0.45593999997E+02  0.45594000000E+02  0.51100000000E-03 0. -1.
         11   -1    0    0    0    0 -0.00000000000E+00 -0.00000000000E+00 -0.45593999997E+02  0.45594000000E+02  0.51100000000E-03 0.  1.
    9900012    2    1    2    0    0 -0.20123452688E+02 -0.18609709150E+02  0.30031499509E+02  0.50528860984E+02  0.30000003447E+02 0.  0.
        -12    1    1    2    0    0  0.20123452688E+02  0.18609709150E+02 -0.30031499509E+02  0.40659139016E+02  0.00000000000E+00 0.  1.
         11    1    3    3    0    0 -0.10998734592E+01 -0.52554093466E+01  0.19881851004E+01  0.57255505657E+01  0.51100000000E-03 0. -1.
        -11    1    3    3    0    0 -0.28817139469E+01 -0.17676378501E+02  0.11469345172E+02  0.21267451919E+02  0.51100000000E-03 0.  1.
        -12    1    3    3    0    0 -0.16141865281E+02  0.43220786977E+01  0.16573969237E+02  0.23535858500E+02  0.00000000000E+00 0.  1.
</event>
<event>
 7    1  0.5487071E-013  0.5052886E+02  0.7816164E-02  0.1300439E+00
        -11   -1    0    0    0    0  0.00000000000E+00  0.00000000000E+00  0.45593999997E+02  0.45594000000E+02  0.51100000000E-03 0.  1.
         11   -1    0    0    0    0 -0.00000000000E+00 -0.00000000000E+00 -0.45593999997E+02  0.45594000000E+02  0.51100000000E-03 0. -1.
    9900012    2    1    2    0    0 -0.23174093515E+02 -0.32815977351E+02  0.62640569858E+01  0.50528863392E+02  0.30000010766E+02 0.  0.
        -12    1    1    2    0    0  0.23174093515E+02  0.32815977351E+02 -0.62640569858E+01  0.40659136608E+02  0.00000000000E+00 0.  1.
         11    1    3    3    0    0 -0.19476474952E+02 -0.32565345772E+02  0.13741220982E+02  0.40356610067E+02  0.51100000000E-03 0. -1.
        -11    1    3    3    0    0 -0.26330540470E+01 -0.27503565693E+00 -0.28165582265E-01  0.26475293744E+01  0.51100000000E-03 0.  1.
        -12    1    3    3    0    0 -0.10645645163E+01  0.24404077086E-01 -0.74489984135E+01  0.75247239506E+01  0.00000000000E+00 0.  1.
</event>
<event>
 7    1  0.5487071E-013  0.5052886E+02  0.7816164E-02  0.1300439E+00
        -11   -1    0    0    0    0  0.00000000000E+00  0.00000000000E+00  0.45593999997E+02  0.45594000000E+02  0.51100000000E-03 0.  1.
         11   -1    0    0    0    0 -0.00000000000E+00 -0.00000000000E+00 -0.45593999997E+02  0.45594000000E+02  0.51100000000E-03 0. -1.
    9900012    2    1    2    0    0  0.14756390641E+02 -0.19919192327E+02 -0.32227940899E+02  0.50528862499E+02  0.30000008053E+02 0.  0.
        -12    1    1    2    0    0 -0.14756390641E+02  0.19919192327E+02  0.32227940899E+02  0.40659137501E+02  0.00000000000E+00 0.  1.
         11    1    3    3    0    0  0.57620214041E+01 -0.11600003102E+02 -0.24605893086E+01  0.13183909232E+02  0.51100000000E-03 0. -1.
        -11    1    3    3    0    0  0.52601251127E+01 -0.47817788121E+01  0.28064045047E-01  0.71088052907E+01  0.51100000000E-03 0.  1.
         12    1    3    3    0    0  0.37342441244E+01 -0.35374104131E+01 -0.29795415635E+02  0.30236147977E+02  0.00000000000E+00 0. -1.
</event>
<event>
 7    1  0.5487071E-013  0.5052885E+02  0.7816164E-02  0.1300439E+00
        -11   -1    0    0    0    0  0.00000000000E+00  0.00000000000E+00  0.45593999997E+02  0.45594000000E+02  0.51100000000E-03 0.  1.
         11   -1    0    0    0    0 -0.00000000000E+00 -0.00000000000E+00 -0.45593999997E+02  0.45594000000E+02  0.51100000000E-03 0. -1.
    9900012    2    1    2    0    0  0.33544192539E+02 -0.22034272910E+02 -0.65149113878E+01  0.50528854581E+02  0.29999983984E+02 0.  0.
        -12    1    1    2    0    0 -0.33544192539E+02  0.22034272910E+02  0.65149113878E+01  0.40659145419E+02  0.00000000000E+00 0.  1.
         11    1    3    3    0    0  0.23483283817E+02 -0.11134505300E+02 -0.56915367135E+01  0.26605176518E+02  0.51100000000E-03 0. -1.
        -11    1    3    3    0    0  0.14353180106E+02 -0.72305116916E+01 -0.50765819501E+01  0.16854250593E+02  0.51100000000E-03 0.  1.
        -12    1    3    3    0    0 -0.42922713841E+01 -0.36692559184E+01  0.42532072757E+01  0.70694274704E+01  0.00000000000E+00 0.  1.
</event>
<event>
 7    1  0.5487071E-013  0.5052886E+02  0.7816164E-02  0.1300439E+00
        -11   -1    0    0    0    0  0.00000000000E+00  0.00000000000E+00  0.45593999997E+02  0.45594000000E+02  0.51100000000E-03 0. -1.
         11   -1    0    0    0    0 -0.00000000000E+00 -0.00000000000E+00 -0.45593999997E+02  0.45594000000E+02  0.51100000000E-03 0.  1.
    9900012    2    1    2    0    0  0.22393437868E+02 -0.28277098574E+02  0.18764461819E+02  0.50528863380E+02  0.30000010730E+02 0.  0.
        -12    1    1    2    0    0 -0.22393437868E+02  0.28277098574E+02 -0.18764461819E+02  0.40659136620E+02  0.00000000000E+00 0.  1.
         11    1    3    3    0    0  0.15314933987E+01 -0.44107195845E+01 -0.40319149350E+01  0.61689754082E+01  0.51100000000E-03 0. -1.
        -11    1    3    3    0    0  0.17750055305E+02 -0.46099835390E+01  0.87297036687E+01  0.20310690238E+02  0.51100000000E-03 0.  1.
         12    1    3    3    0    0  0.31118891647E+01 -0.19256395451E+02  0.14066673085E+02  0.24049197733E+02  0.00000000000E+00 0. -1.
</event>
<event>
 7    1  0.5487071E-013  0.5052886E+02  0.7816164E-02  0.1300439E+00
        -11   -1    0    0    0    0  0.00000000000E+00  0.00000000000E+00  0.45593999997E+02  0.45594000000E+02  0.51100000000E-03 0.  1.
         11   -1    0    0    0    0 -0.00000000000E+00 -0.00000000000E+00 -0.45593999997E+02  0.45594000000E+02  0.51100000000E-03 0. -1.
    9900012    2    1    2    0    0  0.16917785772E+02 -0.21796206201E+02 -0.29864359080E+02  0.50528855599E+02  0.29999987077E+02 0.  0.
        -12    1    1    2    0    0 -0.16917785772E+02  0.21796206201E+02  0.29864359080E+02  0.40659144401E+02  0.00000000000E+00 0.  1.
         11    1    3    3    0    0  0.89781760656E-01 -0.83878443971E+01 -0.25113521785E+01  0.87561912050E+01  0.51100000000E-03 0. -1.
        -11    1    3    3    0    0  0.63662797437E+01 -0.18604265442E+02 -0.19529960847E+02  0.27714032211E+02  0.51100000000E-03 0.  1.
        -12    1    3    3    0    0  0.10461724268E+02  0.51959036387E+01 -0.78230460551E+01  0.14058632183E+02  0.00000000000E+00 0.  1.
</event>
<event>
 7    1  0.5487071E-013  0.5052886E+02  0.7816164E-02  0.1300439E+00
        -11   -1    0    0    0    0  0.00000000000E+00  0.00000000000E+00  0.45593999997E+02  0.45594000000E+02  0.51100000000E-03 0. -1.
         11   -1    0    0    0    0 -0.00000000000E+00 -0.00000000000E+00 -0.45593999997E+02  0.45594000000E+02  0.51100000000E-03 0.  1.
    9900012    2    1    2    0    0 -0.78348212726E+01 -0.33723312705E+02 -0.21319453750E+02  0.50528863851E+02  0.30000012161E+02 0.  0.
        -12    1    1    2    0    0  0.78348212726E+01  0.33723312705E+02  0.21319453750E+02  0.40659136149E+02  0.00000000000E+00 0.  1.
         11    1    3    3    0    0 -0.10900999769E+02 -0.79935091876E+00 -0.78021770534E+01  0.13429248858E+02  0.51100000000E-03 0. -1.
        -11    1    3    3    0    0 -0.27465712206E+01 -0.21376596556E+02 -0.95792469115E+01  0.23585260343E+02  0.51100000000E-03 0.  1.
        -12    1    3    3    0    0  0.58127497165E+01 -0.11547365231E+02 -0.39380297855E+01  0.13514354651E+02  0.00000000000E+00 0.  1.
</event>
<event>
 7    1  0.5487071E-013  0.5052886E+02  0.7816164E-02  0.1300439E+00
        -11   -1    0    0    0    0  0.00000000000E+00  0.00000000000E+00  0.45593999997E+02  0.45594000000E+02  0.51100000000E-03 0. -1.
         11   -1    0    0    0    0 -0.00000000000E+00 -0.00000000000E+00 -0.45593999997E+02  0.45594000000E+02  0.51100000000E-03 0.  1.
    9900012    2    1    2    0    0  0.13661887814E+01  0.82994023468E+01  0.39779627736E+02  0.50528864078E+02  0.30000012850E+02 0.  0.
        -12    1    1    2    0    0 -0.13661887814E+01 -0.82994023468E+01 -0.39779627736E+02  0.40659135922E+02  0.00000000000E+00 0.  1.
         11    1    3    3    0    0 -0.53392413343E+01  0.27321639548E+01  0.18486486932E+02  0.19435082126E+02  0.51100000000E-03 0. -1.
        -11    1    3    3    0    0 -0.35300103457E+01 -0.13018862580E+01 -0.23458734078E+01  0.44338474462E+01  0.51100000000E-03 0.  1.
         12    1    3    3    0    0  0.10235440461E+02  0.68691246500E+01  0.23639014213E+02  0.26659934505E+02  0.00000000000E+00 0. -1.
</event>
<event>
 7    1  0.5677269E-013  0.5052885E+02  0.7816164E-02  0.1300439E+00
        -11   -1    0    0    0    0  0.00000000000E+00  0.00000000000E+00  0.45593999997E+02  0.45594000000E+02  0.51100000000E-03 0. -1.
         11   -1    0    0    0    0 -0.00000000000E+00 -0.00000000000E+00 -0.45593999997E+02  0.45594000000E+02  0.51100000000E-03 0.  1.
    9900012    2    1    2    0    0 -0.40277864459E+02  0.63927308736E+00 -0.55182721759E+01  0.50528851420E+02  0.29999974376E+02 0.  0.
        -12    1    1    2    0    0  0.40277864459E+02 -0.63927308736E+00  0.55182721759E+01  0.40659148580E+02  0.00000000000E+00 0.  1.
         11    1    3    3    0    0 -0.21606260092E+02  0.43211243657E+01 -0.25850837642E+01  0.22185248461E+02  0.51100000000E-03 0. -1.
        -11    1    3    3    0    0 -0.22905634152E+02 -0.55369676937E+01 -0.26163577334E+01  0.23710154264E+02  0.51100000000E-03 0.  1.
        -12    1    3    3    0    0  0.42340297851E+01  0.18551164154E+01 -0.31683067826E+00  0.46334486956E+01  0.00000000000E+00 0.  1.
</event>
<event>
 7    1  0.5487071E-013  0.5052886E+02  0.7816164E-02  0.1300439E+00
        -11   -1    0    0    0    0  0.00000000000E+00  0.00000000000E+00  0.45593999997E+02  0.45594000000E+02  0.51100000000E-03 0. -1.
         11   -1    0    0    0    0 -0.00000000000E+00 -0.00000000000E+00 -0.45593999997E+02  0.45594000000E+02  0.51100000000E-03 0.  1.
    9900012    2    1    2    0    0  0.46358621179E+01  0.97247984942E+01  0.39205905237E+02  0.50528856763E+02  0.29999990615E+02 0.  0.
        -12    1    1    2    0    0 -0.46358621179E+01 -0.97247984942E+01 -0.39205905237E+02  0.40659143237E+02  0.00000000000E+00 0.  1.
         11    1    3    3    0    0 -0.26900504689E+01  0.36735392354E+01  0.89419946530E+01  0.10034467135E+02  0.51100000000E-03 0. -1.
        -11    1    3    3    0    0 -0.81095453506E+01  0.75888803552E+01  0.15589428768E+02  0.19141215228E+02  0.51100000000E-03 0.  1.
         12    1    3    3    0    0  0.15435457937E+02 -0.15376210963E+01  0.14674481816E+02  0.21353174400E+02  0.00000000000E+00 0. -1.
</event>
<event>
 7    1  0.5487071E-013  0.5052887E+02  0.7816164E-02  0.1300439E+00
        -11   -1    0    0    0    0  0.00000000000E+00  0.00000000000E+00  0.45593999997E+02  0.45594000000E+02  0.51100000000E-03 0.  1.
         11   -1    0    0    0    0 -0.00000000000E+00 -0.00000000000E+00 -0.45593999997E+02  0.45594000000E+02  0.51100000000E-03 0. -1.
    9900012    2    1    2    0    0  0.34339328339E+02  0.11998985982E+02 -0.18165883712E+02  0.50528874746E+02  0.30000045279E+02 0.  0.
        -12    1    1    2    0    0 -0.34339328339E+02 -0.11998985982E+02  0.18165883712E+02  0.40659125254E+02  0.00000000000E+00 0.  1.
         11    1    3    3    0    0  0.17351276600E+02  0.17701115165E+02 -0.47663707786E+01  0.25241128509E+02  0.51100000000E-03 0. -1.
        -11    1    3    3    0    0  0.14469578311E+01 -0.49059008714E+01 -0.62185367943E+00  0.51524996444E+01  0.51100000000E-03 0.  1.
        -12    1    3    3    0    0  0.15541093908E+02 -0.79622831148E+00 -0.12777659254E+02  0.20135246594E+02  0.00000000000E+00 0.  1.
</event>
<event>
 7    1  0.5487071E-013  0.5052887E+02  0.7816164E-02  0.1300439E+00
        -11   -1    0    0    0    0  0.00000000000E+00  0.00000000000E+00  0.45593999997E+02  0.45594000000E+02  0.51100000000E-03 0.  1.
         11   -1    0    0    0    0 -0.00000000000E+00 -0.00000000000E+00 -0.45593999997E+02  0.45594000000E+02  0.51100000000E-03 0. -1.
    9900012    2    1    2    0    0 -0.32631839626E+02  0.19879240179E+02  0.13897622502E+02  0.50528867463E+02  0.30000023140E+02 0.  0.
        -12    1    1    2    0    0  0.32631839626E+02 -0.19879240179E+02 -0.13897622502E+02  0.40659132537E+02  0.00000000000E+00 0.  1.
         11    1    3    3    0    0 -0.21712264994E-01  0.10785133980E+01 -0.43099809900E+01  0.44429268470E+01  0.51100000000E-03 0. -1.
        -11    1    3    3    0    0 -0.59419792058E+01 -0.37952597498E+01  0.98376594363E+00  0.71189120758E+01  0.51100000000E-03 0.  1.
         12    1    3    3    0    0 -0.26668148155E+02  0.22595986531E+02  0.17223837548E+02  0.38967028540E+02  0.00000000000E+00 0. -1.
</event>
<event>
 7    1  0.5487071E-013  0.5052886E+02  0.7816164E-02  0.1300439E+00
        -11   -1    0    0    0    0  0.00000000000E+00  0.00000000000E+00  0.45593999997E+02  0.45594000000E+02  0.51100000000E-03 0.  1.
         11   -1    0    0    0    0 -0.00000000000E+00 -0.00000000000E+00 -0.45593999997E+02  0.45594000000E+02  0.51100000000E-03 0. -1.
    9900012    2    1    2    0    0  0.39308557409E+01  0.31756214652E+02 -0.25084996779E+02  0.50528857618E+02  0.29999993215E+02 0.  0.
        -12    1    1    2    0    0 -0.39308557409E+01 -0.31756214652E+02  0.25084996779E+02  0.40659142382E+02  0.00000000000E+00 0.  1.
         11    1    3    3    0    0  0.66606068206E+01 -0.13069829261E+00 -0.41807394052E+01  0.78650713600E+01  0.51100000000E-03 0. -1.
        -11    1    3    3    0    0  0.80581650535E+01  0.11765717092E+02 -0.65276206870E+01  0.15683620590E+02  0.51100000000E-03 0.  1.
        -12    1    3    3    0    0 -0.10787916133E+02  0.20121195852E+02 -0.14376636686E+02  0.26980165667E+02  0.00000000000E+00 0.  1.
</event>
<event>
 7    1  0.5487071E-013  0.5052886E+02  0.7816164E-02  0.1300439E+00
        -11   -1    0    0    0    0  0.00000000000E+00  0.00000000000E+00  0.45593999997E+02  0.45594000000E+02  0.51100000000E-03 0.  1.
         11   -1    0    0    0    0 -0.00000000000E+00 -0.00000000000E+00 -0.45593999997E+02  0.45594000000E+02  0.51100000000E-03 0. -1.
    9900012    2    1    2    0    0  0.40578049286E+02  0.17250645275E+01 -0.19005272021E+01  0.50528856685E+02  0.29999990380E+02 0.  0.
        -12    1    1    2    0    0 -0.40578049286E+02 -0.17250645275E+01  0.19005272021E+01  0.40659143315E+02  0.00000000000E+00 0.  1.
         11    1    3    3    0    0  0.26632208317E+02  0.11262543995E+02 -0.11144396798E+01  0.28937197396E+02  0.51100000000E-03 0. -1.
        -11    1    3    3    0    0  0.44961485723E+01  0.32160728066E+01  0.10029883497E+01  0.56182258919E+01  0.51100000000E-03 0.  1.
        -12    1    3    3    0    0  0.94496923966E+01 -0.12753552274E+02 -0.17890758720E+01  0.15973433397E+02  0.00000000000E+00 0.  1.
</event>
<event>
 7    1  0.5487071E-013  0.5052886E+02  0.7816164E-02  0.1300439E+00
        -11   -1    0    0    0    0  0.00000000000E+00  0.00000000000E+00  0.45593999997E+02  0.45594000000E+02  0.51100000000E-03 0.  1.
         11   -1    0    0    0    0 -0.00000000000E+00 -0.00000000000E+00 -0.45593999997E+02  0.45594000000E+02  0.51100000000E-03 0. -1.
    9900012    2    1    2    0    0  0.33850246642E+02  0.20969025120E+02  0.82235250034E+01  0.50528861105E+02  0.30000003814E+02 0.  0.
        -12    1    1    2    0    0 -0.33850246642E+02 -0.20969025120E+02 -0.82235250034E+01  0.40659138895E+02  0.00000000000E+00 0.  1.
         11    1    3    3    0    0 -0.32030618487E+01 -0.36548146205E+01 -0.66426101064E+00  0.49049483248E+01  0.51100000000E-03 0. -1.
        -11    1    3    3    0    0  0.30074979690E+01  0.19294425912E+01  0.21107069012E+01  0.41500453769E+01  0.51100000000E-03 0.  1.
        -12    1    3    3    0    0  0.34045810522E+02  0.22694397150E+02  0.67770791129E+01  0.41473867403E+02  0.00000000000E+00 0.  1.
</event>
<event>
 7    1  0.5487071E-013  0.5052885E+02  0.7816164E-02  0.1300439E+00
        -11   -1    0    0    0    0  0.00000000000E+00  0.00000000000E+00  0.45593999997E+02  0.45594000000E+02  0.51100000000E-03 0. -1.
         11   -1    0    0    0    0 -0.00000000000E+00 -0.00000000000E+00 -0.45593999997E+02  0.45594000000E+02  0.51100000000E-03 0.  1.
    9900012    2    1    2    0    0 -0.29615991512E+02  0.18554804936E+02  0.20779277047E+02  0.50528854731E+02  0.29999984439E+02 0.  0.
        -12    1    1    2    0    0  0.29615991512E+02 -0.18554804936E+02 -0.20779277047E+02  0.40659145269E+02  0.00000000000E+00 0.  1.
         11    1    3    3    0    0 -0.10255025286E+02  0.39051658062E+00 -0.34691373371E+01  0.10832957165E+02  0.51100000000E-03 0. -1.
        -11    1    3    3    0    0 -0.44170606456E+01 -0.22504979535E+01  0.47666770249E+00  0.49801986050E+01  0.51100000000E-03 0.  1.
         12    1    3    3    0    0 -0.14943905581E+02  0.20414786309E+02  0.23771746682E+02  0.34715698961E+02  0.00000000000E+00 0. -1.
</event>
<event>
 7    1  0.5487071E-013  0.5052886E+02  0.7816164E-02  0.1300439E+00
        -11   -1    0    0    0    0  0.00000000000E+00  0.00000000000E+00  0.45593999997E+02  0.45594000000E+02  0.51100000000E-03 0.  1.
         11   -1    0    0    0    0 -0.00000000000E+00 -0.00000000000E+00 -0.45593999997E+02  0.45594000000E+02  0.51100000000E-03 0. -1.
    9900012    2    1    2    0    0  0.30149004710E+02 -0.26391983562E+02 -0.69040690806E+01  0.50528862636E+02  0.30000008468E+02 0.  0.
        -12    1    1    2    0    0 -0.30149004710E+02  0.26391983562E+02  0.69040690806E+01  0.40659137364E+02  0.00000000000E+00 0.  1.
         11    1    3    3    0    0  0.25247821450E+02 -0.13222187863E+02 -0.84121580225E+01  0.29716041841E+02  0.51100000000E-03 0. -1.
        -11    1    3    3    0    0  0.35047318057E+01  0.28895012436E+01  0.11648545723E+01  0.46892695490E+01  0.51100000000E-03 0.  1.
         12    1    3    3    0    0  0.13964514543E+01 -0.16059296942E+02  0.34323436961E+00  0.16123551246E+02  0.00000000000E+00 0. -1.
</event>
<event>
 7    1  0.5487071E-013  0.5052886E+02  0.7816164E-02  0.1300439E+00
        -11   -1    0    0    0    0  0.00000000000E+00  0.00000000000E+00  0.45593999997E+02  0.45594000000E+02  0.51100000000E-03 0.  1.
         11   -1    0    0    0    0 -0.00000000000E+00 -0.00000000000E+00 -0.45593999997E+02  0.45594000000E+02  0.51100000000E-03 0. -1.
    9900012    2    1    2    0    0 -0.16330530133E+02  0.21612117955E+02 -0.30321537055E+02  0.50528862450E+02  0.30000007903E+02 0.  0.
        -12    1    1    2    0    0  0.16330530133E+02 -0.21612117955E+02  0.30321537055E+02  0.40659137550E+02  0.00000000000E+00 0.  1.
         11    1    3    3    0    0 -0.46194754237E+01  0.13270947585E+01  0.39959525896E+01  0.62504696662E+01  0.51100000000E-03 0.  1.
        -11    1    3    3    0    0 -0.56415025525E+00 -0.15984757206E+01 -0.84154057936E+01  0.85844303872E+01  0.51100000000E-03 0. -1.
        -12    1    3    3    0    0 -0.11146904454E+02  0.21883498917E+02 -0.25902083851E+02  0.35693962397E+02  0.00000000000E+00 0.  1.
</event>
<event>
 7    1  0.5487071E-013  0.5052885E+02  0.7816164E-02  0.1300439E+00
        -11   -1    0    0    0    0  0.00000000000E+00  0.00000000000E+00  0.45593999997E+02  0.45594000000E+02  0.51100000000E-03 0. -1.
         11   -1    0    0    0    0 -0.00000000000E+00 -0.00000000000E+00 -0.45593999997E+02  0.45594000000E+02  0.51100000000E-03 0.  1.
    9900012    2    1    2    0    0 -0.63683036062E+01 -0.40035102062E+02 -0.31307986348E+01  0.50528848656E+02  0.29999965974E+02 0.  0.
        -12    1    1    2    0    0  0.63683036062E+01  0.40035102062E+02  0.31307986348E+01  0.40659151344E+02  0.00000000000E+00 0.  1.
         11    1    3    3    0    0  0.94367978116E+01 -0.23220326494E+02  0.25232185785E+01  0.25191334773E+02  0.51100000000E-03 0. -1.
        -11    1    3    3    0    0 -0.65628956587E+01 -0.42754139016E+01 -0.58217126454E+01  0.97592572383E+01  0.51100000000E-03 0.  1.
        -12    1    3    3    0    0 -0.92422057591E+01 -0.12539361667E+02  0.16769543207E+00  0.15578256644E+02  0.00000000000E+00 0.  1.
</event>
<event>
 7    1  0.5487071E-013  0.5052886E+02  0.7816164E-02  0.1300439E+00
        -11   -1    0    0    0    0  0.00000000000E+00  0.00000000000E+00  0.45593999997E+02  0.45594000000E+02  0.51100000000E-03 0.  1.
         11   -1    0    0    0    0 -0.00000000000E+00 -0.00000000000E+00 -0.45593999997E+02  0.45594000000E+02  0.51100000000E-03 0. -1.
    9900012    2    1    2    0    0 -0.15246006025E+02  0.27404356386E+02 -0.25879067128E+02  0.50528861248E+02  0.30000004250E+02 0.  0.
        -12    1    1    2    0    0  0.15246006025E+02 -0.27404356386E+02  0.25879067128E+02  0.40659138752E+02  0.00000000000E+00 0.  1.
         11    1    3    3    0    0 -0.67785789243E+01  0.18484331156E+02 -0.22641435869E+02  0.30004237184E+02  0.51100000000E-03 0. -1.
        -11    1    3    3    0    0 -0.92811808084E+01  0.61323134200E+01 -0.88436208703E+01  0.14211094801E+02  0.51100000000E-03 0.  1.
        -12    1    3    3    0    0  0.81375370794E+00  0.27877118095E+01  0.56059896115E+01  0.63135292630E+01  0.00000000000E+00 0.  1.
</event>
<event>
 7    1  0.5487071E-013  0.5052886E+02  0.7816164E-02  0.1300439E+00
        -11   -1    0    0    0    0  0.00000000000E+00  0.00000000000E+00  0.45593999997E+02  0.45594000000E+02  0.51100000000E-03 0. -1.
         11   -1    0    0    0    0 -0.00000000000E+00 -0.00000000000E+00 -0.45593999997E+02  0.45594000000E+02  0.51100000000E-03 0.  1.
    9900012    2    1    2    0    0 -0.11770492827E+02  0.37633314112E+02  0.99174014399E+01  0.50528859776E+02  0.29999999775E+02 0.  0.
        -12    1    1    2    0    0  0.11770492827E+02 -0.37633314112E+02 -0.99174014399E+01  0.40659140224E+02  0.00000000000E+00 0.  1.
         11    1    3    3    0    0 -0.10327723028E+02  0.32094755780E+02  0.85841217161E+01  0.34791124693E+02  0.51100000000E-03 0. -1.
        -11    1    3    3    0    0 -0.11794510485E+01  0.10522908386E+02  0.17362104185E+01  0.10730197228E+02  0.51100000000E-03 0.  1.
        -12    1    3    3    0    0 -0.26331875036E+00 -0.49843500538E+01 -0.40293069473E+00  0.50075378549E+01  0.00000000000E+00 0.  1.
</event>
<event>
 7    1  0.5487071E-013  0.5052887E+02  0.7816164E-02  0.1300439E+00
        -11   -1    0    0    0    0  0.00000000000E+00  0.00000000000E+00  0.45593999997E+02  0.45594000000E+02  0.51100000000E-03 0. -1.
         11   -1    0    0    0    0 -0.00000000000E+00 -0.00000000000E+00 -0.45593999997E+02  0.45594000000E+02  0.51100000000E-03 0.  1.
    9900012    2    1    2    0    0  0.25945696108E+02  0.20101006510E+02  0.23998656938E+02  0.50528866413E+02  0.30000019948E+02 0.  0.
        -12    1    1    2    0    0 -0.25945696108E+02 -0.20101006510E+02 -0.23998656938E+02  0.40659133587E+02  0.00000000000E+00 0.  1.
         11    1    3    3    0    0 -0.42146498085E+00  0.67797351682E+01  0.11705357017E+02  0.13533581375E+02  0.51100000000E-03 0. -1.
        -11    1    3    3    0    0  0.14446344535E+02  0.14510752409E+01  0.13894719084E+02  0.20096410338E+02  0.51100000000E-03 0.  1.
         12    1    3    3    0    0  0.11920816553E+02  0.11870196101E+02 -0.16014191631E+01  0.16898874699E+02  0.00000000000E+00 0. -1.
</event>
<event>
 7    1  0.5487071E-013  0.5052887E+02  0.7816164E-02  0.1300439E+00
        -11   -1    0    0    0    0  0.00000000000E+00  0.00000000000E+00  0.45593999997E+02  0.45594000000E+02  0.51100000000E-03 0.  1.
         11   -1    0    0    0    0 -0.00000000000E+00 -0.00000000000E+00 -0.45593999997E+02  0.45594000000E+02  0.51100000000E-03 0. -1.
    9900012    2    1    2    0    0 -0.47874023398E+01 -0.37469283967E+02 -0.15043210466E+02  0.50528872571E+02  0.30000038667E+02 0.  0.
        -12    1    1    2    0    0  0.47874023398E+01  0.37469283967E+02  0.15043210466E+02  0.40659127429E+02  0.00000000000E+00 0.  1.
         11    1    3    3    0    0  0.40726941311E+01  0.10160217196E+01 -0.28181789202E+01  0.50558154938E+01  0.51100000000E-03 0. -1.
        -11    1    3    3    0    0 -0.13686393864E+02 -0.17846184014E+02 -0.46615066150E+01  0.22968093196E+02  0.51100000000E-03 0.  1.
         12    1    3    3    0    0  0.48262973932E+01 -0.20639121673E+02 -0.75635249307E+01  0.22504963882E+02  0.00000000000E+00 0. -1.
</event>
<event>
 7    1  0.5487071E-013  0.5052887E+02  0.7816164E-02  0.1300439E+00
        -11   -1    0    0    0    0  0.00000000000E+00  0.00000000000E+00  0.45593999997E+02  0.45594000000E+02  0.51100000000E-03 0. -1.
         11   -1    0    0    0    0 -0.00000000000E+00 -0.00000000000E+00 -0.45593999997E+02  0.45594000000E+02  0.51100000000E-03 0.  1.
    9900012    2    1    2    0    0 -0.20432304053E+02  0.33656136456E+02  0.10146442129E+02  0.50528869932E+02  0.30000030645E+02 0.  0.
        -12    1    1    2    0    0  0.20432304053E+02 -0.33656136456E+02 -0.10146442129E+02  0.40659130068E+02  0.00000000000E+00 0.  1.
         11    1    3    3    0    0 -0.11158878757E+02  0.40966596577E+01 -0.24307930329E+01  0.12133093196E+02  0.51100000000E-03 0. -1.
        -11    1    3    3    0    0 -0.16657592563E+01  0.50373486831E+01  0.11538263844E+02  0.12699652296E+02  0.51100000000E-03 0.  1.
         12    1    3    3    0    0 -0.76076660399E+01  0.24522128115E+02  0.10389713184E+01  0.25696124440E+02  0.00000000000E+00 0. -1.
</event>
<event>
 7    1  0.5487071E-013  0.5052886E+02  0.7816164E-02  0.1300439E+00
        -11   -1    0    0    0    0  0.00000000000E+00  0.00000000000E+00  0.45593999997E+02  0.45594000000E+02  0.51100000000E-03 0. -1.
         11   -1    0    0    0    0 -0.00000000000E+00 -0.00000000000E+00 -0.45593999997E+02  0.45594000000E+02  0.51100000000E-03 0.  1.
    9900012    2    1    2    0    0 -0.14769503612E+02 -0.36405718972E+02 -0.10471440129E+02  0.50528859955E+02  0.30000000320E+02 0.  0.
        -12    1    1    2    0    0  0.14769503612E+02  0.36405718972E+02  0.10471440129E+02  0.40659140045E+02  0.00000000000E+00 0.  1.
         11    1    3    3    0    0 -0.37268661507E+01 -0.15251805190E+01 -0.45897599150E+01  0.61058662988E+01  0.51100000000E-03 0. -1.
        -11    1    3    3    0    0 -0.37749606543E+00  0.38284089539E+01 -0.26959689293E-01  0.38470697270E+01  0.51100000000E-03 0.  1.
         12    1    3    3    0    0 -0.10665141396E+02 -0.38708947406E+02 -0.58547205251E+01  0.40575923930E+02  0.00000000000E+00 0. -1.
</event>
<event>
 7    1  0.5487071E-013  0.5052884E+02  0.7816164E-02  0.1300439E+00
        -11   -1    0    0    0    0  0.00000000000E+00  0.00000000000E+00  0.45593999997E+02  0.45594000000E+02  0.51100000000E-03 0.  1.
         11   -1    0    0    0    0 -0.00000000000E+00 -0.00000000000E+00 -0.45593999997E+02  0.45594000000E+02  0.51100000000E-03 0. -1.
    9900012    2    1    2    0    0 -0.36214940902E+02  0.71135544383E+01  0.17059975446E+02  0.50528839119E+02  0.29999936986E+02 0.  0.
        -12    1    1    2    0    0  0.36214940902E+02 -0.71135544383E+01 -0.17059975446E+02  0.40659160881E+02  0.00000000000E+00 0.  1.
         11    1    3    3    0    0 -0.26038941087E+02  0.74108942353E+01  0.58329225571E+01  0.27694237525E+02  0.51100000000E-03 0. -1.
        -11    1    3    3    0    0 -0.13373897246E+02 -0.49003045125E+01  0.86645573535E+01  0.16671792533E+02  0.51100000000E-03 0.  1.
        -12    1    3    3    0    0  0.31978974308E+01  0.46029647155E+01  0.25624955357E+01  0.61628090608E+01  0.00000000000E+00 0.  1.
</event>
<event>
 7    1  0.5487071E-013  0.5052886E+02  0.7816164E-02  0.1300439E+00
        -11   -1    0    0    0    0  0.00000000000E+00  0.00000000000E+00  0.45593999997E+02  0.45594000000E+02  0.51100000000E-03 0.  1.
         11   -1    0    0    0    0 -0.00000000000E+00 -0.00000000000E+00 -0.45593999997E+02  0.45594000000E+02  0.51100000000E-03 0. -1.
    9900012    2    1    2    0    0  0.15512111722E+02 -0.78337924432E+01 -0.36758286006E+02  0.50528861984E+02  0.30000006486E+02 0.  0.
        -12    1    1    2    0    0 -0.15512111722E+02  0.78337924432E+01  0.36758286006E+02  0.40659138016E+02  0.00000000000E+00 0.  1.
         11    1    3    3    0    0  0.13665388698E+01 -0.12007866814E+02 -0.13735435068E+02  0.18295312806E+02  0.51100000000E-03 0. -1.
        -11    1    3    3    0    0  0.21375735235E+01  0.86722474031E+01 -0.53932104446E+01  0.10433782380E+02  0.51100000000E-03 0.  1.
         12    1    3    3    0    0  0.12007999329E+02 -0.44981730321E+01 -0.17629640493E+02  0.21799766798E+02  0.00000000000E+00 0. -1.
</event>
<event>
 7    1  0.5487071E-013  0.5052886E+02  0.7816164E-02  0.1300439E+00
        -11   -1    0    0    0    0  0.00000000000E+00  0.00000000000E+00  0.45593999997E+02  0.45594000000E+02  0.51100000000E-03 0.  1.
         11   -1    0    0    0    0 -0.00000000000E+00 -0.00000000000E+00 -0.45593999997E+02  0.45594000000E+02  0.51100000000E-03 0. -1.
    9900012    2    1    2    0    0  0.67535483781E+01  0.25172733052E+02 -0.31207189311E+02  0.50528861178E+02  0.30000004038E+02 0.  0.
        -12    1    1    2    0    0 -0.67535483781E+01 -0.25172733052E+02  0.31207189311E+02  0.40659138822E+02  0.00000000000E+00 0.  1.
         11    1    3    3    0    0 -0.34757622079E+01  0.30834584460E+01  0.14784587864E+01  0.48759080753E+01  0.51100000000E-03 0. -1.
        -11    1    3    3    0    0  0.29056398498E+01  0.94486527976E+01 -0.37582961208E-01  0.98854031464E+01  0.51100000000E-03 0.  1.
         12    1    3    3    0    0  0.73236707362E+01  0.12640621808E+02 -0.32648065136E+02  0.35767549957E+02  0.00000000000E+00 0. -1.
</event>
<event>
 7    1  0.5487071E-013  0.5052886E+02  0.7816164E-02  0.1300439E+00
        -11   -1    0    0    0    0  0.00000000000E+00  0.00000000000E+00  0.45593999997E+02  0.45594000000E+02  0.51100000000E-03 0.  1.
         11   -1    0    0    0    0 -0.00000000000E+00 -0.00000000000E+00 -0.45593999997E+02  0.45594000000E+02  0.51100000000E-03 0. -1.
    9900012    2    1    2    0    0  0.37223113735E+02  0.16275298517E+02  0.16492925441E+01  0.50528859529E+02  0.29999999024E+02 0.  0.
        -12    1    1    2    0    0 -0.37223113735E+02 -0.16275298517E+02 -0.16492925441E+01  0.40659140471E+02  0.00000000000E+00 0.  1.
         11    1    3    3    0    0  0.19448052490E+02  0.19006128015E+02  0.42670750196E+01  0.27525762065E+02  0.51100000000E-03 0. -1.
        -11    1    3    3    0    0  0.47568413425E+00 -0.14124921720E+01  0.41275682847E+01  0.43884199591E+01  0.51100000000E-03 0.  1.
        -12    1    3    3    0    0  0.17299377111E+02 -0.13183373255E+01 -0.67453507602E+01  0.18614677505E+02  0.00000000000E+00 0.  1.
</event>
<event>
 7    1  0.5487071E-013  0.5052885E+02  0.7816164E-02  0.1300439E+00
        -11   -1    0    0    0    0  0.00000000000E+00  0.00000000000E+00  0.45593999997E+02  0.45594000000E+02  0.51100000000E-03 0.  1.
         11   -1    0    0    0    0 -0.00000000000E+00 -0.00000000000E+00 -0.45593999997E+02  0.45594000000E+02  0.51100000000E-03 0. -1.
    9900012    2    1    2    0    0  0.66909668353E+01 -0.30677244062E+02 -0.25832226651E+02  0.50528852516E+02  0.29999977707E+02 0.  0.
        -12    1    1    2    0    0 -0.66909668353E+01  0.30677244062E+02  0.25832226651E+02  0.40659147484E+02  0.00000000000E+00 0.  1.
         11    1    3    3    0    0  0.24753286446E+01 -0.63546455570E+01 -0.72582287136E+01  0.99594506060E+01  0.51100000000E-03 0. -1.
        -11    1    3    3    0    0  0.74259382042E+00 -0.23925243207E+01 -0.18191035151E+02  0.18362717073E+02  0.51100000000E-03 0.  1.
        -12    1    3    3    0    0  0.34730443703E+01 -0.21930074184E+02 -0.38296278636E+00  0.22206684836E+02  0.00000000000E+00 0.  1.
</event>
<event>
 7    1  0.5487071E-013  0.5052886E+02  0.7816164E-02  0.1300439E+00
        -11   -1    0    0    0    0  0.00000000000E+00  0.00000000000E+00  0.45593999997E+02  0.45594000000E+02  0.51100000000E-03 0.  1.
         11   -1    0    0    0    0 -0.00000000000E+00 -0.00000000000E+00 -0.45593999997E+02  0.45594000000E+02  0.51100000000E-03 0. -1.
    9900012    2    1    2    0    0 -0.18889880995E+02 -0.14064464990E+02 -0.33144058531E+02  0.50528863323E+02  0.30000010555E+02 0.  0.
        -12    1    1    2    0    0  0.18889880995E+02  0.14064464990E+02  0.33144058531E+02  0.40659136677E+02  0.00000000000E+00 0.  1.
         11    1    3    3    0    0 -0.25415507685E+01 -0.26973736323E+01 -0.23473035239E+02  0.23763810477E+02  0.51100000000E-03 0. -1.
        -11    1    3    3    0    0 -0.10902887231E+02  0.13971168796E+01 -0.53903972268E+01  0.12242600544E+02  0.51100000000E-03 0.  1.
         12    1    3    3    0    0 -0.54454429955E+01 -0.12764208237E+02 -0.42806260651E+01  0.14522452302E+02  0.00000000000E+00 0. -1.
</event>
<event>
 7    1  0.5487071E-013  0.5052883E+02  0.7816164E-02  0.1300439E+00
        -11   -1    0    0    0    0  0.00000000000E+00  0.00000000000E+00  0.45593999997E+02  0.45594000000E+02  0.51100000000E-03 0.  1.
         11   -1    0    0    0    0 -0.00000000000E+00 -0.00000000000E+00 -0.45593999997E+02  0.45594000000E+02  0.51100000000E-03 0. -1.
    9900012    2    1    2    0    0 -0.42059614101E+00  0.83855438489E+01 -0.39782832638E+02  0.50528831053E+02  0.29999912470E+02 0.  0.
        -12    1    1    2    0    0  0.42059614101E+00 -0.83855438489E+01  0.39782832638E+02  0.40659168947E+02  0.00000000000E+00 0.  1.
         11    1    3    3    0    0 -0.39560899881E+01  0.65938011558E+00 -0.62413390440E+00  0.40589374869E+01  0.51100000000E-03 0. -1.
        -11    1    3    3    0    0  0.35792016347E+01  0.40008017304E+01  0.15528408706E+01  0.55882388870E+01  0.51100000000E-03 0.  1.
         12    1    3    3    0    0 -0.43707787576E-01  0.37253620029E+01 -0.40711539604E+02  0.40881654679E+02  0.00000000000E+00 0. -1.
</event>
<event>
 7    1  0.5487071E-013  0.5052884E+02  0.7816164E-02  0.1300439E+00
        -11   -1    0    0    0    0  0.00000000000E+00  0.00000000000E+00  0.45593999997E+02  0.45594000000E+02  0.51100000000E-03 0.  1.
         11   -1    0    0    0    0 -0.00000000000E+00 -0.00000000000E+00 -0.45593999997E+02  0.45594000000E+02  0.51100000000E-03 0. -1.
    9900012    2    1    2    0    0  0.30374973815E+02 -0.24621252854E+02 -0.11149992940E+02  0.50528837823E+02  0.29999933047E+02 0.  0.
        -12    1    1    2    0    0 -0.30374973815E+02  0.24621252854E+02  0.11149992940E+02  0.40659162177E+02  0.00000000000E+00 0.  1.
         11    1    3    3    0    0  0.27335869794E+02 -0.18746483344E+02 -0.54907661073E+00  0.33150895924E+02  0.51100000000E-03 0. -1.
        -11    1    3    3    0    0  0.17031538715E+01 -0.33262586117E+01  0.21466729724E+01  0.43096327655E+01  0.51100000000E-03 0.  1.
         12    1    3    3    0    0  0.13359501499E+01 -0.25485108981E+01 -0.12747589302E+02  0.13068309134E+02  0.00000000000E+00 0. -1.
</event>
<event>
 7    1  0.5487071E-013  0.5052886E+02  0.7816164E-02  0.1300439E+00
        -11   -1    0    0    0    0  0.00000000000E+00  0.00000000000E+00  0.45593999997E+02  0.45594000000E+02  0.51100000000E-03 0.  1.
         11   -1    0    0    0    0 -0.00000000000E+00 -0.00000000000E+00 -0.45593999997E+02  0.45594000000E+02  0.51100000000E-03 0. -1.
    9900012    2    1    2    0    0  0.35119779967E+02 -0.11239746184E+02 -0.17129932248E+02  0.50528863043E+02  0.30000009706E+02 0.  0.
        -12    1    1    2    0    0 -0.35119779967E+02  0.11239746184E+02  0.17129932248E+02  0.40659136957E+02  0.00000000000E+00 0.  1.
         11    1    3    3    0    0  0.66640782127E+01 -0.35412840800E+01 -0.14078564514E+02  0.15973622332E+02  0.51100000000E-03 0. -1.
        -11    1    3    3    0    0 -0.24551795399E+01 -0.25379023299E+00 -0.10953393173E+01  0.27003859978E+01  0.51100000000E-03 0.  1.
        -12    1    3    3    0    0  0.30910881295E+02 -0.74446718714E+01 -0.19560284169E+01  0.31854854714E+02  0.00000000000E+00 0.  1.
</event>
<event>
 7    1  0.5487071E-013  0.5052886E+02  0.7816164E-02  0.1300439E+00
        -11   -1    0    0    0    0  0.00000000000E+00  0.00000000000E+00  0.45593999997E+02  0.45594000000E+02  0.51100000000E-03 0.  1.
         11   -1    0    0    0    0 -0.00000000000E+00 -0.00000000000E+00 -0.45593999997E+02  0.45594000000E+02  0.51100000000E-03 0. -1.
    9900012    2    1    2    0    0 -0.18766782645E+02 -0.29485792449E+02 -0.20774064392E+02  0.50528857873E+02  0.29999993989E+02 0.  0.
        -12    1    1    2    0    0  0.18766782645E+02  0.29485792449E+02  0.20774064392E+02  0.40659142127E+02  0.00000000000E+00 0.  1.
         11    1    3    3    0    0 -0.18529327271E+02 -0.13143106311E+02 -0.51901621068E+01  0.23302682154E+02  0.51100000000E-03 0. -1.
        -11    1    3    3    0    0 -0.10944362794E+01  0.21880018905E+01  0.69766707227E+00  0.25439895140E+01  0.51100000000E-03 0.  1.
        -12    1    3    3    0    0  0.85698090582E+00 -0.18530688028E+02 -0.16281569358E+02  0.24682186204E+02  0.00000000000E+00 0.  1.
</event>
<event>
 7    1  0.5487071E-013  0.5052886E+02  0.7816164E-02  0.1300439E+00
        -11   -1    0    0    0    0  0.00000000000E+00  0.00000000000E+00  0.45593999997E+02  0.45594000000E+02  0.51100000000E-03 0. -1.
         11   -1    0    0    0    0 -0.00000000000E+00 -0.00000000000E+00 -0.45593999997E+02  0.45594000000E+02  0.51100000000E-03 0.  1.
    9900012    2    1    2    0    0  0.20335899857E+02 -0.34511935079E+02  0.69672868760E+01  0.50528861146E+02  0.30000003940E+02 0.  0.
        -12    1    1    2    0    0 -0.20335899857E+02  0.34511935079E+02 -0.69672868760E+01  0.40659138854E+02  0.00000000000E+00 0.  1.
         11    1    3    3    0    0 -0.20089338821E+01 -0.10103311999E+02  0.21354361488E+01  0.10520114852E+02  0.51100000000E-03 0. -1.
        -11    1    3    3    0    0 -0.24729105889E+01 -0.19862503875E+01  0.57307358142E+01  0.65499473751E+01  0.51100000000E-03 0.  1.
         12    1    3    3    0    0  0.24817744328E+02 -0.22422372693E+02 -0.89888508701E+00  0.33458798919E+02  0.00000000000E+00 0. -1.
</event>
<event>
 7    1  0.5487071E-013  0.5052886E+02  0.7816164E-02  0.1300439E+00
        -11   -1    0    0    0    0  0.00000000000E+00  0.00000000000E+00  0.45593999997E+02  0.45594000000E+02  0.51100000000E-03 0.  1.
         11   -1    0    0    0    0 -0.00000000000E+00 -0.00000000000E+00 -0.45593999997E+02  0.45594000000E+02  0.51100000000E-03 0. -1.
    9900012    2    1    2    0    0 -0.34927246881E+02  0.94607952781E+01 -0.18540406647E+02  0.50528857109E+02  0.29999991668E+02 0.  0.
        -12    1    1    2    0    0  0.34927246881E+02 -0.94607952781E+01  0.18540406647E+02  0.40659142891E+02  0.00000000000E+00 0.  1.
         11    1    3    3    0    0 -0.10727027467E+02 -0.19405145002E+01  0.20941310049E+01  0.11100454934E+02  0.51100000000E-03 0.  1.
        -11    1    3    3    0    0  0.15895885187E+01 -0.20541892467E+01  0.13864923084E+01  0.29442904582E+01  0.51100000000E-03 0. -1.
         12    1    3    3    0    0 -0.25789807933E+02  0.13455499025E+02 -0.22021029961E+02  0.36484111717E+02  0.00000000000E+00 0. -1.
</event>
<event>
 7    1  0.5487071E-013  0.5052884E+02  0.7816164E-02  0.1300439E+00
        -11   -1    0    0    0    0  0.00000000000E+00  0.00000000000E+00  0.45593999997E+02  0.45594000000E+02  0.51100000000E-03 0.  1.
         11   -1    0    0    0    0 -0.00000000000E+00 -0.00000000000E+00 -0.45593999997E+02  0.45594000000E+02  0.51100000000E-03 0. -1.
    9900012    2    1    2    0    0  0.84896448896E+01  0.10493238142E+02 -0.38353422546E+02  0.50528841892E+02  0.29999945416E+02 0.  0.
        -12    1    1    2    0    0 -0.84896448896E+01 -0.10493238142E+02  0.38353422546E+02  0.40659158108E+02  0.00000000000E+00 0.  1.
         11    1    3    3    0    0  0.10080338649E+02  0.11075666343E+02 -0.16698141846E+02  0.22430148318E+02  0.51100000000E-03 0. -1.
        -11    1    3    3    0    0  0.56681055262E+01  0.58271583662E+01 -0.11310202163E+02  0.13928527134E+02  0.51100000000E-03 0.  1.
        -12    1    3    3    0    0 -0.72587992852E+01 -0.64095865673E+01 -0.10345078536E+02  0.14170166441E+02  0.00000000000E+00 0.  1.
</event>
<event>
 7    1  0.5487071E-013  0.5052886E+02  0.7816164E-02  0.1300439E+00
        -11   -1    0    0    0    0  0.00000000000E+00  0.00000000000E+00  0.45593999997E+02  0.45594000000E+02  0.51100000000E-03 0.  1.
         11   -1    0    0    0    0 -0.00000000000E+00 -0.00000000000E+00 -0.45593999997E+02  0.45594000000E+02  0.51100000000E-03 0. -1.
    9900012    2    1    2    0    0  0.23472956438E+02  0.25717774675E+02 -0.20994803370E+02  0.50528863428E+02  0.30000010877E+02 0.  0.
        -12    1    1    2    0    0 -0.23472956438E+02 -0.25717774675E+02  0.20994803370E+02  0.40659136572E+02  0.00000000000E+00 0.  1.
         11    1    3    3    0    0  0.81157221484E+01  0.27668184033E+01 -0.14465855716E+02  0.16816099783E+02  0.51100000000E-03 0. -1.
        -11    1    3    3    0    0  0.17081634650E+01 -0.13251516272E+01  0.34984197085E+01  0.41125162585E+01  0.51100000000E-03 0.  1.
        -12    1    3    3    0    0  0.13649070824E+02  0.24276107899E+02 -0.10027367363E+02  0.29600247386E+02  0.00000000000E+00 0.  1.
</event>
<event>
 7    1  0.5487071E-013  0.5052886E+02  0.7816164E-02  0.1300439E+00
        -11   -1    0    0    0    0  0.00000000000E+00  0.00000000000E+00  0.45593999997E+02  0.45594000000E+02  0.51100000000E-03 0. -1.
         11   -1    0    0    0    0 -0.00000000000E+00 -0.00000000000E+00 -0.45593999997E+02  0.45594000000E+02  0.51100000000E-03 0.  1.
    9900012    2    1    2    0    0 -0.34388803654E+02  0.14567433135E+01  0.21643795782E+02  0.50528858178E+02  0.29999994917E+02 0.  0.
        -12    1    1    2    0    0  0.34388803654E+02 -0.14567433135E+01 -0.21643795782E+02  0.40659141822E+02  0.00000000000E+00 0.  1.
         11    1    3    3    0    0 -0.31762360722E+02 -0.35504673464E+01  0.13237444454E+02  0.34593110773E+02  0.51100000000E-03 0. -1.
        -11    1    3    3    0    0 -0.36113366375E+01 -0.27558223695E+01  0.12836542296E+00  0.45445337698E+01  0.51100000000E-03 0.  1.
        -12    1    3    3    0    0  0.98489370532E+00  0.77630330295E+01  0.82779859051E+01  0.11391213635E+02  0.00000000000E+00 0.  1.
</event>
<event>
 7    1  0.5487071E-013  0.5052886E+02  0.7816164E-02  0.1300439E+00
        -11   -1    0    0    0    0  0.00000000000E+00  0.00000000000E+00  0.45593999997E+02  0.45594000000E+02  0.51100000000E-03 0.  1.
         11   -1    0    0    0    0 -0.00000000000E+00 -0.00000000000E+00 -0.45593999997E+02  0.45594000000E+02  0.51100000000E-03 0. -1.
    9900012    2    1    2    0    0  0.41482900131E+01  0.32315736275E+01 -0.40317663758E+02  0.50528863400E+02  0.30000010791E+02 0.  0.
        -12    1    1    2    0    0 -0.41482900131E+01 -0.32315736275E+01  0.40317663758E+02  0.40659136600E+02  0.00000000000E+00 0.  1.
         11    1    3    3    0    0  0.80444827083E+00 -0.11267989446E+01  0.38089095508E+00  0.14359286412E+01  0.51100000000E-03 0. -1.
        -11    1    3    3    0    0  0.12625322374E+02  0.74897850292E+01 -0.12633433691E+02  0.19367480268E+02  0.51100000000E-03 0.  1.
         12    1    3    3    0    0 -0.92814806320E+01 -0.31314124572E+01 -0.28065121022E+02  0.29725454491E+02  0.00000000000E+00 0. -1.
</event>
<event>
 7    1 -0.5487071E-013  0.5052892E+02  0.7816164E-02  0.1300439E+00
        -11   -1    0    0    0    0  0.00000000000E+00  0.00000000000E+00  0.45593999997E+02  0.45594000000E+02  0.51100000000E-03 0.  1.
         11   -1    0    0    0    0 -0.00000000000E+00 -0.00000000000E+00 -0.45593999997E+02  0.45594000000E+02  0.51100000000E-03 0. -1.
    9900012    2    1    2    0    0 -0.39432912827E+01  0.28226338648E+02 -0.28998018188E+02  0.50528919853E+02  0.30000182384E+02 0.  0.
        -12    1    1    2    0    0  0.39432912827E+01 -0.28226338648E+02  0.28998018188E+02  0.40659080147E+02  0.00000000000E+00 0.  1.
         11    1    3    3    0    0 -0.44175158540E+01  0.28720603235E+02 -0.29611392344E+02  0.41487613252E+02  0.51100000000E-03 0. -1.
        -11    1    3    3    0    0 -0.32607181953E+01  0.19435888768E+01 -0.15301363890E+01  0.40928154737E+01  0.51100000000E-03 0.  1.
         12    1    3    3    0    0  0.37349427666E+01 -0.24378534644E+01  0.21435105450E+01  0.49484911276E+01  0.00000000000E+00 0. -1.
</event>
<event>
 7    1  0.5487071E-013  0.5052886E+02  0.7816164E-02  0.1300439E+00
        -11   -1    0    0    0    0  0.00000000000E+00  0.00000000000E+00  0.45593999997E+02  0.45594000000E+02  0.51100000000E-03 0.  1.
         11   -1    0    0    0    0 -0.00000000000E+00 -0.00000000000E+00 -0.45593999997E+02  0.45594000000E+02  0.51100000000E-03 0. -1.
    9900012    2    1    2    0    0  0.21830386461E+02  0.27353852701E+02 -0.20697018913E+02  0.50528860529E+02  0.30000002065E+02 0.  0.
        -12    1    1    2    0    0 -0.21830386461E+02 -0.27353852701E+02  0.20697018913E+02  0.40659139471E+02  0.00000000000E+00 0.  1.
         11    1    3    3    0    0  0.58138739855E+01  0.42613587415E+01 -0.16353075782E+02  0.17871300928E+02  0.51100000000E-03 0. -1.
        -11    1    3    3    0    0  0.30576144506E+01 -0.22962013974E+01 -0.10351176008E+01  0.39614411133E+01  0.51100000000E-03 0.  1.
        -12    1    3    3    0    0  0.12958898025E+02  0.25388695356E+02 -0.33088255302E+01  0.28696118489E+02  0.00000000000E+00 0.  1.
</event>
<event>
 7    1  0.5487071E-013  0.5052884E+02  0.7816164E-02  0.1300439E+00
        -11   -1    0    0    0    0  0.00000000000E+00  0.00000000000E+00  0.45593999997E+02  0.45594000000E+02  0.51100000000E-03 0. -1.
         11   -1    0    0    0    0 -0.00000000000E+00 -0.00000000000E+00 -0.45593999997E+02  0.45594000000E+02  0.51100000000E-03 0.  1.
    9900012    2    1    2    0    0 -0.24126488340E+02 -0.15498645339E+02  0.28824841003E+02  0.50528844748E+02  0.29999954095E+02 0.  0.
        -12    1    1    2    0    0  0.24126488340E+02  0.15498645339E+02 -0.28824841003E+02  0.40659155252E+02  0.00000000000E+00 0.  1.
         11    1    3    3    0    0 -0.13569467973E+02 -0.46678993346E+01  0.10941843707E+02  0.18045600273E+02  0.51100000000E-03 0. -1.
        -11    1    3    3    0    0  0.28195399109E+01 -0.10723436195E+02  0.15241492404E+02  0.18847943657E+02  0.51100000000E-03 0.  1.
         12    1    3    3    0    0 -0.13376560278E+02 -0.10730980907E+00  0.26415048922E+01  0.13635300817E+02  0.00000000000E+00 0. -1.
</event>
<event>
 7    1  0.5487071E-013  0.5052886E+02  0.7816164E-02  0.1300439E+00
        -11   -1    0    0    0    0  0.00000000000E+00  0.00000000000E+00  0.45593999997E+02  0.45594000000E+02  0.51100000000E-03 0. -1.
         11   -1    0    0    0    0 -0.00000000000E+00 -0.00000000000E+00 -0.45593999997E+02  0.45594000000E+02  0.51100000000E-03 0.  1.
    9900012    2    1    2    0    0 -0.46954899852E+01 -0.92652380720E+01  0.39309966567E+02  0.50528859155E+02  0.29999997887E+02 0.  0.
        -12    1    1    2    0    0  0.46954899852E+01  0.92652380720E+01 -0.39309966567E+02  0.40659140845E+02  0.00000000000E+00 0.  1.
         11    1    3    3    0    0 -0.81875626901E+01  0.44833912997E-01  0.11728760240E+02  0.14303915894E+02  0.51100000000E-03 0. -1.
        -11    1    3    3    0    0  0.72897056316E+01 -0.10486326285E+02  0.56999132677E+01  0.13985415928E+02  0.51100000000E-03 0.  1.
         12    1    3    3    0    0 -0.37976329267E+01  0.11762543000E+01  0.21881293060E+02  0.22239527333E+02  0.00000000000E+00 0. -1.
</event>
<event>
 7    1  0.5487071E-013  0.5052886E+02  0.7816164E-02  0.1300439E+00
        -11   -1    0    0    0    0  0.00000000000E+00  0.00000000000E+00  0.45593999997E+02  0.45594000000E+02  0.51100000000E-03 0.  1.
         11   -1    0    0    0    0 -0.00000000000E+00 -0.00000000000E+00 -0.45593999997E+02  0.45594000000E+02  0.51100000000E-03 0. -1.
    9900012    2    1    2    0    0  0.36991368904E+02 -0.13739410135E+02 -0.97996357328E+01  0.50528860502E+02  0.30000001981E+02 0.  0.
        -12    1    1    2    0    0 -0.36991368904E+02  0.13739410135E+02  0.97996357328E+01  0.40659139498E+02  0.00000000000E+00 0.  1.
         11    1    3    3    0    0  0.39731777879E+01  0.15739232199E+01  0.18225463196E+01  0.46459715222E+01  0.51100000000E-03 0. -1.
        -11    1    3    3    0    0  0.89445433355E+01 -0.21253773466E+00  0.74630213607E+01  0.11651039261E+02  0.51100000000E-03 0.  1.
         12    1    3    3    0    0  0.24073647781E+02 -0.15100795620E+02 -0.19085203413E+02  0.34231849719E+02  0.00000000000E+00 0. -1.
</event>
<event>
 7    1  0.5487071E-013  0.5052881E+02  0.7816164E-02  0.1300439E+00
        -11   -1    0    0    0    0  0.00000000000E+00  0.00000000000E+00  0.45593999997E+02  0.45594000000E+02  0.51100000000E-03 0.  1.
         11   -1    0    0    0    0 -0.00000000000E+00 -0.00000000000E+00 -0.45593999997E+02  0.45594000000E+02  0.51100000000E-03 0. -1.
    9900012    2    1    2    0    0 -0.22035884519E+02  0.24237742312E+02 -0.24085705426E+02  0.50528812050E+02  0.29999854706E+02 0.  0.
        -12    1    1    2    0    0  0.22035884519E+02 -0.24237742312E+02  0.24085705426E+02  0.40659187950E+02  0.00000000000E+00 0.  1.
         11    1    3    3    0    0 -0.19819104357E+01  0.35984607316E+01 -0.10370364407E+02  0.11154431712E+02  0.51100000000E-03 0. -1.
        -11    1    3    3    0    0 -0.17167332143E+02  0.53976018736E+01  0.95810560078E+00  0.18021358592E+02  0.51100000000E-03 0.  1.
         12    1    3    3    0    0 -0.28866419402E+01  0.15241679706E+02 -0.14673446620E+02  0.21353021746E+02  0.00000000000E+00 0. -1.
</event>
<event>
 7    1  0.5487071E-013  0.5052882E+02  0.7816164E-02  0.1300439E+00
        -11   -1    0    0    0    0  0.00000000000E+00  0.00000000000E+00  0.45593999997E+02  0.45594000000E+02  0.51100000000E-03 0.  1.
         11   -1    0    0    0    0 -0.00000000000E+00 -0.00000000000E+00 -0.45593999997E+02  0.45594000000E+02  0.51100000000E-03 0. -1.
    9900012    2    1    2    0    0 -0.16474027151E+02 -0.49654454253E-01 -0.37172209714E+02  0.50528816398E+02  0.29999867925E+02 0.  0.
        -12    1    1    2    0    0  0.16474027151E+02  0.49654454253E-01  0.37172209714E+02  0.40659183602E+02  0.00000000000E+00 0.  1.
         11    1    3    3    0    0 -0.56750447430E+00  0.39452680310E+01 -0.34232459649E+01  0.52541235579E+01  0.51100000000E-03 0. -1.
        -11    1    3    3    0    0 -0.36140309663E+01  0.78141774069E+01 -0.14180675604E+01  0.87254515207E+01  0.51100000000E-03 0.  1.
         12    1    3    3    0    0 -0.12292491711E+02 -0.11809099892E+02 -0.32330896188E+02  0.36549241320E+02  0.00000000000E+00 0. -1.
</event>
<event>
 7    1  0.5487071E-013  0.5052887E+02  0.7816164E-02  0.1300439E+00
        -11   -1    0    0    0    0  0.00000000000E+00  0.00000000000E+00  0.45593999997E+02  0.45594000000E+02  0.51100000000E-03 0.  1.
         11   -1    0    0    0    0 -0.00000000000E+00 -0.00000000000E+00 -0.45593999997E+02  0.45594000000E+02  0.51100000000E-03 0. -1.
    9900012    2    1    2    0    0 -0.30394083029E+02  0.24606077593E+02 -0.11131299192E+02  0.50528866224E+02  0.30000019374E+02 0.  0.
        -12    1    1    2    0    0  0.30394083029E+02 -0.24606077593E+02  0.11131299192E+02  0.40659133776E+02  0.00000000000E+00 0.  1.
         11    1    3    3    0    0 -0.18599608936E+02  0.23846218860E+02 -0.13909195557E+02  0.33287434983E+02  0.51100000000E-03 0. -1.
        -11    1    3    3    0    0 -0.97559958745E+00  0.33906102922E+01 -0.30594171298E+01  0.46699107212E+01  0.51100000000E-03 0.  1.
         12    1    3    3    0    0 -0.10818874506E+02 -0.26307515585E+01  0.58373134946E+01  0.12571520519E+02  0.00000000000E+00 0. -1.
</event>
<event>
 7    1  0.5487071E-013  0.5052885E+02  0.7816164E-02  0.1300439E+00
        -11   -1    0    0    0    0  0.00000000000E+00  0.00000000000E+00  0.45593999997E+02  0.45594000000E+02  0.51100000000E-03 0.  1.
         11   -1    0    0    0    0 -0.00000000000E+00 -0.00000000000E+00 -0.45593999997E+02  0.45594000000E+02  0.51100000000E-03 0. -1.
    9900012    2    1    2    0    0 -0.24536205762E+02  0.24011439986E+01  0.32332262548E+02  0.50528854815E+02  0.29999984695E+02 0.  0.
        -12    1    1    2    0    0  0.24536205762E+02 -0.24011439986E+01 -0.32332262548E+02  0.40659145185E+02  0.00000000000E+00 0.  1.
         11    1    3    3    0    0 -0.48577879550E-01  0.58130233565E+01 -0.18975318593E+00  0.58163224537E+01  0.51100000000E-03 0. -1.
        -11    1    3    3    0    0  0.46568358790E+00 -0.30667474148E+01 -0.68188907487E+00  0.31759681802E+01  0.51100000000E-03 0.  1.
         12    1    3    3    0    0 -0.24953311470E+02 -0.34513194304E+00  0.33203904809E+02  0.41536564181E+02  0.00000000000E+00 0. -1.
</event>
<event>
 7    1  0.5487071E-013  0.5052884E+02  0.7816164E-02  0.1300439E+00
        -11   -1    0    0    0    0  0.00000000000E+00  0.00000000000E+00  0.45593999997E+02  0.45594000000E+02  0.51100000000E-03 0. -1.
         11   -1    0    0    0    0 -0.00000000000E+00 -0.00000000000E+00 -0.45593999997E+02  0.45594000000E+02  0.51100000000E-03 0.  1.
    9900012    2    1    2    0    0 -0.32034584477E+02  0.73494314411E+01  0.23936138879E+02  0.50528837570E+02  0.29999932276E+02 0.  0.
        -12    1    1    2    0    0  0.32034584477E+02 -0.73494314411E+01 -0.23936138879E+02  0.40659162430E+02  0.00000000000E+00 0.  1.
         11    1    3    3    0    0 -0.26834569061E+01  0.13335408283E+01 -0.18430337912E+01  0.35179604779E+01  0.51100000000E-03 0. -1.
        -11    1    3    3    0    0 -0.46010256269E+00 -0.74228812004E+01  0.53289948232E+01  0.91492647667E+01  0.51100000000E-03 0.  1.
         12    1    3    3    0    0 -0.28891025008E+02  0.13438771813E+02  0.20450177847E+02  0.37861612325E+02  0.00000000000E+00 0. -1.
</event>
<event>
 7    1  0.5487071E-013  0.5052887E+02  0.7816164E-02  0.1300439E+00
        -11   -1    0    0    0    0  0.00000000000E+00  0.00000000000E+00  0.45593999997E+02  0.45594000000E+02  0.51100000000E-03 0.  1.
         11   -1    0    0    0    0 -0.00000000000E+00 -0.00000000000E+00 -0.45593999997E+02  0.45594000000E+02  0.51100000000E-03 0. -1.
    9900012    2    1    2    0    0  0.27412815071E+02  0.18086291681E+01 -0.29973847890E+02  0.50528866623E+02  0.30000020588E+02 0.  0.
        -12    1    1    2    0    0 -0.27412815071E+02 -0.18086291681E+01  0.29973847890E+02  0.40659133377E+02  0.00000000000E+00 0.  1.
         11    1    3    3    0    0 -0.57489074537E+00  0.50282283355E+01 -0.91378295926E+01  0.10445741213E+02  0.51100000000E-03 0. -1.
        -11    1    3    3    0    0 -0.20951959653E+01 -0.28045840924E+01 -0.49441502978E+01  0.60580657386E+01  0.51100000000E-03 0.  1.
        -12    1    3    3    0    0  0.30082901782E+02 -0.41501507510E+00 -0.15891868000E+02  0.34025059672E+02  0.00000000000E+00 0.  1.
</event>
<event>
 7    1  0.5487071E-013  0.5052887E+02  0.7816164E-02  0.1300439E+00
        -11   -1    0    0    0    0  0.00000000000E+00  0.00000000000E+00  0.45593999997E+02  0.45594000000E+02  0.51100000000E-03 0.  1.
         11   -1    0    0    0    0 -0.00000000000E+00 -0.00000000000E+00 -0.45593999997E+02  0.45594000000E+02  0.51100000000E-03 0. -1.
    9900012    2    1    2    0    0 -0.60221582948E+01 -0.33535820250E+02 -0.22186653373E+02  0.50528865501E+02  0.30000017177E+02 0.  0.
        -12    1    1    2    0    0  0.60221582948E+01  0.33535820250E+02  0.22186653373E+02  0.40659134499E+02  0.00000000000E+00 0.  1.
         11    1    3    3    0    0 -0.13430406317E+02 -0.69544099472E+01 -0.76534910231E+01  0.16950385147E+02  0.51100000000E-03 0. -1.
        -11    1    3    3    0    0 -0.55990096796E+00  0.99295585989E+00  0.41943944649E+00  0.12146522729E+01  0.51100000000E-03 0.  1.
         12    1    3    3    0    0  0.79681489897E+01 -0.27574366162E+02 -0.14952601796E+02  0.32363828081E+02  0.00000000000E+00 0. -1.
</event>
<event>
 7    1  0.5487071E-013  0.5052887E+02  0.7816164E-02  0.1300439E+00
        -11   -1    0    0    0    0  0.00000000000E+00  0.00000000000E+00  0.45593999997E+02  0.45594000000E+02  0.51100000000E-03 0.  1.
         11   -1    0    0    0    0 -0.00000000000E+00 -0.00000000000E+00 -0.45593999997E+02  0.45594000000E+02  0.51100000000E-03 0. -1.
    9900012    2    1    2    0    0 -0.33086341316E+02 -0.17878952891E+02 -0.15453214437E+02  0.50528870956E+02  0.30000033759E+02 0.  0.
        -12    1    1    2    0    0  0.33086341316E+02  0.17878952891E+02  0.15453214437E+02  0.40659129044E+02  0.00000000000E+00 0.  1.
         11    1    3    3    0    0 -0.13652526281E+02 -0.81764343283E+01 -0.13337171985E+02  0.20763566866E+02  0.51100000000E-03 0. -1.
        -11    1    3    3    0    0 -0.21318557484E+02 -0.91381348899E+01 -0.72224392249E+01  0.24293003748E+02  0.51100000000E-03 0.  1.
        -12    1    3    3    0    0  0.18847424495E+01 -0.56438367309E+00  0.51063967732E+01  0.54723003423E+01  0.00000000000E+00 0.  1.
</event>
<event>
 7    1  0.5487071E-013  0.5052887E+02  0.7816164E-02  0.1300439E+00
        -11   -1    0    0    0    0  0.00000000000E+00  0.00000000000E+00  0.45593999997E+02  0.45594000000E+02  0.51100000000E-03 0.  1.
         11   -1    0    0    0    0 -0.00000000000E+00 -0.00000000000E+00 -0.45593999997E+02  0.45594000000E+02  0.51100000000E-03 0. -1.
    9900012    2    1    2    0    0 -0.39555716057E+01  0.30382856755E+02 -0.26728273921E+02  0.50528866240E+02  0.30000019423E+02 0.  0.
        -12    1    1    2    0    0  0.39555716057E+01 -0.30382856755E+02  0.26728273921E+02  0.40659133760E+02  0.00000000000E+00 0.  1.
         11    1    3    3    0    0  0.38031478103E+01  0.20926199873E+00 -0.55732344581E+01  0.67504567577E+01  0.51100000000E-03 0.  1.
        -11    1    3    3    0    0  0.71074149585E+01  0.15668726078E+02 -0.12551211615E+02  0.21296883283E+02  0.51100000000E-03 0. -1.
        -12    1    3    3    0    0 -0.14866134374E+02  0.14504868678E+02 -0.86038278481E+01  0.22481526199E+02  0.00000000000E+00 0.  1.
</event>
<event>
 7    1  0.5487071E-013  0.5052887E+02  0.7816164E-02  0.1300439E+00
        -11   -1    0    0    0    0  0.00000000000E+00  0.00000000000E+00  0.45593999997E+02  0.45594000000E+02  0.51100000000E-03 0.  1.
         11   -1    0    0    0    0 -0.00000000000E+00 -0.00000000000E+00 -0.45593999997E+02  0.45594000000E+02  0.51100000000E-03 0. -1.
    9900012    2    1    2    0    0 -0.11162321170E+02  0.38656937569E+02 -0.58488369115E+01  0.50528866593E+02  0.30000020497E+02 0.  0.
        -12    1    1    2    0    0  0.11162321170E+02 -0.38656937569E+02  0.58488369115E+01  0.40659133407E+02  0.00000000000E+00 0.  1.
         11    1    3    3    0    0 -0.62776578632E+01  0.57831869752E+00  0.21601651777E+01  0.66640644219E+01  0.51100000000E-03 0. -1.
        -11    1    3    3    0    0 -0.39827839690E+01  0.33105830817E+01 -0.74590212331E+01  0.90807227962E+01  0.51100000000E-03 0.  1.
         12    1    3    3    0    0 -0.90187933824E+00  0.34768035790E+02 -0.54998085610E+00  0.34784079375E+02  0.00000000000E+00 0. -1.
</event>
<event>
 7    1  0.5487071E-013  0.5052886E+02  0.7816164E-02  0.1300439E+00
        -11   -1    0    0    0    0  0.00000000000E+00  0.00000000000E+00  0.45593999997E+02  0.45594000000E+02  0.51100000000E-03 0.  1.
         11   -1    0    0    0    0 -0.00000000000E+00 -0.00000000000E+00 -0.45593999997E+02  0.45594000000E+02  0.51100000000E-03 0. -1.
    9900012    2    1    2    0    0  0.10286521292E+02 -0.30551141481E+02 -0.24778631920E+02  0.50528863684E+02  0.30000011655E+02 0.  0.
        -12    1    1    2    0    0 -0.10286521292E+02  0.30551141481E+02  0.24778631920E+02  0.40659136316E+02  0.00000000000E+00 0.  1.
         11    1    3    3    0    0  0.13932512670E+02 -0.52960722127E+01 -0.80779264744E+01  0.16953353254E+02  0.51100000000E-03 0. -1.
        -11    1    3    3    0    0  0.25789440417E+01  0.40601487122E+00 -0.70924764346E+00  0.27053341618E+01  0.51100000000E-03 0.  1.
        -12    1    3    3    0    0 -0.62249354197E+01 -0.25661084140E+02 -0.15991457802E+02  0.30870176269E+02  0.00000000000E+00 0.  1.
</event>
<event>
 7    1  0.5487071E-013  0.5052884E+02  0.7816164E-02  0.1300439E+00
        -11   -1    0    0    0    0  0.00000000000E+00  0.00000000000E+00  0.45593999997E+02  0.45594000000E+02  0.51100000000E-03 0.  1.
         11   -1    0    0    0    0 -0.00000000000E+00 -0.00000000000E+00 -0.45593999997E+02  0.45594000000E+02  0.51100000000E-03 0. -1.
    9900012    2    1    2    0    0 -0.92169445224E+01 -0.26059798488E+02 -0.29817815500E+02  0.50528840088E+02  0.29999939931E+02 0.  0.
        -12    1    1    2    0    0  0.92169445224E+01  0.26059798488E+02  0.29817815500E+02  0.40659159912E+02  0.00000000000E+00 0.  1.
         11    1    3    3    0    0  0.32899887075E+01 -0.27185269813E+01 -0.81075379731E+00  0.43441612107E+01  0.51100000000E-03 0.  1.
        -11    1    3    3    0    0 -0.10460952476E+02 -0.11615826765E+02 -0.30417126473E+02  0.34198838303E+02  0.51100000000E-03 0. -1.
         12    1    3    3    0    0 -0.20459807536E+01 -0.11725444741E+02  0.14100647696E+01  0.11985840574E+02  0.00000000000E+00 0. -1.
</event>
<event>
 7    1  0.5487071E-013  0.5052885E+02  0.7816164E-02  0.1300439E+00
        -11   -1    0    0    0    0  0.00000000000E+00  0.00000000000E+00  0.45593999997E+02  0.45594000000E+02  0.51100000000E-03 0.  1.
         11   -1    0    0    0    0 -0.00000000000E+00 -0.00000000000E+00 -0.45593999997E+02  0.45594000000E+02  0.51100000000E-03 0. -1.
    9900012    2    1    2    0    0 -0.28109018094E+02 -0.17984272666E+02 -0.23229621951E+02  0.50528852229E+02  0.29999976834E+02 0.  0.
        -12    1    1    2    0    0  0.28109018094E+02  0.17984272666E+02  0.23229621951E+02  0.40659147771E+02  0.00000000000E+00 0.  1.
         11    1    3    3    0    0 -0.52927563881E+01 -0.18693473862E+01 -0.12887224059E+01  0.57592131003E+01  0.51100000000E-03 0. -1.
        -11    1    3    3    0    0 -0.12724102857E+02 -0.20995912630E+02 -0.59856128135E+01  0.25269719066E+02  0.51100000000E-03 0.  1.
         12    1    3    3    0    0 -0.10092158849E+02  0.48809873500E+01 -0.15955286731E+02  0.19499920062E+02  0.00000000000E+00 0. -1.
</event>
<event>
 7    1  0.5487071E-013  0.5052886E+02  0.7816164E-02  0.1300439E+00
        -11   -1    0    0    0    0  0.00000000000E+00  0.00000000000E+00  0.45593999997E+02  0.45594000000E+02  0.51100000000E-03 0. -1.
         11   -1    0    0    0    0 -0.00000000000E+00 -0.00000000000E+00 -0.45593999997E+02  0.45594000000E+02  0.51100000000E-03 0.  1.
    9900012    2    1    2    0    0  0.22617637887E+02  0.21659012520E+02  0.25932520197E+02  0.50528856247E+02  0.29999989049E+02 0.  0.
        -12    1    1    2    0    0 -0.22617637887E+02 -0.21659012520E+02 -0.25932520197E+02  0.40659143753E+02  0.00000000000E+00 0.  1.
         11    1    3    3    0    0  0.23862721917E+01  0.28214398297E+00  0.82646886106E+01  0.86069145628E+01  0.51100000000E-03 0. -1.
        -11    1    3    3    0    0  0.41752829531E+01  0.21084142508E+01 -0.58836532658E+01  0.75163671015E+01  0.51100000000E-03 0.  1.
         12    1    3    3    0    0  0.16056082742E+02  0.19268454287E+02  0.23551484852E+02  0.34405574583E+02  0.00000000000E+00 0. -1.
</event>
<event>
 7    1  0.5487071E-013  0.5052886E+02  0.7816164E-02  0.1300439E+00
        -11   -1    0    0    0    0  0.00000000000E+00  0.00000000000E+00  0.45593999997E+02  0.45594000000E+02  0.51100000000E-03 0.  1.
         11   -1    0    0    0    0 -0.00000000000E+00 -0.00000000000E+00 -0.45593999997E+02  0.45594000000E+02  0.51100000000E-03 0. -1.
    9900012    2    1    2    0    0  0.39452277173E+02  0.61241125546E+01  0.76927708638E+01  0.50528860163E+02  0.30000000951E+02 0.  0.
        -12    1    1    2    0    0 -0.39452277173E+02 -0.61241125546E+01 -0.76927708638E+01  0.40659139837E+02  0.00000000000E+00 0.  1.
         11    1    3    3    0    0  0.92817914613E+01  0.14311053729E+01 -0.35188011412E+01  0.10029041682E+02  0.51100000000E-03 0. -1.
        -11    1    3    3    0    0  0.87178160732E+01  0.66060100369E+01 -0.64047245479E+01  0.12675179781E+02  0.51100000000E-03 0.  1.
        -12    1    3    3    0    0  0.21452669639E+02 -0.19130028552E+01  0.17616296553E+02  0.27824638700E+02  0.00000000000E+00 0.  1.
</event>
<event>
 7    1  0.5487071E-013  0.5052886E+02  0.7816164E-02  0.1300439E+00
        -11   -1    0    0    0    0  0.00000000000E+00  0.00000000000E+00  0.45593999997E+02  0.45594000000E+02  0.51100000000E-03 0.  1.
         11   -1    0    0    0    0 -0.00000000000E+00 -0.00000000000E+00 -0.45593999997E+02  0.45594000000E+02  0.51100000000E-03 0. -1.
    9900012    2    1    2    0    0 -0.27312583190E+02 -0.43536689147E+01 -0.29803251829E+02  0.50528862612E+02  0.30000008396E+02 0.  0.
        -12    1    1    2    0    0  0.27312583190E+02  0.43536689147E+01  0.29803251829E+02  0.40659137388E+02  0.00000000000E+00 0.  1.
         11    1    3    3    0    0 -0.14903639940E+02 -0.89632499762E-01 -0.88119286326E+01  0.17314057986E+02  0.51100000000E-03 0. -1.
        -11    1    3    3    0    0 -0.10597552521E+02 -0.35544662104E+01  0.92160477672E+00  0.11215690130E+02  0.51100000000E-03 0.  1.
        -12    1    3    3    0    0 -0.18113907294E+01 -0.70957020452E+00 -0.21912927973E+02  0.21999114496E+02  0.00000000000E+00 0.  1.
</event>
<event>
 7    1  0.5487071E-013  0.5052886E+02  0.7816164E-02  0.1300439E+00
        -11   -1    0    0    0    0  0.00000000000E+00  0.00000000000E+00  0.45593999997E+02  0.45594000000E+02  0.51100000000E-03 0. -1.
         11   -1    0    0    0    0 -0.00000000000E+00 -0.00000000000E+00 -0.45593999997E+02  0.45594000000E+02  0.51100000000E-03 0.  1.
    9900012    2    1    2    0    0  0.16662072545E+02  0.14531969680E+02  0.34122765899E+02  0.50528856417E+02  0.29999989566E+02 0.  0.
        -12    1    1    2    0    0 -0.16662072545E+02 -0.14531969680E+02 -0.34122765899E+02  0.40659143583E+02  0.00000000000E+00 0.  1.
         11    1    3    3    0    0  0.92419356487E+01 -0.34774691863E+01  0.64629094646E+01  0.11801498442E+02  0.51100000000E-03 0. -1.
        -11    1    3    3    0    0  0.33443483412E+01  0.18190971879E+02  0.10879862285E+02  0.21458507109E+02  0.51100000000E-03 0.  1.
         12    1    3    3    0    0  0.40757885546E+01 -0.18153301314E+00  0.16779994150E+02  0.17268850866E+02  0.00000000000E+00 0. -1.
</event>
<event>
 7    1  0.5487071E-013  0.5052886E+02  0.7816164E-02  0.1300439E+00
        -11   -1    0    0    0    0  0.00000000000E+00  0.00000000000E+00  0.45593999997E+02  0.45594000000E+02  0.51100000000E-03 0.  1.
         11   -1    0    0    0    0 -0.00000000000E+00 -0.00000000000E+00 -0.45593999997E+02  0.45594000000E+02  0.51100000000E-03 0. -1.
    9900012    2    1    2    0    0 -0.34246173380E+02 -0.10597670732E+02 -0.19184752953E+02  0.50528858814E+02  0.29999996851E+02 0.  0.
        -12    1    1    2    0    0  0.34246173380E+02  0.10597670732E+02  0.19184752953E+02  0.40659141186E+02  0.00000000000E+00 0.  1.
         11    1    3    3    0    0 -0.17272101535E+01  0.12249575316E+01 -0.32367838672E+01  0.38678864942E+01  0.51100000000E-03 0. -1.
        -11    1    3    3    0    0 -0.32772036917E+02 -0.20796183364E+01 -0.16784458221E+02  0.36878845618E+02  0.51100000000E-03 0.  1.
        -12    1    3    3    0    0  0.25307368972E+00 -0.97430099269E+01  0.83648913565E+00  0.97821267014E+01  0.00000000000E+00 0.  1.
</event>
<event>
 7    1  0.5487071E-013  0.5052885E+02  0.7816164E-02  0.1300439E+00
        -11   -1    0    0    0    0  0.00000000000E+00  0.00000000000E+00  0.45593999997E+02  0.45594000000E+02  0.51100000000E-03 0.  1.
         11   -1    0    0    0    0 -0.00000000000E+00 -0.00000000000E+00 -0.45593999997E+02  0.45594000000E+02  0.51100000000E-03 0. -1.
    9900012    2    1    2    0    0 -0.21272822497E+02 -0.67126288872E+01 -0.33993741435E+02  0.50528845799E+02  0.29999957292E+02 0.  0.
        -12    1    1    2    0    0  0.21272822497E+02  0.67126288872E+01  0.33993741435E+02  0.40659154201E+02  0.00000000000E+00 0.  1.
         11    1    3    3    0    0 -0.10100481338E+02 -0.55100214852E+01 -0.86036701860E+01  0.14366739399E+02  0.51100000000E-03 0. -1.
        -11    1    3    3    0    0 -0.11568697418E+02  0.76169237975E+01 -0.64783694189E+01  0.15291224891E+02  0.51100000000E-03 0.  1.
        -12    1    3    3    0    0  0.39635625886E+00 -0.88195311995E+01 -0.18911701830E+02  0.20870881509E+02  0.00000000000E+00 0.  1.
</event>
<event>
 7    1  0.5487071E-013  0.5052886E+02  0.7816164E-02  0.1300439E+00
        -11   -1    0    0    0    0  0.00000000000E+00  0.00000000000E+00  0.45593999997E+02  0.45594000000E+02  0.51100000000E-03 0.  1.
         11   -1    0    0    0    0 -0.00000000000E+00 -0.00000000000E+00 -0.45593999997E+02  0.45594000000E+02  0.51100000000E-03 0. -1.
    9900012    2    1    2    0    0  0.68776933946E+01 -0.91244923101E+01 -0.39020590233E+02  0.50528862178E+02  0.30000007075E+02 0.  0.
        -12    1    1    2    0    0 -0.68776933946E+01  0.91244923101E+01  0.39020590233E+02  0.40659137822E+02  0.00000000000E+00 0.  1.
         11    1    3    3    0    0  0.45275640865E+01 -0.11103525645E+02 -0.31153229539E+02  0.33381294602E+02  0.51100000000E-03 0. -1.
        -11    1    3    3    0    0 -0.22389501270E+01 -0.14648472162E+01 -0.10499490568E+02  0.10835034725E+02  0.51100000000E-03 0.  1.
        -12    1    3    3    0    0  0.45890794351E+01  0.34438805509E+01  0.26321298750E+01  0.63125328505E+01  0.00000000000E+00 0.  1.
</event>
<event>
 7    1  0.5487071E-013  0.5052886E+02  0.7816164E-02  0.1300439E+00
        -11   -1    0    0    0    0  0.00000000000E+00  0.00000000000E+00  0.45593999997E+02  0.45594000000E+02  0.51100000000E-03 0. -1.
         11   -1    0    0    0    0 -0.00000000000E+00 -0.00000000000E+00 -0.45593999997E+02  0.45594000000E+02  0.51100000000E-03 0.  1.
    9900012    2    1    2    0    0  0.37087932332E+02 -0.10797376378E+02  0.12691243414E+02  0.50528859321E+02  0.29999998392E+02 0.  0.
        -12    1    1    2    0    0 -0.37087932332E+02  0.10797376378E+02 -0.12691243414E+02  0.40659140679E+02  0.00000000000E+00 0.  1.
         11    1    3    3    0    0  0.14508310729E+02 -0.44708444608E+01  0.10355671886E+02  0.18377145341E+02  0.51100000000E-03 0. -1.
        -11    1    3    3    0    0  0.13430762798E+01 -0.22270896688E+01 -0.78319377332E+01  0.82524560711E+01  0.51100000000E-03 0.  1.
         12    1    3    3    0    0  0.21236545324E+02 -0.40994422487E+01  0.10167509262E+02  0.23899257909E+02  0.00000000000E+00 0. -1.
</event>
<event>
 7    1  0.5487071E-013  0.5052886E+02  0.7816164E-02  0.1300439E+00
        -11   -1    0    0    0    0  0.00000000000E+00  0.00000000000E+00  0.45593999997E+02  0.45594000000E+02  0.51100000000E-03 0.  1.
         11   -1    0    0    0    0 -0.00000000000E+00 -0.00000000000E+00 -0.45593999997E+02  0.45594000000E+02  0.51100000000E-03 0. -1.
    9900012    2    1    2    0    0  0.16831128977E+02  0.16084351678E+02 -0.33334258328E+02  0.50528855274E+02  0.29999986092E+02 0.  0.
        -12    1    1    2    0    0 -0.16831128977E+02 -0.16084351678E+02  0.33334258328E+02  0.40659144726E+02  0.00000000000E+00 0.  1.
         11    1    3    3    0    0  0.35982036149E+01  0.11870099392E+02 -0.83077268571E+01  0.14928652137E+02  0.51100000000E-03 0. -1.
        -11    1    3    3    0    0 -0.18888051965E+01  0.25179343662E+00 -0.18601840645E+02  0.18699183422E+02  0.51100000000E-03 0.  1.
        -12    1    3    3    0    0  0.15121730559E+02  0.39624588494E+01 -0.64246908262E+01  0.16901019716E+02  0.00000000000E+00 0.  1.
</event>
<event>
 7    1  0.5487071E-013  0.5052885E+02  0.7816164E-02  0.1300439E+00
        -11   -1    0    0    0    0  0.00000000000E+00  0.00000000000E+00  0.45593999997E+02  0.45594000000E+02  0.51100000000E-03 0. -1.
         11   -1    0    0    0    0 -0.00000000000E+00 -0.00000000000E+00 -0.45593999997E+02  0.45594000000E+02  0.51100000000E-03 0.  1.
    9900012    2    1    2    0    0 -0.27302170267E+02 -0.28768379726E+02  0.89519819637E+01  0.50528853988E+02  0.29999982183E+02 0.  0.
        -12    1    1    2    0    0  0.27302170267E+02  0.28768379726E+02 -0.89519819637E+01  0.40659146012E+02  0.00000000000E+00 0.  1.
         11    1    3    3    0    0 -0.82314520613E+00 -0.12346445052E+02  0.22942102094E+01  0.12584739735E+02  0.51100000000E-03 0. -1.
        -11    1    3    3    0    0 -0.95621472115E+01 -0.17982140551E+02  0.37100973415E+01  0.20701614928E+02  0.51100000000E-03 0.  1.
         12    1    3    3    0    0 -0.16916877849E+02  0.15602058768E+01  0.29476744129E+01  0.17242499325E+02  0.00000000000E+00 0. -1.
</event>
<event>
 7    1  0.5487071E-013  0.5052886E+02  0.7816164E-02  0.1300439E+00
        -11   -1    0    0    0    0  0.00000000000E+00  0.00000000000E+00  0.45593999997E+02  0.45594000000E+02  0.51100000000E-03 0.  1.
         11   -1    0    0    0    0 -0.00000000000E+00 -0.00000000000E+00 -0.45593999997E+02  0.45594000000E+02  0.51100000000E-03 0. -1.
    9900012    2    1    2    0    0  0.16795922155E+02  0.22711360613E+02 -0.29244768303E+02  0.50528863572E+02  0.30000011314E+02 0.  0.
        -12    1    1    2    0    0 -0.16795922155E+02 -0.22711360613E+02  0.29244768303E+02  0.40659136428E+02  0.00000000000E+00 0.  1.
         11    1    3    3    0    0  0.29555737671E+01  0.93709054948E+01 -0.33055050956E+00  0.98315080219E+01  0.51100000000E-03 0. -1.
        -11    1    3    3    0    0  0.92500649948E+00  0.46339495360E+01  0.27086269510E+01  0.54466306601E+01  0.51100000000E-03 0.  1.
         12    1    3    3    0    0  0.12915341889E+02  0.87065055825E+01 -0.31622844744E+02  0.35250724890E+02  0.00000000000E+00 0. -1.
</event>
<event>
 7    1  0.5487071E-013  0.5052886E+02  0.7816164E-02  0.1300439E+00
        -11   -1    0    0    0    0  0.00000000000E+00  0.00000000000E+00  0.45593999997E+02  0.45594000000E+02  0.51100000000E-03 0. -1.
         11   -1    0    0    0    0 -0.00000000000E+00 -0.00000000000E+00 -0.45593999997E+02  0.45594000000E+02  0.51100000000E-03 0.  1.
    9900012    2    1    2    0    0  0.32045271349E+02  0.19487834825E+02  0.15700009754E+02  0.50528862917E+02  0.30000009324E+02 0.  0.
        -12    1    1    2    0    0 -0.32045271349E+02 -0.19487834825E+02 -0.15700009754E+02  0.40659137083E+02  0.00000000000E+00 0.  1.
         11    1    3    3    0    0 -0.16477041474E+01 -0.37854290367E+01  0.41866819932E+01  0.58798561481E+01  0.51100000000E-03 0. -1.
        -11    1    3    3    0    0  0.16665144036E+01  0.41418674260E+01 -0.21044342051E+01  0.49356843109E+01  0.51100000000E-03 0.  1.
        -12    1    3    3    0    0  0.32026461093E+02  0.19131396436E+02  0.13617761966E+02  0.39713322458E+02  0.00000000000E+00 0.  1.
</event>
<event>
 7    1  0.5487071E-013  0.5052899E+02  0.7816164E-02  0.1300438E+00
        -11   -1    0    0    0    0  0.00000000000E+00  0.00000000000E+00  0.45593999997E+02  0.45594000000E+02  0.51100000000E-03 0. -1.
         11   -1    0    0    0    0 -0.00000000000E+00 -0.00000000000E+00 -0.45593999997E+02  0.45594000000E+02  0.51100000000E-03 0.  1.
    9900012    2    1    2    0    0  0.22338433225E+02 -0.10847751555E+02  0.32194343886E+02  0.50528990039E+02  0.30000395721E+02 0.  0.
        -12    1    1    2    0    0 -0.22338433225E+02  0.10847751555E+02 -0.32194343886E+02  0.40659009961E+02  0.00000000000E+00 0.  1.
         11    1    3    3    0    0 -0.59196860767E+00  0.33289231712E+00 -0.42350381599E+00  0.80037483128E+00  0.51100000000E-03 0. -1.
        -11    1    3    3    0    0  0.21429542406E+01 -0.41868855351E+01 -0.45680428024E+01  0.65566209794E+01  0.51100000000E-03 0.  1.
         12    1    3    3    0    0  0.20787447592E+02 -0.69937583368E+01  0.37185890504E+02  0.43171994229E+02  0.00000000000E+00 0. -1.
</event>
<event>
 7    1  0.5487071E-013  0.5052886E+02  0.7816164E-02  0.1300439E+00
        -11   -1    0    0    0    0  0.00000000000E+00  0.00000000000E+00  0.45593999997E+02  0.45594000000E+02  0.51100000000E-03 0. -1.
         11   -1    0    0    0    0 -0.00000000000E+00 -0.00000000000E+00 -0.45593999997E+02  0.45594000000E+02  0.51100000000E-03 0.  1.
    9900012    2    1    2    0    0  0.96741959580E+01  0.93526643342E+01  0.38368001988E+02  0.50528856205E+02  0.29999988921E+02 0.  0.
        -12    1    1    2    0    0 -0.96741959580E+01 -0.93526643342E+01 -0.38368001988E+02  0.40659143795E+02  0.00000000000E+00 0.  1.
         11    1    3    3    0    0  0.14484639796E+02  0.10974349492E+02  0.32867243382E+02  0.37556581641E+02  0.51100000000E-03 0. -1.
        -11    1    3    3    0    0  0.33964418796E+01 -0.84763034469E+00  0.18016860823E+01  0.39370506274E+01  0.51100000000E-03 0.  1.
        -12    1    3    3    0    0 -0.82068857181E+01 -0.77405481273E+00  0.36990725238E+01  0.90352239363E+01  0.00000000000E+00 0.  1.
</event>
<event>
 7    1  0.5487071E-013  0.5052886E+02  0.7816164E-02  0.1300439E+00
        -11   -1    0    0    0    0  0.00000000000E+00  0.00000000000E+00  0.45593999997E+02  0.45594000000E+02  0.51100000000E-03 0.  1.
         11   -1    0    0    0    0 -0.00000000000E+00 -0.00000000000E+00 -0.45593999997E+02  0.45594000000E+02  0.51100000000E-03 0. -1.
    9900012    2    1    2    0    0 -0.74879290470E+01  0.13105753765E+02 -0.37753620474E+02  0.50528859305E+02  0.29999998343E+02 0.  0.
        -12    1    1    2    0    0  0.74879290470E+01 -0.13105753765E+02  0.37753620474E+02  0.40659140695E+02  0.00000000000E+00 0.  1.
         11    1    3    3    0    0  0.24120715083E+01  0.41703407637E-01 -0.11137197310E+02  0.11395481224E+02  0.51100000000E-03 0. -1.
        -11    1    3    3    0    0 -0.77177826921E+01  0.90332129337E+00 -0.25580944393E+02  0.26735086971E+02  0.51100000000E-03 0.  1.
        -12    1    3    3    0    0 -0.21822178632E+01  0.12160729064E+02 -0.10354787714E+01  0.12398291110E+02  0.00000000000E+00 0.  1.
</event>
<event>
 7    1  0.5487071E-013  0.5052886E+02  0.7816164E-02  0.1300439E+00
        -11   -1    0    0    0    0  0.00000000000E+00  0.00000000000E+00  0.45593999997E+02  0.45594000000E+02  0.51100000000E-03 0.  1.
         11   -1    0    0    0    0 -0.00000000000E+00 -0.00000000000E+00 -0.45593999997E+02  0.45594000000E+02  0.51100000000E-03 0. -1.
    9900012    2    1    2    0    0  0.39576860006E+02 -0.67079999587E+01 -0.64684269061E+01  0.50528860093E+02  0.30000000739E+02 0.  0.
        -12    1    1    2    0    0 -0.39576860006E+02  0.67079999587E+01  0.64684269061E+01  0.40659139907E+02  0.00000000000E+00 0.  1.
         11    1    3    3    0    0  0.75851604330E+01 -0.75878275125E+01 -0.71488559295E+00  0.10752713463E+02  0.51100000000E-03 0. -1.
        -11    1    3    3    0    0  0.32371965874E+01 -0.59960635816E+01 -0.75327519223E+01  0.10157488469E+02  0.51100000000E-03 0.  1.
         12    1    3    3    0    0  0.28754502985E+02  0.68758911354E+01  0.17792106091E+01  0.29618658160E+02  0.00000000000E+00 0. -1.
</event>
<event>
 7    1  0.5487071E-013  0.5052887E+02  0.7816164E-02  0.1300439E+00
        -11   -1    0    0    0    0  0.00000000000E+00  0.00000000000E+00  0.45593999997E+02  0.45594000000E+02  0.51100000000E-03 0.  1.
         11   -1    0    0    0    0 -0.00000000000E+00 -0.00000000000E+00 -0.45593999997E+02  0.45594000000E+02  0.51100000000E-03 0. -1.
    9900012    2    1    2    0    0  0.37744493980E+02 -0.10275000531E+02 -0.11087935394E+02  0.50528870976E+02  0.30000033817E+02 0.  0.
        -12    1    1    2    0    0 -0.37744493980E+02  0.10275000531E+02  0.11087935394E+02  0.40659129024E+02  0.00000000000E+00 0.  1.
         11    1    3    3    0    0  0.30433365606E+02 -0.10671214732E+01 -0.12992626664E+02  0.33107957325E+02  0.51100000000E-03 0. -1.
        -11    1    3    3    0    0  0.28388544971E+01 -0.21410931278E+01 -0.53001029982E+01  0.63823558887E+01  0.51100000000E-03 0.  1.
        -12    1    3    3    0    0  0.44722738766E+01 -0.70667859301E+01  0.72047942681E+01  0.11038557762E+02  0.00000000000E+00 0.  1.
</event>
<event>
 7    1  0.5487071E-013  0.5052886E+02  0.7816164E-02  0.1300439E+00
        -11   -1    0    0    0    0  0.00000000000E+00  0.00000000000E+00  0.45593999997E+02  0.45594000000E+02  0.51100000000E-03 0.  1.
         11   -1    0    0    0    0 -0.00000000000E+00 -0.00000000000E+00 -0.45593999997E+02  0.45594000000E+02  0.51100000000E-03 0. -1.
    9900012    2    1    2    0    0 -0.32002079614E+02 -0.16275662278E+02 -0.19082330332E+02  0.50528860645E+02  0.30000002416E+02 0.  0.
        -12    1    1    2    0    0  0.32002079614E+02  0.16275662278E+02  0.19082330332E+02  0.40659139355E+02  0.00000000000E+00 0.  1.
         11    1    3    3    0    0 -0.17824413233E+02 -0.95556025522E+01 -0.98428558464E+01  0.22492244413E+02  0.51100000000E-03 0. -1.
        -11    1    3    3    0    0 -0.15999082392E+02 -0.98433004899E+01 -0.73894596919E+00  0.18799128791E+02  0.51100000000E-03 0.  1.
        -12    1    3    3    0    0  0.18214160108E+01  0.31232407642E+01 -0.85005285167E+01  0.92374874408E+01  0.00000000000E+00 0.  1.
</event>
<event>
 7    1  0.5487071E-013  0.5052885E+02  0.7816164E-02  0.1300439E+00
        -11   -1    0    0    0    0  0.00000000000E+00  0.00000000000E+00  0.45593999997E+02  0.45594000000E+02  0.51100000000E-03 0. -1.
         11   -1    0    0    0    0 -0.00000000000E+00 -0.00000000000E+00 -0.45593999997E+02  0.45594000000E+02  0.51100000000E-03 0.  1.
    9900012    2    1    2    0    0 -0.10582646613E+02 -0.11862266367E+02  0.37422725666E+02  0.50528853809E+02  0.29999981639E+02 0.  0.
        -12    1    1    2    0    0  0.10582646613E+02  0.11862266367E+02 -0.37422725666E+02  0.40659146191E+02  0.00000000000E+00 0.  1.
         11    1    3    3    0    0 -0.80846441687E+01 -0.18006243396E+02  0.19227673875E+02  0.27555212129E+02  0.51100000000E-03 0. -1.
        -11    1    3    3    0    0 -0.32693367040E+01 -0.14543576601E+01  0.38965050882E+00  0.35993814007E+01  0.51100000000E-03 0.  1.
         12    1    3    3    0    0  0.77133425985E+00  0.75983346886E+01  0.17805401282E+02  0.19374260280E+02  0.00000000000E+00 0. -1.
</event>
<event>
 7    1  0.5487071E-013  0.5052886E+02  0.7816164E-02  0.1300439E+00
        -11   -1    0    0    0    0  0.00000000000E+00  0.00000000000E+00  0.45593999997E+02  0.45594000000E+02  0.51100000000E-03 0.  1.
         11   -1    0    0    0    0 -0.00000000000E+00 -0.00000000000E+00 -0.45593999997E+02  0.45594000000E+02  0.51100000000E-03 0. -1.
    9900012    2    1    2    0    0 -0.11121596554E+02 -0.35734959913E+02 -0.15889885514E+02  0.50528859189E+02  0.29999997990E+02 0.  0.
        -12    1    1    2    0    0  0.11121596554E+02  0.35734959913E+02  0.15889885514E+02  0.40659140811E+02  0.00000000000E+00 0.  1.
         11    1    3    3    0    0  0.14452650577E+01 -0.50046191027E+01 -0.80337715549E+01  0.95747840241E+01  0.51100000000E-03 0. -1.
        -11    1    3    3    0    0 -0.42416476559E+01 -0.58845632344E+01 -0.12393838782E+02  0.14360602331E+02  0.51100000000E-03 0.  1.
         12    1    3    3    0    0 -0.83252139559E+01 -0.24845777576E+02  0.45377248237E+01  0.26593472833E+02  0.00000000000E+00 0. -1.
</event>
<event>
 7    1  0.5487071E-013  0.5052886E+02  0.7816164E-02  0.1300439E+00
        -11   -1    0    0    0    0  0.00000000000E+00  0.00000000000E+00  0.45593999997E+02  0.45594000000E+02  0.51100000000E-03 0. -1.
         11   -1    0    0    0    0 -0.00000000000E+00 -0.00000000000E+00 -0.45593999997E+02  0.45594000000E+02  0.51100000000E-03 0.  1.
    9900012    2    1    2    0    0 -0.38527228898E+01 -0.39122563046E+02 -0.10380138446E+02  0.50528859734E+02  0.29999999649E+02 0.  0.
        -12    1    1    2    0    0  0.38527228898E+01  0.39122563046E+02  0.10380138446E+02  0.40659140266E+02  0.00000000000E+00 0.  1.
         11    1    3    3    0    0 -0.46018727657E+01 -0.26584830188E+01  0.47214809313E+01  0.71089484003E+01  0.51100000000E-03 0. -1.
        -11    1    3    3    0    0 -0.15016765080E+01  0.28628546796E+00 -0.50167861848E+01  0.52445338772E+01  0.51100000000E-03 0.  1.
         12    1    3    3    0    0  0.22508263838E+01 -0.36750365495E+02 -0.10084833193E+02  0.38175377457E+02  0.00000000000E+00 0. -1.
</event>
<event>
 7    1  0.5487071E-013  0.5052886E+02  0.7816164E-02  0.1300439E+00
        -11   -1    0    0    0    0  0.00000000000E+00  0.00000000000E+00  0.45593999997E+02  0.45594000000E+02  0.51100000000E-03 0.  1.
         11   -1    0    0    0    0 -0.00000000000E+00 -0.00000000000E+00 -0.45593999997E+02  0.45594000000E+02  0.51100000000E-03 0. -1.
    9900012    2    1    2    0    0  0.16467723494E+02 -0.29638116834E+02 -0.22440180916E+02  0.50528860731E+02  0.30000002679E+02 0.  0.
        -12    1    1    2    0    0 -0.16467723494E+02  0.29638116834E+02  0.22440180916E+02  0.40659139269E+02  0.00000000000E+00 0.  1.
         11    1    3    3    0    0 -0.11342739938E+01 -0.10403205257E+02 -0.12427797684E+02  0.16246950873E+02  0.51100000000E-03 0. -1.
        -11    1    3    3    0    0  0.63887409625E+01 -0.12543645560E+02 -0.14751717392E+02  0.20390493405E+02  0.51100000000E-03 0.  1.
         12    1    3    3    0    0  0.11213256525E+02 -0.66912660171E+01  0.47393341602E+01  0.13891416454E+02  0.00000000000E+00 0. -1.
</event>
<event>
 7    1  0.5487071E-013  0.5052885E+02  0.7816164E-02  0.1300439E+00
        -11   -1    0    0    0    0  0.00000000000E+00  0.00000000000E+00  0.45593999997E+02  0.45594000000E+02  0.51100000000E-03 0.  1.
         11   -1    0    0    0    0 -0.00000000000E+00 -0.00000000000E+00 -0.45593999997E+02  0.45594000000E+02  0.51100000000E-03 0. -1.
    9900012    2    1    2    0    0  0.80581909011E+01  0.34562847676E+02 -0.19840403562E+02  0.50528849818E+02  0.29999969505E+02 0.  0.
        -12    1    1    2    0    0 -0.80581909011E+01 -0.34562847676E+02  0.19840403562E+02  0.40659150182E+02  0.00000000000E+00 0.  1.
         11    1    3    3    0    0 -0.81847010332E+01  0.20270992080E+02 -0.49632707742E+01  0.22417326066E+02  0.51100000000E-03 0. -1.
        -11    1    3    3    0    0  0.56311856526E+01 -0.19316552684E+00 -0.18606540655E+01  0.59337676554E+01  0.51100000000E-03 0.  1.
        -12    1    3    3    0    0  0.10611706282E+02  0.14485021123E+02 -0.13016478723E+02  0.22177756096E+02  0.00000000000E+00 0.  1.
</event>
<event>
 7    1  0.5487071E-013  0.5052887E+02  0.7816164E-02  0.1300439E+00
        -11   -1    0    0    0    0  0.00000000000E+00  0.00000000000E+00  0.45593999997E+02  0.45594000000E+02  0.51100000000E-03 0.  1.
         11   -1    0    0    0    0 -0.00000000000E+00 -0.00000000000E+00 -0.45593999997E+02  0.45594000000E+02  0.51100000000E-03 0. -1.
    9900012    2    1    2    0    0 -0.22979404005E+02 -0.31582075158E+02 -0.11299750924E+02  0.50528870021E+02  0.30000030917E+02 0.  0.
        -12    1    1    2    0    0  0.22979404005E+02  0.31582075158E+02  0.11299750924E+02  0.40659129979E+02  0.00000000000E+00 0.  1.
         11    1    3    3    0    0 -0.11128863495E+02 -0.18881050532E+02 -0.64780890928E+01  0.22854131146E+02  0.51100000000E-03 0. -1.
        -11    1    3    3    0    0 -0.89916895570E+00 -0.15554412720E+02 -0.49791271516E+01  0.16356649025E+02  0.51100000000E-03 0.  1.
        -12    1    3    3    0    0 -0.10951371554E+02  0.28533880944E+01  0.15746532032E+00  0.11318089850E+02  0.00000000000E+00 0.  1.
</event>
<event>
 7    1  0.5487071E-013  0.5052883E+02  0.7816164E-02  0.1300439E+00
        -11   -1    0    0    0    0  0.00000000000E+00  0.00000000000E+00  0.45593999997E+02  0.45594000000E+02  0.51100000000E-03 0. -1.
         11   -1    0    0    0    0 -0.00000000000E+00 -0.00000000000E+00 -0.45593999997E+02  0.45594000000E+02  0.51100000000E-03 0.  1.
    9900012    2    1    2    0    0 -0.17395401379E+02 -0.34044112286E+02  0.13840744498E+02  0.50528834013E+02  0.29999921465E+02 0.  0.
        -12    1    1    2    0    0  0.17395401379E+02  0.34044112286E+02 -0.13840744498E+02  0.40659165987E+02  0.00000000000E+00 0.  1.
         11    1    3    3    0    0 -0.89124954177E+01 -0.93675367983E+01  0.44312745572E+00  0.12937529998E+02  0.51100000000E-03 0. -1.
        -11    1    3    3    0    0 -0.11545921277E+02 -0.27812363482E+02  0.91149357594E+01  0.31462960998E+02  0.51100000000E-03 0.  1.
        -12    1    3    3    0    0  0.30630153151E+01  0.31357879943E+01  0.42826812830E+01  0.61283430173E+01  0.00000000000E+00 0.  1.
</event>
<event>
 7    1  0.5487071E-013  0.5052886E+02  0.7816164E-02  0.1300439E+00
        -11   -1    0    0    0    0  0.00000000000E+00  0.00000000000E+00  0.45593999997E+02  0.45594000000E+02  0.51100000000E-03 0. -1.
         11   -1    0    0    0    0 -0.00000000000E+00 -0.00000000000E+00 -0.45593999997E+02  0.45594000000E+02  0.51100000000E-03 0.  1.
    9900012    2    1    2    0    0 -0.34127008714E+02 -0.21559453508E+01  0.21996928419E+02  0.50528859773E+02  0.29999999767E+02 0.  0.
        -12    1    1    2    0    0  0.34127008714E+02  0.21559453508E+01 -0.21996928419E+02  0.40659140227E+02  0.00000000000E+00 0.  1.
         11    1    3    3    0    0 -0.63707284824E+01 -0.32260457680E+01  0.14915063357E+02  0.16536404322E+02  0.51100000000E-03 0. -1.
        -11    1    3    3    0    0 -0.80029557641E+01 -0.66452829322E+00  0.11159129146E+02  0.13748274887E+02  0.51100000000E-03 0.  1.
        -12    1    3    3    0    0 -0.19753324467E+02  0.17346287105E+01 -0.40772640846E+01  0.20244180564E+02  0.00000000000E+00 0.  1.
</event>
<event>
 7    1  0.5487071E-013  0.5052887E+02  0.7816164E-02  0.1300439E+00
        -11   -1    0    0    0    0  0.00000000000E+00  0.00000000000E+00  0.45593999997E+02  0.45594000000E+02  0.51100000000E-03 0.  1.
         11   -1    0    0    0    0 -0.00000000000E+00 -0.00000000000E+00 -0.45593999997E+02  0.45594000000E+02  0.51100000000E-03 0. -1.
    9900012    2    1    2    0    0  0.35676428060E+02  0.10915470281E+02 -0.16161994333E+02  0.50528867307E+02  0.30000022665E+02 0.  0.
        -12    1    1    2    0    0 -0.35676428060E+02 -0.10915470281E+02  0.16161994333E+02  0.40659132693E+02  0.00000000000E+00 0.  1.
         11    1    3    3    0    0  0.10172011764E+02 -0.57989190513E+00 -0.92348243003E+01  0.13750930080E+02  0.51100000000E-03 0. -1.
        -11    1    3    3    0    0  0.27722860707E+02  0.15126336188E+02 -0.45594604166E+01  0.31908489965E+02  0.51100000000E-03 0.  1.
        -12    1    3    3    0    0 -0.22184444111E+01 -0.36309740027E+01 -0.23677096161E+01  0.48694472622E+01  0.00000000000E+00 0.  1.
</event>
<event>
 7    1  0.5487071E-013  0.5052888E+02  0.7816164E-02  0.1300439E+00
        -11   -1    0    0    0    0  0.00000000000E+00  0.00000000000E+00  0.45593999997E+02  0.45594000000E+02  0.51100000000E-03 0. -1.
         11   -1    0    0    0    0 -0.00000000000E+00 -0.00000000000E+00 -0.45593999997E+02  0.45594000000E+02  0.51100000000E-03 0.  1.
    9900012    2    1    2    0    0  0.17825785901E+02 -0.33246993721E+02  0.15167161311E+02  0.50528880276E+02  0.30000062087E+02 0.  0.
        -12    1    1    2    0    0 -0.17825785901E+02  0.33246993721E+02 -0.15167161311E+02  0.40659119724E+02  0.00000000000E+00 0.  1.
         11    1    3    3    0    0 -0.38267144370E+01 -0.12373351392E+02 -0.15864932718E+01  0.13048391825E+02  0.51100000000E-03 0. -1.
        -11    1    3    3    0    0  0.82071297324E+01 -0.18837949166E+01 -0.61793795405E+00  0.84431930754E+01  0.51100000000E-03 0.  1.
         12    1    3    3    0    0  0.13445370606E+02 -0.18989847413E+02  0.17371592537E+02  0.29037295376E+02  0.00000000000E+00 0. -1.
</event>
<event>
 7    1  0.5487071E-013  0.5052886E+02  0.7816164E-02  0.1300439E+00
        -11   -1    0    0    0    0  0.00000000000E+00  0.00000000000E+00  0.45593999997E+02  0.45594000000E+02  0.51100000000E-03 0. -1.
         11   -1    0    0    0    0 -0.00000000000E+00 -0.00000000000E+00 -0.45593999997E+02  0.45594000000E+02  0.51100000000E-03 0.  1.
    9900012    2    1    2    0    0 -0.31430756951E+02 -0.24006495797E+02  0.94319405534E+01  0.50528858032E+02  0.29999994474E+02 0.  0.
        -12    1    1    2    0    0  0.31430756951E+02  0.24006495797E+02 -0.94319405534E+01  0.40659141968E+02  0.00000000000E+00 0.  1.
         11    1    3    3    0    0 -0.19313675621E+02 -0.81255164515E+01  0.83565309129E+01  0.22558228936E+02  0.51100000000E-03 0. -1.
        -11    1    3    3    0    0 -0.19506773960E+01  0.64251376066E+00  0.73099020754E+01  0.75929332177E+01  0.51100000000E-03 0.  1.
         12    1    3    3    0    0 -0.10166403934E+02 -0.16523493106E+02 -0.62344924349E+01  0.20377695878E+02  0.00000000000E+00 0. -1.
</event>
<event>
 7    1  0.5487071E-013  0.5052886E+02  0.7816164E-02  0.1300439E+00
        -11   -1    0    0    0    0  0.00000000000E+00  0.00000000000E+00  0.45593999997E+02  0.45594000000E+02  0.51100000000E-03 0. -1.
         11   -1    0    0    0    0 -0.00000000000E+00 -0.00000000000E+00 -0.45593999997E+02  0.45594000000E+02  0.51100000000E-03 0.  1.
    9900012    2    1    2    0    0 -0.77377772044E+01 -0.13134686543E+02  0.37693139599E+02  0.50528856386E+02  0.29999989469E+02 0.  0.
        -12    1    1    2    0    0  0.77377772044E+01  0.13134686543E+02 -0.37693139599E+02  0.40659143614E+02  0.00000000000E+00 0.  1.
         11    1    3    3    0    0 -0.48002677680E+01  0.13599759114E+01  0.26191646831E+02  0.26662604320E+02  0.51100000000E-03 0. -1.
        -11    1    3    3    0    0 -0.29191822497E+00  0.31029536256E+01  0.17026061811E+01  0.35513948699E+01  0.51100000000E-03 0.  1.
        -12    1    3    3    0    0 -0.26455912114E+01 -0.17597616080E+02  0.97988865865E+01  0.20314857196E+02  0.00000000000E+00 0.  1.
</event>
<event>
 7    1  0.5487071E-013  0.5052884E+02  0.7816164E-02  0.1300439E+00
        -11   -1    0    0    0    0  0.00000000000E+00  0.00000000000E+00  0.45593999997E+02  0.45594000000E+02  0.51100000000E-03 0. -1.
         11   -1    0    0    0    0 -0.00000000000E+00 -0.00000000000E+00 -0.45593999997E+02  0.45594000000E+02  0.51100000000E-03 0.  1.
    9900012    2    1    2    0    0 -0.14739661184E+02  0.13933383453E+02  0.35238764878E+02  0.50528839453E+02  0.29999938002E+02 0.  0.
        -12    1    1    2    0    0  0.14739661184E+02 -0.13933383453E+02 -0.35238764878E+02  0.40659160547E+02  0.00000000000E+00 0.  1.
         11    1    3    3    0    0 -0.19456511941E+01 -0.10953003811E+01  0.15477919923E+02  0.15638134381E+02  0.51100000000E-03 0. -1.
        -11    1    3    3    0    0  0.19126183180E+01 -0.41512674877E+01  0.27326382129E+01  0.53252645426E+01  0.51100000000E-03 0.  1.
        -12    1    3    3    0    0 -0.14706628308E+02  0.19179951322E+02  0.17028206741E+02  0.29565440530E+02  0.00000000000E+00 0.  1.
</event>
<event>
 7    1  0.5487071E-013  0.5052886E+02  0.7816164E-02  0.1300439E+00
        -11   -1    0    0    0    0  0.00000000000E+00  0.00000000000E+00  0.45593999997E+02  0.45594000000E+02  0.51100000000E-03 0.  1.
         11   -1    0    0    0    0 -0.00000000000E+00 -0.00000000000E+00 -0.45593999997E+02  0.45594000000E+02  0.51100000000E-03 0. -1.
    9900012    2    1    2    0    0 -0.37157771749E+02  0.77355316036E+01 -0.14581729102E+02  0.50528864813E+02  0.30000015087E+02 0.  0.
        -12    1    1    2    0    0  0.37157771749E+02 -0.77355316036E+01  0.14581729102E+02  0.40659135187E+02  0.00000000000E+00 0.  1.
         11    1    3    3    0    0 -0.19986184890E+01  0.10874108357E+02  0.11122122976E+01  0.11112053136E+02  0.51100000000E-03 0. -1.
        -11    1    3    3    0    0 -0.63801886507E+01  0.19567945381E+01 -0.11514589145E+01  0.67721274335E+01  0.51100000000E-03 0.  1.
         12    1    3    3    0    0 -0.28778964609E+02 -0.50953712920E+01 -0.14542482485E+02  0.32644684244E+02  0.00000000000E+00 0. -1.
</event>
<event>
 7    1  0.5487071E-013  0.5052886E+02  0.7816164E-02  0.1300439E+00
        -11   -1    0    0    0    0  0.00000000000E+00  0.00000000000E+00  0.45593999997E+02  0.45594000000E+02  0.51100000000E-03 0.  1.
         11   -1    0    0    0    0 -0.00000000000E+00 -0.00000000000E+00 -0.45593999997E+02  0.45594000000E+02  0.51100000000E-03 0. -1.
    9900012    2    1    2    0    0 -0.15772955058E+02 -0.13112409942E+02 -0.35106181252E+02  0.50528863661E+02  0.30000011584E+02 0.  0.
        -12    1    1    2    0    0  0.15772955058E+02  0.13112409942E+02  0.35106181252E+02  0.40659136339E+02  0.00000000000E+00 0.  1.
         11    1    3    3    0    0 -0.17273317691E+02 -0.11367210428E+02 -0.28472269851E+02  0.35188792644E+02  0.51100000000E-03 0. -1.
        -11    1    3    3    0    0  0.12435213157E+01  0.50418873735E+01 -0.67877612427E+01  0.85463838259E+01  0.51100000000E-03 0.  1.
        -12    1    3    3    0    0  0.25684131771E+00 -0.67870868877E+01  0.15384984202E+00  0.67936871917E+01  0.00000000000E+00 0.  1.
</event>
<event>
 7    1  0.5487071E-013  0.5052884E+02  0.7816164E-02  0.1300439E+00
        -11   -1    0    0    0    0  0.00000000000E+00  0.00000000000E+00  0.45593999997E+02  0.45594000000E+02  0.51100000000E-03 0.  1.
         11   -1    0    0    0    0 -0.00000000000E+00 -0.00000000000E+00 -0.45593999997E+02  0.45594000000E+02  0.51100000000E-03 0. -1.
    9900012    2    1    2    0    0  0.19586732206E+02 -0.13242088121E+02 -0.33078306679E+02  0.50528839297E+02  0.29999937527E+02 0.  0.
        -12    1    1    2    0    0 -0.19586732206E+02  0.13242088121E+02  0.33078306679E+02  0.40659160703E+02  0.00000000000E+00 0.  1.
         11    1    3    3    0    0 -0.30278428247E+00 -0.12533488082E+02 -0.13303335705E+02  0.18280009381E+02  0.51100000000E-03 0. -1.
        -11    1    3    3    0    0  0.22619707598E-02  0.24969808023E+01  0.15300581370E+01  0.29284802214E+01  0.51100000000E-03 0.  1.
        -12    1    3    3    0    0  0.19887254518E+02 -0.32055808410E+01 -0.21305029111E+02  0.29320349695E+02  0.00000000000E+00 0.  1.
</event>
<event>
 7    1  0.5487071E-013  0.5052886E+02  0.7816164E-02  0.1300439E+00
        -11   -1    0    0    0    0  0.00000000000E+00  0.00000000000E+00  0.45593999997E+02  0.45594000000E+02  0.51100000000E-03 0. -1.
         11   -1    0    0    0    0 -0.00000000000E+00 -0.00000000000E+00 -0.45593999997E+02  0.45594000000E+02  0.51100000000E-03 0.  1.
    9900012    2    1    2    0    0 -0.24742818194E+02 -0.31450732636E+02  0.71979362291E+01  0.50528856853E+02  0.29999990890E+02 0.  0.
        -12    1    1    2    0    0  0.24742818194E+02  0.31450732636E+02 -0.71979362291E+01  0.40659143147E+02  0.00000000000E+00 0.  1.
         11    1    3    3    0    0  0.10970958703E+01 -0.12155336361E+01  0.53725804139E+00  0.17233072370E+01  0.51100000000E-03 0.  1.
        -11    1    3    3    0    0 -0.16681958151E+02 -0.18577087341E+02  0.17457457688E+02  0.30465697612E+02  0.51100000000E-03 0. -1.
         12    1    3    3    0    0 -0.91579559134E+01 -0.11658111658E+02 -0.10796779500E+02  0.18339852004E+02  0.00000000000E+00 0. -1.
</event>
<event>
 7    1  0.5487071E-013  0.5052886E+02  0.7816164E-02  0.1300439E+00
        -11   -1    0    0    0    0  0.00000000000E+00  0.00000000000E+00  0.45593999997E+02  0.45594000000E+02  0.51100000000E-03 0.  1.
         11   -1    0    0    0    0 -0.00000000000E+00 -0.00000000000E+00 -0.45593999997E+02  0.45594000000E+02  0.51100000000E-03 0. -1.
    9900012    2    1    2    0    0  0.89857642630E+01 -0.29529922251E+02 -0.26465174999E+02  0.50528858897E+02  0.29999997103E+02 0.  0.
        -12    1    1    2    0    0 -0.89857642630E+01  0.29529922251E+02  0.26465174999E+02  0.40659141103E+02  0.00000000000E+00 0.  1.
         11    1    3    3    0    0 -0.31918662258E+01  0.53947670383E-01 -0.53717587097E+00  0.32372022692E+01  0.51100000000E-03 0. -1.
        -11    1    3    3    0    0  0.14955292945E+02 -0.11856950586E+02 -0.50093528124E+01  0.19731742957E+02  0.51100000000E-03 0.  1.
         12    1    3    3    0    0 -0.27776624563E+01 -0.17726919335E+02 -0.20918646316E+02  0.27559913670E+02  0.00000000000E+00 0. -1.
</event>
<event>
 7    1  0.5487071E-013  0.5052886E+02  0.7816164E-02  0.1300439E+00
        -11   -1    0    0    0    0  0.00000000000E+00  0.00000000000E+00  0.45593999997E+02  0.45594000000E+02  0.51100000000E-03 0.  1.
         11   -1    0    0    0    0 -0.00000000000E+00 -0.00000000000E+00 -0.45593999997E+02  0.45594000000E+02  0.51100000000E-03 0. -1.
    9900012    2    1    2    0    0 -0.15620509045E+02 -0.80147061900E+01 -0.36673286443E+02  0.50528858880E+02  0.29999997051E+02 0.  0.
        -12    1    1    2    0    0  0.15620509045E+02  0.80147061900E+01  0.36673286443E+02  0.40659141120E+02  0.00000000000E+00 0.  1.
         11    1    3    3    0    0 -0.29662963047E+01 -0.96840140470E+01 -0.21527452447E+02  0.23790969945E+02  0.51100000000E-03 0. -1.
        -11    1    3    3    0    0  0.42996390292E+00 -0.51418625085E+01  0.56127339566E+00  0.51902453796E+01  0.51100000000E-03 0.  1.
         12    1    3    3    0    0 -0.13084176643E+02  0.68111703654E+01 -0.15707107391E+02  0.21547643555E+02  0.00000000000E+00 0. -1.
</event>
<event>
 7    1  0.5487071E-013  0.5052884E+02  0.7816164E-02  0.1300439E+00
        -11   -1    0    0    0    0  0.00000000000E+00  0.00000000000E+00  0.45593999997E+02  0.45594000000E+02  0.51100000000E-03 0.  1.
         11   -1    0    0    0    0 -0.00000000000E+00 -0.00000000000E+00 -0.45593999997E+02  0.45594000000E+02  0.51100000000E-03 0. -1.
    9900012    2    1    2    0    0  0.13987231624E+02  0.17400953007E+02 -0.33981342779E+02  0.50528837796E+02  0.29999932966E+02 0.  0.
        -12    1    1    2    0    0 -0.13987231624E+02 -0.17400953007E+02  0.33981342779E+02  0.40659162204E+02  0.00000000000E+00 0.  1.
         11    1    3    3    0    0  0.12701839612E+01  0.68079409930E+01 -0.25320418371E+02  0.26250428846E+02  0.51100000000E-03 0. -1.
        -11    1    3    3    0    0  0.25103259094E+01 -0.15500069543E+01  0.32888380147E+01  0.44182251502E+01  0.51100000000E-03 0.  1.
        -12    1    3    3    0    0  0.10206721754E+02  0.12143018968E+02 -0.11949762423E+02  0.19860183800E+02  0.00000000000E+00 0.  1.
</event>
<event>
 7    1  0.5487071E-013  0.5052886E+02  0.7816164E-02  0.1300439E+00
        -11   -1    0    0    0    0  0.00000000000E+00  0.00000000000E+00  0.45593999997E+02  0.45594000000E+02  0.51100000000E-03 0.  1.
         11   -1    0    0    0    0 -0.00000000000E+00 -0.00000000000E+00 -0.45593999997E+02  0.45594000000E+02  0.51100000000E-03 0. -1.
    9900012    2    1    2    0    0  0.13136856409E+02 -0.38389622450E+02  0.26125359154E+01  0.50528862625E+02  0.30000008434E+02 0.  0.
        -12    1    1    2    0    0 -0.13136856409E+02  0.38389622450E+02 -0.26125359154E+01  0.40659137375E+02  0.00000000000E+00 0.  1.
         11    1    3    3    0    0 -0.50016686199E+01 -0.30905400520E+01 -0.21831419304E+01  0.62717011844E+01  0.51100000000E-03 0. -1.
        -11    1    3    3    0    0  0.16416355586E+02 -0.15979252288E+02 -0.34744750037E+01  0.23171215143E+02  0.51100000000E-03 0.  1.
         12    1    3    3    0    0  0.17221694430E+01 -0.19319830111E+02  0.82701528495E+01  0.21085946297E+02  0.00000000000E+00 0. -1.
</event>
<event>
 7    1  0.5487071E-013  0.5052886E+02  0.7816164E-02  0.1300439E+00
        -11   -1    0    0    0    0  0.00000000000E+00  0.00000000000E+00  0.45593999997E+02  0.45594000000E+02  0.51100000000E-03 0. -1.
         11   -1    0    0    0    0 -0.00000000000E+00 -0.00000000000E+00 -0.45593999997E+02  0.45594000000E+02  0.51100000000E-03 0.  1.
    9900012    2    1    2    0    0  0.27796080197E+02  0.29649578797E+02  0.12026216393E+01  0.50528857167E+02  0.29999991845E+02 0.  0.
        -12    1    1    2    0    0 -0.27796080197E+02 -0.29649578797E+02 -0.12026216393E+01  0.40659142833E+02  0.00000000000E+00 0.  1.
         11    1    3    3    0    0  0.47713238643E+01 -0.77300836507E+00  0.54382068590E+01  0.72757932524E+01  0.51100000000E-03 0.  1.
        -11    1    3    3    0    0  0.27913372120E+01 -0.28969663046E+01 -0.94605286653E+00  0.41326738910E+01  0.51100000000E-03 0. -1.
         12    1    3    3    0    0  0.20233419120E+02  0.33319553466E+02 -0.32895323531E+01  0.39120390024E+02  0.00000000000E+00 0. -1.
</event>
<event>
 7    1  0.5487071E-013  0.5052886E+02  0.7816164E-02  0.1300439E+00
        -11   -1    0    0    0    0  0.00000000000E+00  0.00000000000E+00  0.45593999997E+02  0.45594000000E+02  0.51100000000E-03 0. -1.
         11   -1    0    0    0    0 -0.00000000000E+00 -0.00000000000E+00 -0.45593999997E+02  0.45594000000E+02  0.51100000000E-03 0.  1.
    9900012    2    1    2    0    0  0.37962131588E+02 -0.13625419879E+02 -0.51371076048E+01  0.50528863559E+02  0.30000011275E+02 0.  0.
        -12    1    1    2    0    0 -0.37962131588E+02  0.13625419879E+02  0.51371076048E+01  0.40659136441E+02  0.00000000000E+00 0.  1.
         11    1    3    3    0    0  0.18838853387E+02 -0.70056628483E+01 -0.88984100400E+01  0.21980978376E+02  0.51100000000E-03 0. -1.
        -11    1    3    3    0    0  0.16659863025E+02 -0.10144826597E+02 -0.37781562727E+01  0.19868140522E+02  0.51100000000E-03 0.  1.
        -12    1    3    3    0    0  0.24634151755E+01  0.35250695666E+01  0.75394587079E+01  0.86797446612E+01  0.00000000000E+00 0.  1.
</event>
<event>
 7    1  0.5487071E-013  0.5052886E+02  0.7816164E-02  0.1300439E+00
        -11   -1    0    0    0    0  0.00000000000E+00  0.00000000000E+00  0.45593999997E+02  0.45594000000E+02  0.51100000000E-03 0. -1.
         11   -1    0    0    0    0 -0.00000000000E+00 -0.00000000000E+00 -0.45593999997E+02  0.45594000000E+02  0.51100000000E-03 0.  1.
    9900012    2    1    2    0    0 -0.35196701369E+02 -0.12298486789E+02 -0.16220509503E+02  0.50528862121E+02  0.30000006902E+02 0.  0.
        -12    1    1    2    0    0  0.35196701369E+02  0.12298486789E+02  0.16220509503E+02  0.40659137879E+02  0.00000000000E+00 0.  1.
         11    1    3    3    0    0 -0.25364003401E+01 -0.75468353014E+01 -0.17067872385E+01  0.81425532046E+01  0.51100000000E-03 0. -1.
        -11    1    3    3    0    0 -0.34362477564E+02 -0.59029787729E+01 -0.82979638264E+01  0.35839659969E+02  0.51100000000E-03 0.  1.
         12    1    3    3    0    0  0.17021765357E+01  0.11513272855E+01 -0.62157584381E+01  0.65466489472E+01  0.00000000000E+00 0. -1.
</event>
<event>
 7    1  0.5487071E-013  0.5052885E+02  0.7816164E-02  0.1300439E+00
        -11   -1    0    0    0    0  0.00000000000E+00  0.00000000000E+00  0.45593999997E+02  0.45594000000E+02  0.51100000000E-03 0.  1.
         11   -1    0    0    0    0 -0.00000000000E+00 -0.00000000000E+00 -0.45593999997E+02  0.45594000000E+02  0.51100000000E-03 0. -1.
    9900012    2    1    2    0    0 -0.34724576346E+02 -0.16094122751E+02 -0.13724040974E+02  0.50528852319E+02  0.29999977108E+02 0.  0.
        -12    1    1    2    0    0  0.34724576346E+02  0.16094122751E+02  0.13724040974E+02  0.40659147681E+02  0.00000000000E+00 0.  1.
         11    1    3    3    0    0 -0.26239075324E+01  0.58099505509E+00  0.33835678146E+01  0.43209926417E+01  0.51100000000E-03 0.  1.
        -11    1    3    3    0    0 -0.16481025218E+01  0.22342068434E+01  0.38031400948E+01  0.47086937661E+01  0.51100000000E-03 0. -1.
         12    1    3    3    0    0 -0.30452566291E+02 -0.18909324649E+02 -0.20910748884E+02  0.41499165911E+02  0.00000000000E+00 0. -1.
</event>
<event>
 7    1  0.5487071E-013  0.5052886E+02  0.7816164E-02  0.1300439E+00
        -11   -1    0    0    0    0  0.00000000000E+00  0.00000000000E+00  0.45593999997E+02  0.45594000000E+02  0.51100000000E-03 0. -1.
         11   -1    0    0    0    0 -0.00000000000E+00 -0.00000000000E+00 -0.45593999997E+02  0.45594000000E+02  0.51100000000E-03 0.  1.
    9900012    2    1    2    0    0 -0.33230424131E+02 -0.22060587200E+01  0.23324622076E+02  0.50528858617E+02  0.29999996253E+02 0.  0.
        -12    1    1    2    0    0  0.33230424131E+02  0.22060587200E+01 -0.23324622076E+02  0.40659141383E+02  0.00000000000E+00 0.  1.
         11    1    3    3    0    0 -0.29000644880E+02 -0.69944248704E+01  0.23236244581E+02  0.37813786443E+02  0.51100000000E-03 0. -1.
        -11    1    3    3    0    0 -0.64735880110E+01  0.40268796448E+00 -0.27325836820E+01  0.70382180396E+01  0.51100000000E-03 0.  1.
        -12    1    3    3    0    0  0.22438087597E+01  0.43856781859E+01  0.28209611771E+01  0.56768541344E+01  0.00000000000E+00 0.  1.
</event>
<event>
 7    1  0.5487071E-013  0.5052887E+02  0.7816164E-02  0.1300439E+00
        -11   -1    0    0    0    0  0.00000000000E+00  0.00000000000E+00  0.45593999997E+02  0.45594000000E+02  0.51100000000E-03 0. -1.
         11   -1    0    0    0    0 -0.00000000000E+00 -0.00000000000E+00 -0.45593999997E+02  0.45594000000E+02  0.51100000000E-03 0.  1.
    9900012    2    1    2    0    0 -0.34448074105E+02 -0.56634367505E+00 -0.21591078862E+02  0.50528865219E+02  0.30000016319E+02 0.  0.
        -12    1    1    2    0    0  0.34448074105E+02  0.56634367505E+00  0.21591078862E+02  0.40659134781E+02  0.00000000000E+00 0.  1.
         11    1    3    3    0    0 -0.24829880493E+00  0.11040725021E+01 -0.67491475274E+01  0.68433632809E+01  0.51100000000E-03 0. -1.
        -11    1    3    3    0    0  0.44708729359E+00 -0.60736868315E+01 -0.13054926939E+01  0.62284725423E+01  0.51100000000E-03 0.  1.
         12    1    3    3    0    0 -0.34646862594E+02  0.44032706544E+01 -0.13536438641E+02  0.37457029396E+02  0.00000000000E+00 0. -1.
</event>
<event>
 7    1  0.5487071E-013  0.5052886E+02  0.7816164E-02  0.1300439E+00
        -11   -1    0    0    0    0  0.00000000000E+00  0.00000000000E+00  0.45593999997E+02  0.45594000000E+02  0.51100000000E-03 0. -1.
         11   -1    0    0    0    0 -0.00000000000E+00 -0.00000000000E+00 -0.45593999997E+02  0.45594000000E+02  0.51100000000E-03 0.  1.
    9900012    2    1    2    0    0  0.27517167296E+02  0.28960462172E+02 -0.75672043277E+01  0.50528862693E+02  0.30000008642E+02 0.  0.
        -12    1    1    2    0    0 -0.27517167296E+02 -0.28960462172E+02  0.75672043277E+01  0.40659137307E+02  0.00000000000E+00 0.  1.
         11    1    3    3    0    0  0.72216288124E+01  0.10689804368E+02  0.13101376704E+01  0.12966892500E+02  0.51100000000E-03 0.  1.
        -11    1    3    3    0    0  0.28588103524E+01  0.11833224273E+02  0.61695591540E+01  0.13647763690E+02  0.51100000000E-03 0. -1.
        -12    1    3    3    0    0  0.17436728131E+02  0.64374335311E+01 -0.15046901152E+02  0.23914206503E+02  0.00000000000E+00 0.  1.
</event>
<event>
 7    1  0.5487071E-013  0.5052888E+02  0.7816164E-02  0.1300439E+00
        -11   -1    0    0    0    0  0.00000000000E+00  0.00000000000E+00  0.45593999997E+02  0.45594000000E+02  0.51100000000E-03 0.  1.
         11   -1    0    0    0    0 -0.00000000000E+00 -0.00000000000E+00 -0.45593999997E+02  0.45594000000E+02  0.51100000000E-03 0. -1.
    9900012    2    1    2    0    0  0.86002704995E+01 -0.14573466912E+02 -0.36970445150E+02  0.50528875500E+02  0.30000047569E+02 0.  0.
        -12    1    1    2    0    0 -0.86002704995E+01  0.14573466912E+02  0.36970445150E+02  0.40659124500E+02  0.00000000000E+00 0.  1.
         11    1    3    3    0    0  0.27712993122E+01  0.16961014926E+01 -0.26984477075E+02  0.27179383058E+02  0.51100000000E-03 0.  1.
        -11    1    3    3    0    0  0.68565630112E+01 -0.12195818403E+02 -0.12233117021E+02  0.18584929248E+02  0.51100000000E-03 0. -1.
        -12    1    3    3    0    0 -0.10275918239E+01 -0.40737500017E+01  0.22471489462E+01  0.47645631929E+01  0.00000000000E+00 0.  1.
</event>
<event>
 7    1  0.5487071E-013  0.5052886E+02  0.7816164E-02  0.1300439E+00
        -11   -1    0    0    0    0  0.00000000000E+00  0.00000000000E+00  0.45593999997E+02  0.45594000000E+02  0.51100000000E-03 0.  1.
         11   -1    0    0    0    0 -0.00000000000E+00 -0.00000000000E+00 -0.45593999997E+02  0.45594000000E+02  0.51100000000E-03 0. -1.
    9900012    2    1    2    0    0 -0.34412519659E+02  0.19342207988E+02 -0.97377105621E+01  0.50528861714E+02  0.30000005667E+02 0.  0.
        -12    1    1    2    0    0  0.34412519659E+02 -0.19342207988E+02  0.97377105621E+01  0.40659138286E+02  0.00000000000E+00 0.  1.
         11    1    3    3    0    0 -0.30177058323E+02  0.18093740234E+02 -0.85445659180E+01  0.36208395320E+02  0.51100000000E-03 0. -1.
        -11    1    3    3    0    0 -0.56973983291E+01  0.29141200257E+01 -0.61594641778E+01  0.88820854794E+01  0.51100000000E-03 0.  1.
        -12    1    3    3    0    0  0.14619369933E+01 -0.16656522713E+01  0.49663195337E+01  0.54383809146E+01  0.00000000000E+00 0.  1.
</event>
<event>
 7    1  0.5487071E-013  0.5052887E+02  0.7816164E-02  0.1300439E+00
        -11   -1    0    0    0    0  0.00000000000E+00  0.00000000000E+00  0.45593999997E+02  0.45594000000E+02  0.51100000000E-03 0.  1.
         11   -1    0    0    0    0 -0.00000000000E+00 -0.00000000000E+00 -0.45593999997E+02  0.45594000000E+02  0.51100000000E-03 0. -1.
    9900012    2    1    2    0    0  0.29767193122E+02  0.86188224825E+01 -0.26321000237E+02  0.50528868912E+02  0.30000027545E+02 0.  0.
        -12    1    1    2    0    0 -0.29767193122E+02 -0.86188224825E+01  0.26321000237E+02  0.40659131088E+02  0.00000000000E+00 0.  1.
         11    1    3    3    0    0  0.37116276658E+01 -0.59709777058E+01 -0.14286597396E+02  0.15922801893E+02  0.51100000000E-03 0. -1.
        -11    1    3    3    0    0  0.30873751796E+01 -0.21304062460E+01  0.41895999390E-02  0.37510710585E+01  0.51100000000E-03 0.  1.
         12    1    3    3    0    0  0.22968190277E+02  0.16720206434E+02 -0.12038592441E+02  0.30854995961E+02  0.00000000000E+00 0. -1.
</event>
<event>
 7    1  0.5487071E-013  0.5052886E+02  0.7816164E-02  0.1300439E+00
        -11   -1    0    0    0    0  0.00000000000E+00  0.00000000000E+00  0.45593999997E+02  0.45594000000E+02  0.51100000000E-03 0.  1.
         11   -1    0    0    0    0 -0.00000000000E+00 -0.00000000000E+00 -0.45593999997E+02  0.45594000000E+02  0.51100000000E-03 0. -1.
    9900012    2    1    2    0    0  0.18421004183E+02  0.11780512962E+02 -0.34279023496E+02  0.50528864095E+02  0.30000012902E+02 0.  0.
        -12    1    1    2    0    0 -0.18421004183E+02 -0.11780512962E+02  0.34279023496E+02  0.40659135905E+02  0.00000000000E+00 0.  1.
         11    1    3    3    0    0  0.60570504461E+00  0.47267639888E+01 -0.11444183091E+02  0.12396713406E+02  0.51100000000E-03 0. -1.
        -11    1    3    3    0    0 -0.52029659437E+01 -0.22345565709E+01 -0.51569697058E+01  0.76588794538E+01  0.51100000000E-03 0.  1.
         12    1    3    3    0    0  0.23018265082E+02  0.92883055437E+01 -0.17677870699E+02  0.30473271234E+02  0.00000000000E+00 0. -1.
</event>
<event>
 7    1  0.5487071E-013  0.5052886E+02  0.7816164E-02  0.1300439E+00
        -11   -1    0    0    0    0  0.00000000000E+00  0.00000000000E+00  0.45593999997E+02  0.45594000000E+02  0.51100000000E-03 0. -1.
         11   -1    0    0    0    0 -0.00000000000E+00 -0.00000000000E+00 -0.45593999997E+02  0.45594000000E+02  0.51100000000E-03 0.  1.
    9900012    2    1    2    0    0  0.89331279206E+01 -0.21830347719E+02  0.33117982731E+02  0.50528860361E+02  0.30000001554E+02 0.  0.
        -12    1    1    2    0    0 -0.89331279206E+01  0.21830347719E+02 -0.33117982731E+02  0.40659139639E+02  0.00000000000E+00 0.  1.
         11    1    3    3    0    0 -0.30485000024E+01 -0.60509647062E+01  0.37327960223E+01  0.77357153868E+01  0.51100000000E-03 0. -1.
        -11    1    3    3    0    0 -0.20243010695E+01 -0.61035843020E+01 -0.22959848415E+01  0.68281097535E+01  0.51100000000E-03 0.  1.
        -12    1    3    3    0    0  0.14005928992E+02 -0.96757987107E+01  0.31681171551E+02  0.35965035221E+02  0.00000000000E+00 0.  1.
</event>
<event>
 7    1  0.5487071E-013  0.5052886E+02  0.7816164E-02  0.1300439E+00
        -11   -1    0    0    0    0  0.00000000000E+00  0.00000000000E+00  0.45593999997E+02  0.45594000000E+02  0.51100000000E-03 0. -1.
         11   -1    0    0    0    0 -0.00000000000E+00 -0.00000000000E+00 -0.45593999997E+02  0.45594000000E+02  0.51100000000E-03 0.  1.
    9900012    2    1    2    0    0 -0.39495451091E+02  0.92085250448E+01  0.29117447757E+01  0.50528857756E+02  0.29999993636E+02 0.  0.
        -12    1    1    2    0    0  0.39495451091E+02 -0.92085250448E+01 -0.29117447757E+01  0.40659142244E+02  0.00000000000E+00 0.  1.
         11    1    3    3    0    0 -0.37370865723E+02  0.13594617676E+02  0.61360215881E+01  0.40237370638E+02  0.51100000000E-03 0. -1.
        -11    1    3    3    0    0 -0.33833102995E+01  0.13148036393E+01 -0.25024599590E+01  0.44088324192E+01  0.51100000000E-03 0.  1.
         12    1    3    3    0    0  0.12587249320E+01 -0.57008962706E+01 -0.72181685342E+00  0.58826546994E+01  0.00000000000E+00 0. -1.
</event>
<event>
 7    1  0.5487071E-013  0.5052886E+02  0.7816164E-02  0.1300439E+00
        -11   -1    0    0    0    0  0.00000000000E+00  0.00000000000E+00  0.45593999997E+02  0.45594000000E+02  0.51100000000E-03 0. -1.
         11   -1    0    0    0    0 -0.00000000000E+00 -0.00000000000E+00 -0.45593999997E+02  0.45594000000E+02  0.51100000000E-03 0.  1.
    9900012    2    1    2    0    0 -0.12848484063E+02  0.38434867508E+02  0.32929175673E+01  0.50528857249E+02  0.29999992095E+02 0.  0.
        -12    1    1    2    0    0  0.12848484063E+02 -0.38434867508E+02 -0.32929175673E+01  0.40659142751E+02  0.00000000000E+00 0.  1.
         11    1    3    3    0    0 -0.10390209467E+02  0.69997683367E+01 -0.16416752112E+01  0.12635201118E+02  0.51100000000E-03 0. -1.
        -11    1    3    3    0    0  0.82369254812E+01  0.67286597196E+01  0.94753433905E+00  0.10677997218E+02  0.51100000000E-03 0.  1.
         12    1    3    3    0    0 -0.10695200078E+02  0.24706439452E+02  0.39870584395E+01  0.27215658914E+02  0.00000000000E+00 0. -1.
</event>
<event>
 7    1  0.5487071E-013  0.5052893E+02  0.7816164E-02  0.1300439E+00
        -11   -1    0    0    0    0  0.00000000000E+00  0.00000000000E+00  0.45593999997E+02  0.45594000000E+02  0.51100000000E-03 0. -1.
         11   -1    0    0    0    0 -0.00000000000E+00 -0.00000000000E+00 -0.45593999997E+02  0.45594000000E+02  0.51100000000E-03 0.  1.
    9900012    2    1    2    0    0  0.28895437393E+02 -0.38468569846E+01  0.28344585873E+02  0.50528927715E+02  0.30000206281E+02 0.  0.
        -12    1    1    2    0    0 -0.28895437393E+02  0.38468569846E+01 -0.28344585873E+02  0.40659072285E+02  0.00000000000E+00 0.  1.
         11    1    3    3    0    0  0.35020625856E+01  0.57644601374E+01  0.28223441287E+01  0.73115709441E+01  0.51100000000E-03 0. -1.
        -11    1    3    3    0    0  0.76750221194E+01 -0.79778838830E+01 -0.11764171703E+01  0.11132679525E+02  0.51100000000E-03 0.  1.
         12    1    3    3    0    0  0.17718352688E+02 -0.16334332390E+01  0.26698658914E+02  0.32084677246E+02  0.00000000000E+00 0. -1.
</event>
<event>
 7    1  0.5487071E-013  0.5052885E+02  0.7816164E-02  0.1300439E+00
        -11   -1    0    0    0    0  0.00000000000E+00  0.00000000000E+00  0.45593999997E+02  0.45594000000E+02  0.51100000000E-03 0.  1.
         11   -1    0    0    0    0 -0.00000000000E+00 -0.00000000000E+00 -0.45593999997E+02  0.45594000000E+02  0.51100000000E-03 0. -1.
    9900012    2    1    2    0    0  0.36918337850E+02 -0.15509947715E+02 -0.70458444909E+01  0.50528854997E+02  0.29999985250E+02 0.  0.
        -12    1    1    2    0    0 -0.36918337850E+02  0.15509947715E+02  0.70458444909E+01  0.40659145003E+02  0.00000000000E+00 0.  1.
         11    1    3    3    0    0  0.25765351733E+02 -0.56381425546E+01  0.73161883926E+01  0.27370944709E+02  0.51100000000E-03 0. -1.
        -11    1    3    3    0    0 -0.63303460071E+00 -0.13197239952E+01  0.11651204133E+01  0.18708046578E+01  0.51100000000E-03 0.  1.
        -12    1    3    3    0    0  0.11786020717E+02 -0.85520811657E+01 -0.15527153297E+02  0.21287105630E+02  0.00000000000E+00 0.  1.
</event>
<event>
 7    1  0.5487071E-013  0.5052886E+02  0.7816164E-02  0.1300439E+00
        -11   -1    0    0    0    0  0.00000000000E+00  0.00000000000E+00  0.45593999997E+02  0.45594000000E+02  0.51100000000E-03 0.  1.
         11   -1    0    0    0    0 -0.00000000000E+00 -0.00000000000E+00 -0.45593999997E+02  0.45594000000E+02  0.51100000000E-03 0. -1.
    9900012    2    1    2    0    0  0.39082986706E+02 -0.10489144730E+02 -0.39576942258E+01  0.50528863873E+02  0.30000012227E+02 0.  0.
        -12    1    1    2    0    0 -0.39082986706E+02  0.10489144730E+02  0.39576942258E+01  0.40659136127E+02  0.00000000000E+00 0.  1.
         11    1    3    3    0    0  0.17208012482E+02  0.66157147574E+01  0.14251010242E+01  0.18490924491E+02  0.51100000000E-03 0. -1.
        -11    1    3    3    0    0  0.15773335992E+02 -0.28149698694E+01 -0.33291972170E+01  0.16364771250E+02  0.51100000000E-03 0.  1.
        -12    1    3    3    0    0  0.61016382318E+01 -0.14289889618E+02 -0.20535980330E+01  0.15673168132E+02  0.00000000000E+00 0.  1.
</event>
<event>
 7    1  0.5487071E-013  0.5052886E+02  0.7816164E-02  0.1300439E+00
        -11   -1    0    0    0    0  0.00000000000E+00  0.00000000000E+00  0.45593999997E+02  0.45594000000E+02  0.51100000000E-03 0. -1.
         11   -1    0    0    0    0 -0.00000000000E+00 -0.00000000000E+00 -0.45593999997E+02  0.45594000000E+02  0.51100000000E-03 0.  1.
    9900012    2    1    2    0    0 -0.54749740232E+01 -0.24487181524E+02  0.31993254835E+02  0.50528858907E+02  0.29999997132E+02 0.  0.
        -12    1    1    2    0    0  0.54749740232E+01  0.24487181524E+02 -0.31993254835E+02  0.40659141093E+02  0.00000000000E+00 0.  1.
         11    1    3    3    0    0  0.98107506288E+00 -0.70413616357E+00 -0.10976600997E+01  0.16319233963E+01  0.51100000000E-03 0. -1.
        -11    1    3    3    0    0  0.65287814773E+01 -0.57903683226E+01 -0.38493914145E+00  0.87350747732E+01  0.51100000000E-03 0.  1.
         12    1    3    3    0    0 -0.12984830563E+02 -0.17992677037E+02  0.33475854076E+02  0.40161860737E+02  0.00000000000E+00 0. -1.
</event>
<event>
 7    1  0.5487071E-013  0.5052887E+02  0.7816164E-02  0.1300439E+00
        -11   -1    0    0    0    0  0.00000000000E+00  0.00000000000E+00  0.45593999997E+02  0.45594000000E+02  0.51100000000E-03 0.  1.
         11   -1    0    0    0    0 -0.00000000000E+00 -0.00000000000E+00 -0.45593999997E+02  0.45594000000E+02  0.51100000000E-03 0. -1.
    9900012    2    1    2    0    0  0.47124920047E+00 -0.23738903795E+02 -0.33006168836E+02  0.50528870516E+02  0.30000032419E+02 0.  0.
        -12    1    1    2    0    0 -0.47124920047E+00  0.23738903795E+02  0.33006168836E+02  0.40659129484E+02  0.00000000000E+00 0.  1.
         11    1    3    3    0    0 -0.50643823056E+01 -0.43860240035E+01 -0.17428885499E+01  0.69226321190E+01  0.51100000000E-03 0. -1.
        -11    1    3    3    0    0  0.99540567559E+01 -0.11633693952E+02 -0.53658099719E+01  0.16223994508E+02  0.51100000000E-03 0.  1.
         12    1    3    3    0    0 -0.44184252499E+01 -0.77191858394E+01 -0.25897470314E+02  0.27382243889E+02  0.00000000000E+00 0. -1.
</event>
<event>
 7    1  0.5487071E-013  0.5052886E+02  0.7816164E-02  0.1300439E+00
        -11   -1    0    0    0    0  0.00000000000E+00  0.00000000000E+00  0.45593999997E+02  0.45594000000E+02  0.51100000000E-03 0. -1.
         11   -1    0    0    0    0 -0.00000000000E+00 -0.00000000000E+00 -0.45593999997E+02  0.45594000000E+02  0.51100000000E-03 0.  1.
    9900012    2    1    2    0    0 -0.11493377784E+02 -0.24681933317E+02  0.30197186252E+02  0.50528860526E+02  0.30000002056E+02 0.  0.
        -12    1    1    2    0    0  0.11493377784E+02  0.24681933317E+02 -0.30197186252E+02  0.40659139474E+02  0.00000000000E+00 0.  1.
         11    1    3    3    0    0 -0.86399369410E+01 -0.32755011761E+01  0.20809740965E+02  0.22768898471E+02  0.51100000000E-03 0. -1.
        -11    1    3    3    0    0  0.43570779193E+00  0.22203127103E+01  0.99993407607E+00  0.24737619588E+01  0.51100000000E-03 0.  1.
         12    1    3    3    0    0 -0.32891486350E+01 -0.23626744851E+02  0.83875112118E+01  0.25286200097E+02  0.00000000000E+00 0. -1.
</event>
<event>
 7    1  0.5487071E-013  0.5052886E+02  0.7816164E-02  0.1300439E+00
        -11   -1    0    0    0    0  0.00000000000E+00  0.00000000000E+00  0.45593999997E+02  0.45594000000E+02  0.51100000000E-03 0.  1.
         11   -1    0    0    0    0 -0.00000000000E+00 -0.00000000000E+00 -0.45593999997E+02  0.45594000000E+02  0.51100000000E-03 0. -1.
    9900012    2    1    2    0    0  0.24422968127E+02 -0.32442911164E+02 -0.20351630927E+01  0.50528859014E+02  0.29999997458E+02 0.  0.
        -12    1    1    2    0    0 -0.24422968127E+02  0.32442911164E+02  0.20351630927E+01  0.40659140986E+02  0.00000000000E+00 0.  1.
         11    1    3    3    0    0  0.56750903339E+01 -0.20995740253E+01 -0.10637368011E+02  0.12237992477E+02  0.51100000000E-03 0. -1.
        -11    1    3    3    0    0  0.17623604179E+00  0.79901968956E+00  0.91120735117E+00  0.12246594240E+01  0.51100000000E-03 0.  1.
         12    1    3    3    0    0  0.18571641751E+02 -0.31142356828E+02  0.76909975675E+01  0.37066207113E+02  0.00000000000E+00 0. -1.
</event>
<event>
 7    1  0.5487071E-013  0.5052886E+02  0.7816164E-02  0.1300439E+00
        -11   -1    0    0    0    0  0.00000000000E+00  0.00000000000E+00  0.45593999997E+02  0.45594000000E+02  0.51100000000E-03 0.  1.
         11   -1    0    0    0    0 -0.00000000000E+00 -0.00000000000E+00 -0.45593999997E+02  0.45594000000E+02  0.51100000000E-03 0. -1.
    9900012    2    1    2    0    0 -0.36977582875E+02  0.16582579528E+02 -0.32927882297E+01  0.50528855477E+02  0.29999986707E+02 0.  0.
        -12    1    1    2    0    0  0.36977582875E+02 -0.16582579528E+02  0.32927882297E+01  0.40659144523E+02  0.00000000000E+00 0.  1.
         11    1    3    3    0    0 -0.11002224521E+02  0.65615286286E+01 -0.11111564303E+02  0.16957873212E+02  0.51100000000E-03 0. -1.
        -11    1    3    3    0    0 -0.35290191850E+00 -0.35930092292E+01  0.12632588068E+01  0.38249285169E+01  0.51100000000E-03 0.  1.
        -12    1    3    3    0    0 -0.25622456435E+02  0.13614060129E+02  0.65555172662E+01  0.29746053748E+02  0.00000000000E+00 0.  1.
</event>
<event>
 7    1  0.5487071E-013  0.5052893E+02  0.7816164E-02  0.1300439E+00
        -11   -1    0    0    0    0  0.00000000000E+00  0.00000000000E+00  0.45593999997E+02  0.45594000000E+02  0.51100000000E-03 0. -1.
         11   -1    0    0    0    0 -0.00000000000E+00 -0.00000000000E+00 -0.45593999997E+02  0.45594000000E+02  0.51100000000E-03 0.  1.
    9900012    2    1    2    0    0 -0.19954418997E+02  0.21024989644E+02  0.28511946218E+02  0.50528928391E+02  0.30000208335E+02 0.  0.
        -12    1    1    2    0    0  0.19954418997E+02 -0.21024989644E+02 -0.28511946218E+02  0.40659071609E+02  0.00000000000E+00 0.  1.
         11    1    3    3    0    0 -0.49944158655E+01  0.17396847656E+01  0.10477721484E+02  0.11736836911E+02  0.51100000000E-03 0.  1.
        -11    1    3    3    0    0 -0.10612917290E+02  0.11059468660E+02  0.23458671764E+02  0.28022404280E+02  0.51100000000E-03 0. -1.
        -12    1    3    3    0    0 -0.43470858413E+01  0.82258362180E+01 -0.54244470300E+01  0.10769687200E+02  0.00000000000E+00 0.  1.
</event>
<event>
 7    1  0.5487071E-013  0.5052885E+02  0.7816164E-02  0.1300439E+00
        -11   -1    0    0    0    0  0.00000000000E+00  0.00000000000E+00  0.45593999997E+02  0.45594000000E+02  0.51100000000E-03 0.  1.
         11   -1    0    0    0    0 -0.00000000000E+00 -0.00000000000E+00 -0.45593999997E+02  0.45594000000E+02  0.51100000000E-03 0. -1.
    9900012    2    1    2    0    0  0.11250143235E+01 -0.31155861484E+02 -0.26100056337E+02  0.50528852162E+02  0.29999976633E+02 0.  0.
        -12    1    1    2    0    0 -0.11250143235E+01  0.31155861484E+02  0.26100056337E+02  0.40659147838E+02  0.00000000000E+00 0.  1.
         11    1    3    3    0    0  0.74922420682E+00  0.32745693066E+01 -0.29700759034E+01  0.44839148284E+01  0.51100000000E-03 0. -1.
        -11    1    3    3    0    0  0.15539454374E+01 -0.22875515140E+01  0.33774964890E+01  0.43652171934E+01  0.51100000000E-03 0.  1.
         12    1    3    3    0    0 -0.11781553208E+01 -0.32142879277E+02 -0.26507476923E+02  0.41679720141E+02  0.00000000000E+00 0. -1.
</event>
<event>
 7    1  0.5487071E-013  0.5052885E+02  0.7816164E-02  0.1300439E+00
        -11   -1    0    0    0    0  0.00000000000E+00  0.00000000000E+00  0.45593999997E+02  0.45594000000E+02  0.51100000000E-03 0.  1.
         11   -1    0    0    0    0 -0.00000000000E+00 -0.00000000000E+00 -0.45593999997E+02  0.45594000000E+02  0.51100000000E-03 0. -1.
    9900012    2    1    2    0    0 -0.58610146598E+01  0.34970886127E+00 -0.40232980171E+02  0.50528849953E+02  0.29999969917E+02 0.  0.
        -12    1    1    2    0    0  0.58610146598E+01 -0.34970886127E+00  0.40232980171E+02  0.40659150047E+02  0.00000000000E+00 0.  1.
         11    1    3    3    0    0  0.20323769861E+01  0.58941180865E+01 -0.13423580614E+02  0.14800800688E+02  0.51100000000E-03 0. -1.
        -11    1    3    3    0    0  0.30718333063E+01  0.29107694018E+01 -0.19726113156E+02  0.20174941855E+02  0.51100000000E-03 0.  1.
         12    1    3    3    0    0 -0.10965224952E+02 -0.84551786271E+01 -0.70832864007E+01  0.15553107410E+02  0.00000000000E+00 0. -1.
</event>
<event>
 7    1  0.5487071E-013  0.5052879E+02  0.7816164E-02  0.1300439E+00
        -11   -1    0    0    0    0  0.00000000000E+00  0.00000000000E+00  0.45593999997E+02  0.45594000000E+02  0.51100000000E-03 0.  1.
         11   -1    0    0    0    0 -0.00000000000E+00 -0.00000000000E+00 -0.45593999997E+02  0.45594000000E+02  0.51100000000E-03 0. -1.
    9900012    2    1    2    0    0  0.35784872644E+02 -0.19292672543E+02  0.63787523406E+00  0.50528791832E+02  0.29999793253E+02 0.  0.
        -12    1    1    2    0    0 -0.35784872644E+02  0.19292672543E+02 -0.63787523406E+00  0.40659208168E+02  0.00000000000E+00 0.  1.
         11    1    3    3    0    0 -0.36446198284E+01 -0.40788069430E+00 -0.26273745343E+01  0.45113986255E+01  0.51100000000E-03 0. -1.
        -11    1    3    3    0    0  0.87138127463E+01  0.17008340866E+01 -0.19059350728E+00  0.88802981546E+01  0.51100000000E-03 0.  1.
         12    1    3    3    0    0  0.30715679726E+02 -0.20585625935E+02  0.34558432756E+01  0.37137095052E+02  0.00000000000E+00 0. -1.
</event>
<event>
 7    1  0.5487071E-013  0.5052883E+02  0.7816164E-02  0.1300439E+00
        -11   -1    0    0    0    0  0.00000000000E+00  0.00000000000E+00  0.45593999997E+02  0.45594000000E+02  0.51100000000E-03 0. -1.
         11   -1    0    0    0    0 -0.00000000000E+00 -0.00000000000E+00 -0.45593999997E+02  0.45594000000E+02  0.51100000000E-03 0.  1.
    9900012    2    1    2    0    0 -0.24104665127E+02 -0.29947888293E+02 -0.13238473023E+02  0.50528830529E+02  0.29999910875E+02 0.  0.
        -12    1    1    2    0    0  0.24104665127E+02  0.29947888293E+02  0.13238473023E+02  0.40659169471E+02  0.00000000000E+00 0.  1.
         11    1    3    3    0    0 -0.17679556214E+02 -0.10217675610E+02 -0.68980247552E+01  0.21553430088E+02  0.51100000000E-03 0. -1.
        -11    1    3    3    0    0 -0.90701963914E+01 -0.74228045505E+00 -0.21746287205E+01  0.93567330402E+01  0.51100000000E-03 0.  1.
        -12    1    3    3    0    0  0.26450874779E+01 -0.18987932228E+02 -0.41658195475E+01  0.19618667401E+02  0.00000000000E+00 0.  1.
</event>
<event>
 7    1  0.5487071E-013  0.5052887E+02  0.7816164E-02  0.1300439E+00
        -11   -1    0    0    0    0  0.00000000000E+00  0.00000000000E+00  0.45593999997E+02  0.45594000000E+02  0.51100000000E-03 0.  1.
         11   -1    0    0    0    0 -0.00000000000E+00 -0.00000000000E+00 -0.45593999997E+02  0.45594000000E+02  0.51100000000E-03 0. -1.
    9900012    2    1    2    0    0  0.33980891383E+02 -0.22207322516E+02  0.23019585960E+01  0.50528866144E+02  0.30000019131E+02 0.  0.
        -12    1    1    2    0    0 -0.33980891383E+02  0.22207322516E+02 -0.23019585960E+01  0.40659133856E+02  0.00000000000E+00 0.  1.
         11    1    3    3    0    0  0.79873463585E+01 -0.44860054552E+01  0.20540586321E+01  0.93883493715E+01  0.51100000000E-03 0. -1.
        -11    1    3    3    0    0  0.22392029035E+02 -0.22895902515E+02 -0.56352108533E+01  0.32517394082E+02  0.51100000000E-03 0.  1.
        -12    1    3    3    0    0  0.36015159894E+01  0.51745854536E+01  0.58831108171E+01  0.86231226899E+01  0.00000000000E+00 0.  1.
</event>
<event>
 7    1  0.5487071E-013  0.5052886E+02  0.7816164E-02  0.1300439E+00
        -11   -1    0    0    0    0  0.00000000000E+00  0.00000000000E+00  0.45593999997E+02  0.45594000000E+02  0.51100000000E-03 0.  1.
         11   -1    0    0    0    0 -0.00000000000E+00 -0.00000000000E+00 -0.45593999997E+02  0.45594000000E+02  0.51100000000E-03 0. -1.
    9900012    2    1    2    0    0  0.19139987972E+02  0.16491274276E+02 -0.31856934274E+02  0.50528861689E+02  0.30000005591E+02 0.  0.
        -12    1    1    2    0    0 -0.19139987972E+02 -0.16491274276E+02  0.31856934274E+02  0.40659138311E+02  0.00000000000E+00 0.  1.
         11    1    3    3    0    0  0.71743656601E+01  0.14874826636E+02 -0.12963432887E+02  0.20994822756E+02  0.51100000000E-03 0. -1.
        -11    1    3    3    0    0  0.10636463736E+02 -0.76190533180E+01 -0.86855573586E+01  0.15704242776E+02  0.51100000000E-03 0.  1.
         12    1    3    3    0    0  0.13291585758E+01  0.92355009571E+01 -0.10207944029E+02  0.13829796157E+02  0.00000000000E+00 0. -1.
</event>
<event>
 7    1  0.5487071E-013  0.5052885E+02  0.7816164E-02  0.1300439E+00
        -11   -1    0    0    0    0  0.00000000000E+00  0.00000000000E+00  0.45593999997E+02  0.45594000000E+02  0.51100000000E-03 0. -1.
         11   -1    0    0    0    0 -0.00000000000E+00 -0.00000000000E+00 -0.45593999997E+02  0.45594000000E+02  0.51100000000E-03 0.  1.
    9900012    2    1    2    0    0  0.23181819441E+02 -0.15756253657E+02  0.29453521347E+02  0.50528853408E+02  0.29999980419E+02 0.  0.
        -12    1    1    2    0    0 -0.23181819441E+02  0.15756253657E+02 -0.29453521347E+02  0.40659146592E+02  0.00000000000E+00 0.  1.
         11    1    3    3    0    0  0.30726566534E+01 -0.81228674398E+01  0.18713733350E+02  0.20630705527E+02  0.51100000000E-03 0. -1.
        -11    1    3    3    0    0  0.92295763904E+01 -0.22286437016E+00  0.13590147992E+02  0.16429451348E+02  0.51100000000E-03 0.  1.
        -12    1    3    3    0    0  0.10879586397E+02 -0.74105218468E+01 -0.28503599960E+01  0.13468696534E+02  0.00000000000E+00 0.  1.
</event>
<event>
 7    1  0.5487071E-013  0.5052887E+02  0.7816164E-02  0.1300439E+00
        -11   -1    0    0    0    0  0.00000000000E+00  0.00000000000E+00  0.45593999997E+02  0.45594000000E+02  0.51100000000E-03 0.  1.
         11   -1    0    0    0    0 -0.00000000000E+00 -0.00000000000E+00 -0.45593999997E+02  0.45594000000E+02  0.51100000000E-03 0. -1.
    9900012    2    1    2    0    0  0.34450799669E+02 -0.19257821801E+02 -0.97695396599E+01  0.50528865682E+02  0.30000017726E+02 0.  0.
        -12    1    1    2    0    0 -0.34450799669E+02  0.19257821801E+02  0.97695396599E+01  0.40659134318E+02  0.00000000000E+00 0.  1.
         11    1    3    3    0    0  0.47864603376E+01 -0.61126960970E+01  0.50579811527E+01  0.92659823948E+01  0.51100000000E-03 0. -1.
        -11    1    3    3    0    0  0.97423174022E+01 -0.10493107765E+02  0.27296136337E+01  0.14576311254E+02  0.51100000000E-03 0.  1.
         12    1    3    3    0    0  0.19922021929E+02 -0.26520179392E+01 -0.17557134446E+02  0.26686572033E+02  0.00000000000E+00 0. -1.
</event>
<event>
 7    1  0.5487071E-013  0.5052888E+02  0.7816164E-02  0.1300439E+00
        -11   -1    0    0    0    0  0.00000000000E+00  0.00000000000E+00  0.45593999997E+02  0.45594000000E+02  0.51100000000E-03 0.  1.
         11   -1    0    0    0    0 -0.00000000000E+00 -0.00000000000E+00 -0.45593999997E+02  0.45594000000E+02  0.51100000000E-03 0. -1.
    9900012    2    1    2    0    0  0.26571217471E+02 -0.26284696578E+02 -0.16007782279E+02  0.50528880905E+02  0.30000063999E+02 0.  0.
        -12    1    1    2    0    0 -0.26571217471E+02  0.26284696578E+02  0.16007782279E+02  0.40659119095E+02  0.00000000000E+00 0.  1.
         11    1    3    3    0    0  0.12631189182E+02 -0.12579421382E+01 -0.19593030461E+01  0.12843995767E+02  0.51100000000E-03 0. -1.
        -11    1    3    3    0    0  0.24467190965E+01  0.10006302681E+00 -0.93403072696E+01  0.96559715771E+01  0.51100000000E-03 0.  1.
        -12    1    3    3    0    0  0.11493309193E+02 -0.25126817467E+02 -0.47081719632E+01  0.28028913562E+02  0.00000000000E+00 0.  1.
</event>
<event>
 7    1  0.5487071E-013  0.5052885E+02  0.7816164E-02  0.1300439E+00
        -11   -1    0    0    0    0  0.00000000000E+00  0.00000000000E+00  0.45593999997E+02  0.45594000000E+02  0.51100000000E-03 0.  1.
         11   -1    0    0    0    0 -0.00000000000E+00 -0.00000000000E+00 -0.45593999997E+02  0.45594000000E+02  0.51100000000E-03 0. -1.
    9900012    2    1    2    0    0  0.22892497925E+02 -0.91776218201E+01 -0.32324462712E+02  0.50528854742E+02  0.29999984475E+02 0.  0.
        -12    1    1    2    0    0 -0.22892497925E+02  0.91776218201E+01  0.32324462712E+02  0.40659145258E+02  0.00000000000E+00 0.  1.
         11    1    3    3    0    0  0.97563002728E+01  0.23929267279E+00 -0.24476454044E+01  0.10061492150E+02  0.51100000000E-03 0. -1.
        -11    1    3    3    0    0  0.19151460929E+02 -0.51149941493E+01 -0.20374423035E+02  0.28426373935E+02  0.51100000000E-03 0.  1.
        -12    1    3    3    0    0 -0.60152632769E+01 -0.43019203436E+01 -0.95023942723E+01  0.12040988657E+02  0.00000000000E+00 0.  1.
</event>
<event>
 7    1  0.5487071E-013  0.5052888E+02  0.7816164E-02  0.1300439E+00
        -11   -1    0    0    0    0  0.00000000000E+00  0.00000000000E+00  0.45593999997E+02  0.45594000000E+02  0.51100000000E-03 0. -1.
         11   -1    0    0    0    0 -0.00000000000E+00 -0.00000000000E+00 -0.45593999997E+02  0.45594000000E+02  0.51100000000E-03 0.  1.
    9900012    2    1    2    0    0  0.15437246063E+02  0.18036207915E+02  0.33008336788E+02  0.50528884669E+02  0.30000075439E+02 0.  0.
        -12    1    1    2    0    0 -0.15437246063E+02 -0.18036207915E+02 -0.33008336788E+02  0.40659115331E+02  0.00000000000E+00 0.  1.
         11    1    3    3    0    0  0.19769213442E+01  0.43838180064E+01 -0.12882164549E+01  0.49785118470E+01  0.51100000000E-03 0. -1.
        -11    1    3    3    0    0  0.15352240485E+02  0.12689955323E+02  0.12211120567E+02  0.23363170157E+02  0.51100000000E-03 0.  1.
         12    1    3    3    0    0 -0.18919157666E+01  0.96243458596E+00  0.22085432676E+02  0.22187202665E+02  0.00000000000E+00 0. -1.
</event>
<event>
 7    1  0.5487071E-013  0.5052886E+02  0.7816164E-02  0.1300439E+00
        -11   -1    0    0    0    0  0.00000000000E+00  0.00000000000E+00  0.45593999997E+02  0.45594000000E+02  0.51100000000E-03 0.  1.
         11   -1    0    0    0    0 -0.00000000000E+00 -0.00000000000E+00 -0.45593999997E+02  0.45594000000E+02  0.51100000000E-03 0. -1.
    9900012    2    1    2    0    0 -0.37024168259E+02  0.14528082180E+02 -0.84446187204E+01  0.50528858439E+02  0.29999995712E+02 0.  0.
        -12    1    1    2    0    0  0.37024168259E+02 -0.14528082180E+02  0.84446187204E+01  0.40659141561E+02  0.00000000000E+00 0.  1.
         11    1    3    3    0    0 -0.27041073095E+02  0.13998434244E+02 -0.42303272709E+01  0.30742014646E+02  0.51100000000E-03 0. -1.
        -11    1    3    3    0    0 -0.13347071806E+02  0.18960420154E+01 -0.70189733832E+01  0.15198858139E+02  0.51100000000E-03 0.  1.
        -12    1    3    3    0    0  0.33639766409E+01 -0.13663940793E+01  0.28046819337E+01  0.45879856549E+01  0.00000000000E+00 0.  1.
</event>
<event>
 7    1  0.5487071E-013  0.5052886E+02  0.7816164E-02  0.1300439E+00
        -11   -1    0    0    0    0  0.00000000000E+00  0.00000000000E+00  0.45593999997E+02  0.45594000000E+02  0.51100000000E-03 0.  1.
         11   -1    0    0    0    0 -0.00000000000E+00 -0.00000000000E+00 -0.45593999997E+02  0.45594000000E+02  0.51100000000E-03 0. -1.
    9900012    2    1    2    0    0  0.18459640474E+02 -0.17787597246E+02 -0.31559606766E+02  0.50528859313E+02  0.29999998367E+02 0.  0.
        -12    1    1    2    0    0 -0.18459640474E+02  0.17787597246E+02  0.31559606766E+02  0.40659140687E+02  0.00000000000E+00 0.  1.
         11    1    3    3    0    0  0.74205732966E+01 -0.10643159345E+02 -0.36066400382E+01  0.13466610617E+02  0.51100000000E-03 0. -1.
        -11    1    3    3    0    0  0.12911545446E+02 -0.10373480973E+02 -0.11431869856E+02  0.20124730109E+02  0.51100000000E-03 0.  1.
         12    1    3    3    0    0 -0.18724782688E+01  0.32290430715E+01 -0.16521096872E+02  0.16937518587E+02  0.00000000000E+00 0. -1.
</event>
<event>
 7    1  0.5487071E-013  0.5052886E+02  0.7816164E-02  0.1300439E+00
        -11   -1    0    0    0    0  0.00000000000E+00  0.00000000000E+00  0.45593999997E+02  0.45594000000E+02  0.51100000000E-03 0.  1.
         11   -1    0    0    0    0 -0.00000000000E+00 -0.00000000000E+00 -0.45593999997E+02  0.45594000000E+02  0.51100000000E-03 0. -1.
    9900012    2    1    2    0    0  0.59424758466E+01 -0.92716712528E+01 -0.39139353842E+02  0.50528856795E+02  0.29999990714E+02 0.  0.
        -12    1    1    2    0    0 -0.59424758466E+01  0.92716712528E+01  0.39139353842E+02  0.40659143205E+02  0.00000000000E+00 0.  1.
         11    1    3    3    0    0  0.37661721610E+01  0.29422439563E+01  0.23689476446E+01  0.53341133704E+01  0.51100000000E-03 0. -1.
        -11    1    3    3    0    0 -0.10040402950E+01 -0.49300744390E+01 -0.29637839266E+01  0.58393275565E+01  0.51100000000E-03 0.  1.
         12    1    3    3    0    0  0.31803439806E+01 -0.72838407701E+01 -0.38544517560E+02  0.39355415868E+02  0.00000000000E+00 0. -1.
</event>
<event>
 7    1  0.5487071E-013  0.5052888E+02  0.7816164E-02  0.1300439E+00
        -11   -1    0    0    0    0  0.00000000000E+00  0.00000000000E+00  0.45593999997E+02  0.45594000000E+02  0.51100000000E-03 0. -1.
         11   -1    0    0    0    0 -0.00000000000E+00 -0.00000000000E+00 -0.45593999997E+02  0.45594000000E+02  0.51100000000E-03 0.  1.
    9900012    2    1    2    0    0  0.22817903949E+02  0.37356472308E+01  0.33444768536E+02  0.50528876260E+02  0.30000049881E+02 0.  0.
        -12    1    1    2    0    0 -0.22817903949E+02 -0.37356472308E+01 -0.33444768536E+02  0.40659123740E+02  0.00000000000E+00 0.  1.
         11    1    3    3    0    0 -0.44549645710E+01  0.48082752939E+01  0.16165286572E+02  0.17443701179E+02  0.51100000000E-03 0. -1.
        -11    1    3    3    0    0  0.16025875246E+00  0.98223784247E+00  0.90377089847E+00  0.13443497108E+01  0.51100000000E-03 0.  1.
        -12    1    3    3    0    0  0.27112609767E+02 -0.20548659055E+01  0.16375711066E+02  0.31740825370E+02  0.00000000000E+00 0.  1.
</event>
<event>
 7    1  0.5487071E-013  0.5052886E+02  0.7816164E-02  0.1300439E+00
        -11   -1    0    0    0    0  0.00000000000E+00  0.00000000000E+00  0.45593999997E+02  0.45594000000E+02  0.51100000000E-03 0.  1.
         11   -1    0    0    0    0 -0.00000000000E+00 -0.00000000000E+00 -0.45593999997E+02  0.45594000000E+02  0.51100000000E-03 0. -1.
    9900012    2    1    2    0    0 -0.30053724649E+02  0.17408612233E+02  0.21139523631E+02  0.50528860751E+02  0.30000002738E+02 0.  0.
        -12    1    1    2    0    0  0.30053724649E+02 -0.17408612233E+02 -0.21139523631E+02  0.40659139249E+02  0.00000000000E+00 0.  1.
         11    1    3    3    0    0 -0.17175949929E+02  0.12980312163E+02  0.85985933294E+01  0.23182699742E+02  0.51100000000E-03 0.  1.
        -11    1    3    3    0    0 -0.64407399927E+01  0.11821401901E+02  0.32694804860E+01  0.13853453630E+02  0.51100000000E-03 0. -1.
        -12    1    3    3    0    0 -0.64370347270E+01 -0.73931018307E+01  0.92714498154E+01  0.13492707380E+02  0.00000000000E+00 0.  1.
</event>
<event>
 7    1  0.5487071E-013  0.5052887E+02  0.7816164E-02  0.1300439E+00
        -11   -1    0    0    0    0  0.00000000000E+00  0.00000000000E+00  0.45593999997E+02  0.45594000000E+02  0.51100000000E-03 0.  1.
         11   -1    0    0    0    0 -0.00000000000E+00 -0.00000000000E+00 -0.45593999997E+02  0.45594000000E+02  0.51100000000E-03 0. -1.
    9900012    2    1    2    0    0  0.25510243809E+02  0.17579346847E+02 -0.26331707705E+02  0.50528870578E+02  0.30000032608E+02 0.  0.
        -12    1    1    2    0    0 -0.25510243809E+02 -0.17579346847E+02  0.26331707705E+02  0.40659129422E+02  0.00000000000E+00 0.  1.
         11    1    3    3    0    0  0.24202212448E+02  0.12047464068E+02 -0.12994739333E+02  0.29995861855E+02  0.51100000000E-03 0. -1.
        -11    1    3    3    0    0  0.76227787858E+01  0.42113752478E+01 -0.51787330998E+01  0.10132211737E+02  0.51100000000E-03 0.  1.
        -12    1    3    3    0    0 -0.63147474250E+01  0.13205075305E+01 -0.81582352725E+01  0.10400796986E+02  0.00000000000E+00 0.  1.
</event>
<event>
 7    1  0.5487071E-013  0.5052884E+02  0.7816164E-02  0.1300439E+00
        -11   -1    0    0    0    0  0.00000000000E+00  0.00000000000E+00  0.45593999997E+02  0.45594000000E+02  0.51100000000E-03 0.  1.
         11   -1    0    0    0    0 -0.00000000000E+00 -0.00000000000E+00 -0.45593999997E+02  0.45594000000E+02  0.51100000000E-03 0. -1.
    9900012    2    1    2    0    0 -0.28615325452E+02  0.16640080344E+02 -0.23610130628E+02  0.50528838758E+02  0.29999935890E+02 0.  0.
        -12    1    1    2    0    0  0.28615325452E+02 -0.16640080344E+02  0.23610130628E+02  0.40659161242E+02  0.00000000000E+00 0.  1.
         11    1    3    3    0    0 -0.31413070615E+01  0.98558394178E+01 -0.81795461987E+01  0.13187507610E+02  0.51100000000E-03 0. -1.
        -11    1    3    3    0    0 -0.53750542190E+01 -0.60496919337E+01  0.13196266030E+01  0.81994752870E+01  0.51100000000E-03 0.  1.
         12    1    3    3    0    0 -0.20098964172E+02  0.12833932860E+02 -0.16750211032E+02  0.29141855862E+02  0.00000000000E+00 0. -1.
</event>
<event>
 7    1  0.5487071E-013  0.5052884E+02  0.7816164E-02  0.1300439E+00
        -11   -1    0    0    0    0  0.00000000000E+00  0.00000000000E+00  0.45593999997E+02  0.45594000000E+02  0.51100000000E-03 0. -1.
         11   -1    0    0    0    0 -0.00000000000E+00 -0.00000000000E+00 -0.45593999997E+02  0.45594000000E+02  0.51100000000E-03 0.  1.
    9900012    2    1    2    0    0  0.25795318057E+02  0.28295095135E+02  0.13680508334E+02  0.50528841737E+02  0.29999944943E+02 0.  0.
        -12    1    1    2    0    0 -0.25795318057E+02 -0.28295095135E+02 -0.13680508334E+02  0.40659158263E+02  0.00000000000E+00 0.  1.
         11    1    3    3    0    0  0.72369794131E+01  0.77341880819E+01 -0.55916784716E+01  0.11977412271E+02  0.51100000000E-03 0. -1.
        -11    1    3    3    0    0  0.75527878233E+01 -0.74715188903E+00 -0.30092744298E+00  0.75956169885E+01  0.51100000000E-03 0.  1.
         12    1    3    3    0    0  0.11005550821E+02  0.21308058942E+02  0.19573114249E+02  0.30955812478E+02  0.00000000000E+00 0. -1.
</event>
<event>
 7    1  0.5487071E-013  0.5052886E+02  0.7816164E-02  0.1300439E+00
        -11   -1    0    0    0    0  0.00000000000E+00  0.00000000000E+00  0.45593999997E+02  0.45594000000E+02  0.51100000000E-03 0.  1.
         11   -1    0    0    0    0 -0.00000000000E+00 -0.00000000000E+00 -0.45593999997E+02  0.45594000000E+02  0.51100000000E-03 0. -1.
    9900012    2    1    2    0    0 -0.39321550013E+02 -0.81328669173E+01 -0.63904391230E+01  0.50528861643E+02  0.30000005450E+02 0.  0.
        -12    1    1    2    0    0  0.39321550013E+02  0.81328669173E+01  0.63904391230E+01  0.40659138357E+02  0.00000000000E+00 0.  1.
         11    1    3    3    0    0 -0.65186763225E+01  0.38008359315E+01 -0.96498699435E+01  0.12249876937E+02  0.51100000000E-03 0. -1.
        -11    1    3    3    0    0 -0.22388899250E+02 -0.19703310432E+01  0.67167678714E+01  0.23457621042E+02  0.51100000000E-03 0.  1.
        -12    1    3    3    0    0 -0.10413974441E+02 -0.99633718055E+01 -0.34573370509E+01  0.14821363664E+02  0.00000000000E+00 0.  1.
</event>
<event>
 7    1  0.5487071E-013  0.5052890E+02  0.7816164E-02  0.1300439E+00
        -11   -1    0    0    0    0  0.00000000000E+00  0.00000000000E+00  0.45593999997E+02  0.45594000000E+02  0.51100000000E-03 0. -1.
         11   -1    0    0    0    0 -0.00000000000E+00 -0.00000000000E+00 -0.45593999997E+02  0.45594000000E+02  0.51100000000E-03 0.  1.
    9900012    2    1    2    0    0  0.36553063077E+02 -0.14766971019E+02  0.99484878096E+01  0.50528901842E+02  0.30000127638E+02 0.  0.
        -12    1    1    2    0    0 -0.36553063077E+02  0.14766971019E+02 -0.99484878096E+01  0.40659098158E+02  0.00000000000E+00 0.  1.
         11    1    3    3    0    0  0.14522169681E+02 -0.19022921940E+02  0.10326390685E+02  0.26065289490E+02  0.51100000000E-03 0. -1.
        -11    1    3    3    0    0  0.88238992438E-01  0.15161098523E+00  0.20058360179E+01  0.20134920914E+01  0.51100000000E-03 0.  1.
        -12    1    3    3    0    0  0.21942654403E+02  0.41043399366E+01 -0.23837388928E+01  0.22450120260E+02  0.00000000000E+00 0.  1.
</event>
<event>
 7    1  0.5487071E-013  0.5052887E+02  0.7816164E-02  0.1300439E+00
        -11   -1    0    0    0    0  0.00000000000E+00  0.00000000000E+00  0.45593999997E+02  0.45594000000E+02  0.51100000000E-03 0. -1.
         11   -1    0    0    0    0 -0.00000000000E+00 -0.00000000000E+00 -0.45593999997E+02  0.45594000000E+02  0.51100000000E-03 0.  1.
    9900012    2    1    2    0    0  0.21927449987E+01 -0.31212776468E+02 -0.25963815453E+02  0.50528865007E+02  0.30000015676E+02 0.  0.
        -12    1    1    2    0    0 -0.21927449987E+01  0.31212776468E+02  0.25963815453E+02  0.40659134993E+02  0.00000000000E+00 0.  1.
         11    1    3    3    0    0 -0.28641816020E+01  0.27591555366E+01 -0.94487391745E+01  0.10251592451E+02  0.51100000000E-03 0. -1.
        -11    1    3    3    0    0 -0.29456427118E+01 -0.33716875224E+01  0.24102229640E+00  0.44836569609E+01  0.51100000000E-03 0.  1.
        -12    1    3    3    0    0  0.80025693124E+01 -0.30600244482E+02 -0.16756098575E+02  0.35793615596E+02  0.00000000000E+00 0.  1.
</event>
<event>
 7    1  0.5487071E-013  0.5052886E+02  0.7816164E-02  0.1300439E+00
        -11   -1    0    0    0    0  0.00000000000E+00  0.00000000000E+00  0.45593999997E+02  0.45594000000E+02  0.51100000000E-03 0. -1.
         11   -1    0    0    0    0 -0.00000000000E+00 -0.00000000000E+00 -0.45593999997E+02  0.45594000000E+02  0.51100000000E-03 0.  1.
    9900012    2    1    2    0    0 -0.36243300350E+01  0.38577918913E+02 -0.12319662292E+02  0.50528859886E+02  0.30000000108E+02 0.  0.
        -12    1    1    2    0    0  0.36243300350E+01 -0.38577918913E+02  0.12319662292E+02  0.40659140114E+02  0.00000000000E+00 0.  1.
         11    1    3    3    0    0 -0.35805038529E+01  0.10006828193E+02  0.66565644586E+00  0.10648930326E+02  0.51100000000E-03 0. -1.
        -11    1    3    3    0    0 -0.12588140732E+01 -0.28353493553E+01 -0.73109176204E+01  0.79418722951E+01  0.51100000000E-03 0.  1.
         12    1    3    3    0    0  0.12149878911E+01  0.31406440076E+02 -0.56744011173E+01  0.31938057265E+02  0.00000000000E+00 0. -1.
</event>
<event>
 7    1  0.5487071E-013  0.5052886E+02  0.7816164E-02  0.1300439E+00
        -11   -1    0    0    0    0  0.00000000000E+00  0.00000000000E+00  0.45593999997E+02  0.45594000000E+02  0.51100000000E-03 0. -1.
         11   -1    0    0    0    0 -0.00000000000E+00 -0.00000000000E+00 -0.45593999997E+02  0.45594000000E+02  0.51100000000E-03 0.  1.
    9900012    2    1    2    0    0 -0.39357652725E+02  0.30959784968E+01  0.97239762922E+01  0.50528860489E+02  0.30000001942E+02 0.  0.
        -12    1    1    2    0    0  0.39357652725E+02 -0.30959784968E+01 -0.97239762922E+01  0.40659139511E+02  0.00000000000E+00 0.  1.
         11    1    3    3    0    0 -0.11983283253E+02 -0.86967196097E+01  0.98330987251E+00  0.14839100648E+02  0.51100000000E-03 0. -1.
        -11    1    3    3    0    0 -0.34229456804E+01 -0.39660337932E+01 -0.11451394074E+01  0.53625857292E+01  0.51100000000E-03 0.  1.
        -12    1    3    3    0    0 -0.23951423792E+02  0.15758731900E+02  0.98858058271E+01  0.30327174111E+02  0.00000000000E+00 0.  1.
</event>
<event>
 7    1  0.5487071E-013  0.5052887E+02  0.7816164E-02  0.1300439E+00
        -11   -1    0    0    0    0  0.00000000000E+00  0.00000000000E+00  0.45593999997E+02  0.45594000000E+02  0.51100000000E-03 0. -1.
         11   -1    0    0    0    0 -0.00000000000E+00 -0.00000000000E+00 -0.45593999997E+02  0.45594000000E+02  0.51100000000E-03 0.  1.
    9900012    2    1    2    0    0 -0.74737199393E+01  0.35375769197E+02 -0.18597399950E+02  0.50528870387E+02  0.30000032027E+02 0.  0.
        -12    1    1    2    0    0  0.74737199393E+01 -0.35375769197E+02  0.18597399950E+02  0.40659129613E+02  0.00000000000E+00 0.  1.
         11    1    3    3    0    0 -0.77120489768E+01  0.23294108018E+02 -0.22297464348E+02  0.33155212025E+02  0.51100000000E-03 0. -1.
        -11    1    3    3    0    0 -0.80671545773E+00  0.53871292336E+01 -0.42637663577E+01  0.69174890692E+01  0.51100000000E-03 0.  1.
         12    1    3    3    0    0  0.10450444952E+01  0.66945319452E+01  0.79638307558E+01  0.10456169292E+02  0.00000000000E+00 0. -1.
</event>
<event>
 7    1  0.5487071E-013  0.5052886E+02  0.7816164E-02  0.1300439E+00
        -11   -1    0    0    0    0  0.00000000000E+00  0.00000000000E+00  0.45593999997E+02  0.45594000000E+02  0.51100000000E-03 0.  1.
         11   -1    0    0    0    0 -0.00000000000E+00 -0.00000000000E+00 -0.45593999997E+02  0.45594000000E+02  0.51100000000E-03 0. -1.
    9900012    2    1    2    0    0  0.36973558273E+02  0.21969744783E+01 -0.16771839796E+02  0.50528864270E+02  0.30000013434E+02 0.  0.
        -12    1    1    2    0    0 -0.36973558273E+02 -0.21969744783E+01  0.16771839796E+02  0.40659135730E+02  0.00000000000E+00 0.  1.
         11    1    3    3    0    0  0.18185042732E+01  0.56789379398E+01 -0.43938993525E+01  0.74069997770E+01  0.51100000000E-03 0. -1.
        -11    1    3    3    0    0 -0.16974177087E+01 -0.40079890234E+01 -0.41308903340E+00  0.43721671629E+01  0.51100000000E-03 0.  1.
         12    1    3    3    0    0  0.36852471708E+02  0.52602556193E+00 -0.11964851410E+02  0.38749697330E+02  0.00000000000E+00 0. -1.
</event>
<event>
 7    1  0.5487071E-013  0.5052888E+02  0.7816164E-02  0.1300439E+00
        -11   -1    0    0    0    0  0.00000000000E+00  0.00000000000E+00  0.45593999997E+02  0.45594000000E+02  0.51100000000E-03 0.  1.
         11   -1    0    0    0    0 -0.00000000000E+00 -0.00000000000E+00 -0.45593999997E+02  0.45594000000E+02  0.51100000000E-03 0. -1.
    9900012    2    1    2    0    0 -0.23020229995E+02 -0.26888748574E+02 -0.20005702617E+02  0.50528881391E+02  0.30000065475E+02 0.  0.
        -12    1    1    2    0    0  0.23020229995E+02  0.26888748574E+02  0.20005702617E+02  0.40659118609E+02  0.00000000000E+00 0.  1.
         11    1    3    3    0    0 -0.67797469394E+01 -0.13635017142E+02  0.26436024052E+01  0.15455332250E+02  0.51100000000E-03 0.  1.
        -11    1    3    3    0    0 -0.15922366688E+02 -0.41971073863E+01 -0.92176507026E+01  0.18870679799E+02  0.51100000000E-03 0. -1.
         12    1    3    3    0    0 -0.31811636780E+00 -0.90566240460E+01 -0.13431654320E+02  0.16202869341E+02  0.00000000000E+00 0. -1.
</event>
<event>
 7    1  0.5487071E-013  0.5052886E+02  0.7816164E-02  0.1300439E+00
        -11   -1    0    0    0    0  0.00000000000E+00  0.00000000000E+00  0.45593999997E+02  0.45594000000E+02  0.51100000000E-03 0. -1.
         11   -1    0    0    0    0 -0.00000000000E+00 -0.00000000000E+00 -0.45593999997E+02  0.45594000000E+02  0.51100000000E-03 0.  1.
    9900012    2    1    2    0    0  0.33507633460E+02 -0.22550054596E+02  0.46796920468E+01  0.50528856133E+02  0.29999988702E+02 0.  0.
        -12    1    1    2    0    0 -0.33507633460E+02  0.22550054596E+02 -0.46796920468E+01  0.40659143867E+02  0.00000000000E+00 0.  1.
         11    1    3    3    0    0  0.20275563428E+02 -0.69498285294E+01 -0.41761200041E+00  0.21437653532E+02  0.51100000000E-03 0. -1.
        -11    1    3    3    0    0  0.10543962227E+02 -0.40064010793E+01 -0.60370552994E+01  0.12793452466E+02  0.51100000000E-03 0.  1.
        -12    1    3    3    0    0  0.26881078045E+01 -0.11593824987E+02  0.11134359347E+02  0.16297750135E+02  0.00000000000E+00 0.  1.
</event>
<event>
 7    1  0.5487071E-013  0.5052886E+02  0.7816164E-02  0.1300439E+00
        -11   -1    0    0    0    0  0.00000000000E+00  0.00000000000E+00  0.45593999997E+02  0.45594000000E+02  0.51100000000E-03 0.  1.
         11   -1    0    0    0    0 -0.00000000000E+00 -0.00000000000E+00 -0.45593999997E+02  0.45594000000E+02  0.51100000000E-03 0. -1.
    9900012    2    1    2    0    0 -0.35354296392E-01 -0.20644342331E+02 -0.35028209315E+02  0.50528861199E+02  0.30000004101E+02 0.  0.
        -12    1    1    2    0    0  0.35354296392E-01  0.20644342331E+02  0.35028209315E+02  0.40659138801E+02  0.00000000000E+00 0.  1.
         11    1    3    3    0    0 -0.12452835348E+01 -0.16622822116E+02 -0.90359571308E+01  0.18960945855E+02  0.51100000000E-03 0. -1.
        -11    1    3    3    0    0  0.57257088248E+00 -0.99326130722E+01 -0.84757048240E+01  0.13069897183E+02  0.51100000000E-03 0.  1.
        -12    1    3    3    0    0  0.63735835593E+00  0.59110928574E+01 -0.17516547360E+02  0.18498018160E+02  0.00000000000E+00 0.  1.
</event>
<event>
 7    1  0.5487071E-013  0.5052888E+02  0.7816164E-02  0.1300439E+00
        -11   -1    0    0    0    0  0.00000000000E+00  0.00000000000E+00  0.45593999997E+02  0.45594000000E+02  0.51100000000E-03 0.  1.
         11   -1    0    0    0    0 -0.00000000000E+00 -0.00000000000E+00 -0.45593999997E+02  0.45594000000E+02  0.51100000000E-03 0. -1.
    9900012    2    1    2    0    0 -0.37522200784E+02  0.27788810397E+01 -0.15411894780E+02  0.50528877626E+02  0.30000054033E+02 0.  0.
        -12    1    1    2    0    0  0.37522200784E+02 -0.27788810397E+01  0.15411894780E+02  0.40659122374E+02  0.00000000000E+00 0.  1.
         11    1    3    3    0    0 -0.22867291875E+01 -0.56621682064E+01 -0.17697301464E+01  0.63577688089E+01  0.51100000000E-03 0. -1.
        -11    1    3    3    0    0 -0.18423033952E+01 -0.19867285805E+01 -0.83637622576E+01  0.87916830935E+01  0.51100000000E-03 0.  1.
         12    1    3    3    0    0 -0.33393168201E+02  0.10427777827E+02 -0.52784023761E+01  0.35379425724E+02  0.00000000000E+00 0. -1.
</event>
<event>
 7    1  0.5487071E-013  0.5052885E+02  0.7816164E-02  0.1300439E+00
        -11   -1    0    0    0    0  0.00000000000E+00  0.00000000000E+00  0.45593999997E+02  0.45594000000E+02  0.51100000000E-03 0.  1.
         11   -1    0    0    0    0 -0.00000000000E+00 -0.00000000000E+00 -0.45593999997E+02  0.45594000000E+02  0.51100000000E-03 0. -1.
    9900012    2    1    2    0    0 -0.56667357620E+01 -0.23849878656E+02 -0.32438216419E+02  0.50528849854E+02  0.29999969617E+02 0.  0.
        -12    1    1    2    0    0  0.56667357620E+01  0.23849878656E+02  0.32438216419E+02  0.40659150146E+02  0.00000000000E+00 0.  1.
         11    1    3    3    0    0 -0.11510050477E+01 -0.12249913571E+02 -0.39816448285E+01  0.12932079915E+02  0.51100000000E-03 0. -1.
        -11    1    3    3    0    0  0.57847492949E+01 -0.82723442934E+01 -0.40113841600E+01  0.10862145628E+02  0.51100000000E-03 0.  1.
        -12    1    3    3    0    0 -0.10300480009E+02 -0.33276207918E+01 -0.24445187431E+02  0.26734624311E+02  0.00000000000E+00 0.  1.
</event>
<event>
 7    1  0.5487071E-013  0.5052885E+02  0.7816164E-02  0.1300439E+00
        -11   -1    0    0    0    0  0.00000000000E+00  0.00000000000E+00  0.45593999997E+02  0.45594000000E+02  0.51100000000E-03 0.  1.
         11   -1    0    0    0    0 -0.00000000000E+00 -0.00000000000E+00 -0.45593999997E+02  0.45594000000E+02  0.51100000000E-03 0. -1.
    9900012    2    1    2    0    0 -0.28312085214E+02  0.16706684428E+02 -0.23926532653E+02  0.50528850494E+02  0.29999971563E+02 0.  0.
        -12    1    1    2    0    0  0.28312085214E+02 -0.16706684428E+02  0.23926532653E+02  0.40659149506E+02  0.00000000000E+00 0.  1.
         11    1    3    3    0    0  0.87184998103E+00  0.68212389369E+01 -0.56073566391E+01  0.88730982054E+01  0.51100000000E-03 0. -1.
        -11    1    3    3    0    0 -0.10898092490E+01  0.55536946570E+01 -0.10893143290E+02  0.12275658008E+02  0.51100000000E-03 0.  1.
         12    1    3    3    0    0 -0.28094125946E+02  0.43317508341E+01 -0.74260327243E+01  0.29380094281E+02  0.00000000000E+00 0. -1.
</event>
<event>
 7    1  0.5487071E-013  0.5052886E+02  0.7816164E-02  0.1300439E+00
        -11   -1    0    0    0    0  0.00000000000E+00  0.00000000000E+00  0.45593999997E+02  0.45594000000E+02  0.51100000000E-03 0.  1.
         11   -1    0    0    0    0 -0.00000000000E+00 -0.00000000000E+00 -0.45593999997E+02  0.45594000000E+02  0.51100000000E-03 0. -1.
    9900012    2    1    2    0    0  0.20370862876E+02 -0.16343020543E+02 -0.31162470944E+02  0.50528856255E+02  0.29999989072E+02 0.  0.
        -12    1    1    2    0    0 -0.20370862876E+02  0.16343020543E+02  0.31162470944E+02  0.40659143745E+02  0.00000000000E+00 0.  1.
         11    1    3    3    0    0  0.45057091991E+00 -0.62431183444E+01 -0.38465599320E+01  0.73468064074E+01  0.51100000000E-03 0.  1.
        -11    1    3    3    0    0  0.15168609292E+02 -0.18285399756E+02 -0.21700267263E+02  0.32176764157E+02  0.51100000000E-03 0. -1.
        -12    1    3    3    0    0  0.47516826638E+01  0.81854975577E+01 -0.56156437491E+01  0.11005285690E+02  0.00000000000E+00 0.  1.
</event>
<event>
 7    1  0.5487071E-013  0.5052886E+02  0.7816164E-02  0.1300439E+00
        -11   -1    0    0    0    0  0.00000000000E+00  0.00000000000E+00  0.45593999997E+02  0.45594000000E+02  0.51100000000E-03 0.  1.
         11   -1    0    0    0    0 -0.00000000000E+00 -0.00000000000E+00 -0.45593999997E+02  0.45594000000E+02  0.51100000000E-03 0. -1.
    9900012    2    1    2    0    0 -0.39925495866E+02 -0.56087262923E+01 -0.52595466368E+01  0.50528857589E+02  0.29999993129E+02 0.  0.
        -12    1    1    2    0    0  0.39925495866E+02  0.56087262923E+01  0.52595466368E+01  0.40659142411E+02  0.00000000000E+00 0.  1.
         11    1    3    3    0    0 -0.24209383219E+02  0.12557604258E+01 -0.92813566307E+01  0.25957941969E+02  0.51100000000E-03 0. -1.
        -11    1    3    3    0    0 -0.18990664470E+02 -0.79506718915E+01  0.23023109547E+01  0.20716156896E+02  0.51100000000E-03 0.  1.
        -12    1    3    3    0    0  0.32745518237E+01  0.10861851735E+01  0.17194990392E+01  0.38547587244E+01  0.00000000000E+00 0.  1.
</event>
<event>
 7    1  0.5487071E-013  0.5052886E+02  0.7816164E-02  0.1300439E+00
        -11   -1    0    0    0    0  0.00000000000E+00  0.00000000000E+00  0.45593999997E+02  0.45594000000E+02  0.51100000000E-03 0. -1.
         11   -1    0    0    0    0 -0.00000000000E+00 -0.00000000000E+00 -0.45593999997E+02  0.45594000000E+02  0.51100000000E-03 0.  1.
    9900012    2    1    2    0    0  0.23777603629E+02  0.42537680081E+01  0.32706219090E+02  0.50528859038E+02  0.29999997532E+02 0.  0.
        -12    1    1    2    0    0 -0.23777603629E+02 -0.42537680081E+01 -0.32706219090E+02  0.40659140962E+02  0.00000000000E+00 0.  1.
         11    1    3    3    0    0  0.12126877868E+02  0.22758503106E+01 -0.34948205970E+00  0.12343532696E+02  0.51100000000E-03 0.  1.
        -11    1    3    3    0    0  0.47282961134E+01 -0.11897043216E+01  0.67547496939E+00  0.49222400596E+01  0.51100000000E-03 0. -1.
         12    1    3    3    0    0  0.69224296475E+01  0.31676220190E+01  0.32380226181E+02  0.33263086282E+02  0.00000000000E+00 0. -1.
</event>
<event>
 7    1  0.5487071E-013  0.5052886E+02  0.7816164E-02  0.1300439E+00
        -11   -1    0    0    0    0  0.00000000000E+00  0.00000000000E+00  0.45593999997E+02  0.45594000000E+02  0.51100000000E-03 0.  1.
         11   -1    0    0    0    0 -0.00000000000E+00 -0.00000000000E+00 -0.45593999997E+02  0.45594000000E+02  0.51100000000E-03 0. -1.
    9900012    2    1    2    0    0 -0.34157953787E+02  0.60363774421E+01 -0.21212312173E+02  0.50528857765E+02  0.29999993664E+02 0.  0.
        -12    1    1    2    0    0  0.34157953787E+02 -0.60363774421E+01  0.21212312173E+02  0.40659142235E+02  0.00000000000E+00 0.  1.
         11    1    3    3    0    0 -0.14949469535E+02 -0.83067480964E+00  0.28582211585E+01  0.15242902888E+02  0.51100000000E-03 0. -1.
        -11    1    3    3    0    0  0.57549023501E+00 -0.22126362047E+01  0.62102642319E+00  0.23690973100E+01  0.51100000000E-03 0.  1.
         12    1    3    3    0    0 -0.19783974487E+02  0.90796884564E+01 -0.24691559755E+02  0.32916857567E+02  0.00000000000E+00 0. -1.
</event>
<event>
 7    1  0.5487071E-013  0.5052872E+02  0.7816164E-02  0.1300439E+00
        -11   -1    0    0    0    0  0.00000000000E+00  0.00000000000E+00  0.45593999997E+02  0.45594000000E+02  0.51100000000E-03 0.  1.
         11   -1    0    0    0    0 -0.00000000000E+00 -0.00000000000E+00 -0.45593999997E+02  0.45594000000E+02  0.51100000000E-03 0. -1.
    9900012    2    1    2    0    0  0.14639181958E+02 -0.36503194612E+02  0.10314460652E+02  0.50528721062E+02  0.29999578136E+02 0.  0.
        -12    1    1    2    0    0 -0.14639181958E+02  0.36503194612E+02 -0.10314460652E+02  0.40659278938E+02  0.00000000000E+00 0.  1.
         11    1    3    3    0    0  0.14011203281E+02 -0.11309442989E+02 -0.11479434097E+01  0.18042591068E+02  0.51100000000E-03 0. -1.
        -11    1    3    3    0    0  0.46360976081E+01  0.24246673140E+00  0.15568546889E+01  0.48965281508E+01  0.51100000000E-03 0.  1.
        -12    1    3    3    0    0 -0.40081189311E+01 -0.25436218354E+02  0.99055493723E+01  0.27589601843E+02  0.00000000000E+00 0.  1.
</event>
<event>
 7    1  0.5487071E-013  0.5052890E+02  0.7816164E-02  0.1300439E+00
        -11   -1    0    0    0    0  0.00000000000E+00  0.00000000000E+00  0.45593999997E+02  0.45594000000E+02  0.51100000000E-03 0. -1.
         11   -1    0    0    0    0 -0.00000000000E+00 -0.00000000000E+00 -0.45593999997E+02  0.45594000000E+02  0.51100000000E-03 0.  1.
    9900012    2    1    2    0    0 -0.24708887945E+02  0.40731642085E+00  0.32287268906E+02  0.50528895441E+02  0.30000108182E+02 0.  0.
        -12    1    1    2    0    0  0.24708887945E+02 -0.40731642085E+00 -0.32287268906E+02  0.40659104559E+02  0.00000000000E+00 0.  1.
         11    1    3    3    0    0  0.55438701588E+00 -0.33772084719E+01  0.46304470039E+01  0.57579442289E+01  0.51100000000E-03 0. -1.
        -11    1    3    3    0    0  0.27994396550E+01  0.63135769797E+01  0.40062304594E+01  0.79842344289E+01  0.51100000000E-03 0.  1.
         12    1    3    3    0    0 -0.28062714616E+02 -0.25290520870E+01  0.23650591442E+02  0.36786716783E+02  0.00000000000E+00 0. -1.
</event>
<event>
 7    1  0.5487071E-013  0.5052886E+02  0.7816164E-02  0.1300439E+00
        -11   -1    0    0    0    0  0.00000000000E+00  0.00000000000E+00  0.45593999997E+02  0.45594000000E+02  0.51100000000E-03 0. -1.
         11   -1    0    0    0    0 -0.00000000000E+00 -0.00000000000E+00 -0.45593999997E+02  0.45594000000E+02  0.51100000000E-03 0.  1.
    9900012    2    1    2    0    0 -0.38534088917E+02  0.12633735320E+02  0.29458958524E+01  0.50528861062E+02  0.30000003683E+02 0.  0.
        -12    1    1    2    0    0  0.38534088917E+02 -0.12633735320E+02 -0.29458958524E+01  0.40659138938E+02  0.00000000000E+00 0.  1.
         11    1    3    3    0    0 -0.81114894414E+01  0.51808922191E+00 -0.25116392919E+01  0.85072327812E+01  0.51100000000E-03 0. -1.
        -11    1    3    3    0    0 -0.23112937915E+02  0.17163739755E+02 -0.39778404169E+01  0.29062434105E+02  0.51100000000E-03 0.  1.
         12    1    3    3    0    0 -0.73096615609E+01 -0.50480936568E+01  0.94353755612E+01  0.12959194176E+02  0.00000000000E+00 0. -1.
</event>
<event>
 7    1  0.5487071E-013  0.5052886E+02  0.7816164E-02  0.1300439E+00
        -11   -1    0    0    0    0  0.00000000000E+00  0.00000000000E+00  0.45593999997E+02  0.45594000000E+02  0.51100000000E-03 0.  1.
         11   -1    0    0    0    0 -0.00000000000E+00 -0.00000000000E+00 -0.45593999997E+02  0.45594000000E+02  0.51100000000E-03 0. -1.
    9900012    2    1    2    0    0  0.35421007162E+02 -0.85219528095E+01 -0.18052541127E+02  0.50528859955E+02  0.30000000318E+02 0.  0.
        -12    1    1    2    0    0 -0.35421007162E+02  0.85219528095E+01  0.18052541127E+02  0.40659140045E+02  0.00000000000E+00 0.  1.
         11    1    3    3    0    0  0.72863456361E+01 -0.58898245804E+01 -0.45439330108E+01  0.10412885949E+02  0.51100000000E-03 0. -1.
        -11    1    3    3    0    0  0.17084299060E+02 -0.13813196515E+02 -0.91794575723E+01  0.23810504277E+02  0.51100000000E-03 0.  1.
        -12    1    3    3    0    0  0.11050362466E+02  0.11181068286E+02 -0.43291505439E+01  0.16305469729E+02  0.00000000000E+00 0.  1.
</event>
<event>
 7    1  0.5487071E-013  0.5052886E+02  0.7816164E-02  0.1300439E+00
        -11   -1    0    0    0    0  0.00000000000E+00  0.00000000000E+00  0.45593999997E+02  0.45594000000E+02  0.51100000000E-03 0.  1.
         11   -1    0    0    0    0 -0.00000000000E+00 -0.00000000000E+00 -0.45593999997E+02  0.45594000000E+02  0.51100000000E-03 0. -1.
    9900012    2    1    2    0    0 -0.13610736636E+02  0.37165660884E+02 -0.93073698906E+01  0.50528860376E+02  0.30000001598E+02 0.  0.
        -12    1    1    2    0    0  0.13610736636E+02 -0.37165660884E+02  0.93073698906E+01  0.40659139624E+02  0.00000000000E+00 0.  1.
         11    1    3    3    0    0 -0.26272955279E+01  0.16285530924E+01  0.17669510117E+01  0.35604751234E+01  0.51100000000E-03 0. -1.
        -11    1    3    3    0    0  0.23168609158E+01  0.24676249814E+02  0.27321214253E+01  0.24934908003E+02  0.51100000000E-03 0.  1.
        -12    1    3    3    0    0 -0.13300302024E+02  0.10860857978E+02 -0.13806442328E+02  0.22033477249E+02  0.00000000000E+00 0.  1.
</event>
<event>
 7    1  0.5487071E-013  0.5052885E+02  0.7816164E-02  0.1300439E+00
        -11   -1    0    0    0    0  0.00000000000E+00  0.00000000000E+00  0.45593999997E+02  0.45594000000E+02  0.51100000000E-03 0.  1.
         11   -1    0    0    0    0 -0.00000000000E+00 -0.00000000000E+00 -0.45593999997E+02  0.45594000000E+02  0.51100000000E-03 0. -1.
    9900012    2    1    2    0    0 -0.37621479271E+02  0.76705743288E+01  0.13377337837E+02  0.50528848746E+02  0.29999966249E+02 0.  0.
        -12    1    1    2    0    0  0.37621479271E+02 -0.76705743288E+01 -0.13377337837E+02  0.40659151254E+02  0.00000000000E+00 0.  1.
         11    1    3    3    0    0 -0.18778341360E+02  0.70936545720E+01  0.56073254657E+01  0.20841980198E+02  0.51100000000E-03 0. -1.
        -11    1    3    3    0    0 -0.12847496489E+02  0.97083863951E+01  0.93940167540E+01  0.18642920465E+02  0.51100000000E-03 0.  1.
         12    1    3    3    0    0 -0.59956414215E+01 -0.91314666383E+01 -0.16240043829E+01  0.11043948083E+02  0.00000000000E+00 0. -1.
</event>
<event>
 7    1  0.5487071E-013  0.5052886E+02  0.7816164E-02  0.1300439E+00
        -11   -1    0    0    0    0  0.00000000000E+00  0.00000000000E+00  0.45593999997E+02  0.45594000000E+02  0.51100000000E-03 0. -1.
         11   -1    0    0    0    0 -0.00000000000E+00 -0.00000000000E+00 -0.45593999997E+02  0.45594000000E+02  0.51100000000E-03 0.  1.
    9900012    2    1    2    0    0 -0.28439941722E+02 -0.12734336942E+02  0.26118421838E+02  0.50528861029E+02  0.30000003585E+02 0.  0.
        -12    1    1    2    0    0  0.28439941722E+02  0.12734336942E+02 -0.26118421838E+02  0.40659138971E+02  0.00000000000E+00 0.  1.
         11    1    3    3    0    0 -0.41288422238E+01 -0.85136117008E+01  0.13863625892E+01  0.95629976363E+01  0.51100000000E-03 0. -1.
        -11    1    3    3    0    0  0.31186305744E+01 -0.38660253731E+01  0.57941729583E+01  0.76318051192E+01  0.51100000000E-03 0.  1.
         12    1    3    3    0    0 -0.27429730073E+02 -0.35469986784E+00  0.18937886290E+02  0.33334058274E+02  0.00000000000E+00 0. -1.
</event>
<event>
 7    1  0.5487071E-013  0.5052884E+02  0.7816164E-02  0.1300439E+00
        -11   -1    0    0    0    0  0.00000000000E+00  0.00000000000E+00  0.45593999997E+02  0.45594000000E+02  0.51100000000E-03 0.  1.
         11   -1    0    0    0    0 -0.00000000000E+00 -0.00000000000E+00 -0.45593999997E+02  0.45594000000E+02  0.51100000000E-03 0. -1.
    9900012    2    1    2    0    0 -0.34533875800E+02 -0.14677256596E+02 -0.15657472683E+02  0.50528844945E+02  0.29999954695E+02 0.  0.
        -12    1    1    2    0    0  0.34533875800E+02  0.14677256596E+02  0.15657472683E+02  0.40659155055E+02  0.00000000000E+00 0.  1.
         11    1    3    3    0    0 -0.21089878799E+01  0.34653884113E+01 -0.33065766080E+01  0.52335643537E+01  0.51100000000E-03 0. -1.
        -11    1    3    3    0    0  0.33517657911E+01 -0.37057693055E+01 -0.12629135739E+01  0.51538345938E+01  0.51100000000E-03 0.  1.
         12    1    3    3    0    0 -0.35776653711E+02 -0.14436875702E+02 -0.11087982501E+02  0.40141445997E+02  0.00000000000E+00 0. -1.
</event>
<event>
 7    1  0.5487071E-013  0.5052886E+02  0.7816164E-02  0.1300439E+00
        -11   -1    0    0    0    0  0.00000000000E+00  0.00000000000E+00  0.45593999997E+02  0.45594000000E+02  0.51100000000E-03 0. -1.
         11   -1    0    0    0    0 -0.00000000000E+00 -0.00000000000E+00 -0.45593999997E+02  0.45594000000E+02  0.51100000000E-03 0.  1.
    9900012    2    1    2    0    0  0.38443366427E+02  0.73497202893E+01  0.11011576804E+02  0.50528860385E+02  0.30000001626E+02 0.  0.
        -12    1    1    2    0    0 -0.38443366427E+02 -0.73497202893E+01 -0.11011576804E+02  0.40659139615E+02  0.00000000000E+00 0.  1.
         11    1    3    3    0    0  0.11624502226E+02  0.80200365402E+01  0.87394109953E+00  0.14149692979E+02  0.51100000000E-03 0. -1.
        -11    1    3    3    0    0  0.13600348261E+02  0.60764276773E+01  0.14624416695E+02  0.20875009224E+02  0.51100000000E-03 0.  1.
         12    1    3    3    0    0  0.13218515939E+02 -0.67467439282E+01 -0.44867809907E+01  0.15504158182E+02  0.00000000000E+00 0. -1.
</event>
<event>
 7    1  0.5487071E-013  0.5052887E+02  0.7816164E-02  0.1300439E+00
        -11   -1    0    0    0    0  0.00000000000E+00  0.00000000000E+00  0.45593999997E+02  0.45594000000E+02  0.51100000000E-03 0. -1.
         11   -1    0    0    0    0 -0.00000000000E+00 -0.00000000000E+00 -0.45593999997E+02  0.45594000000E+02  0.51100000000E-03 0.  1.
    9900012    2    1    2    0    0  0.23977644582E+02  0.32784968227E+02 -0.18394005476E+01  0.50528868483E+02  0.30000026240E+02 0.  0.
        -12    1    1    2    0    0 -0.23977644582E+02 -0.32784968227E+02  0.18394005476E+01  0.40659131517E+02  0.00000000000E+00 0.  1.
         11    1    3    3    0    0  0.38611511164E+01  0.92088501431E+01  0.93004030231E+01  0.13645838397E+02  0.51100000000E-03 0. -1.
        -11    1    3    3    0    0 -0.28979072941E+00  0.22557642756E+01  0.33156382595E+01  0.40206850738E+01  0.51100000000E-03 0.  1.
        -12    1    3    3    0    0  0.20406284195E+02  0.21320353809E+02 -0.14455441830E+02  0.32862345012E+02  0.00000000000E+00 0.  1.
</event>
<event>
 7    1  0.5487071E-013  0.5052886E+02  0.7816164E-02  0.1300439E+00
        -11   -1    0    0    0    0  0.00000000000E+00  0.00000000000E+00  0.45593999997E+02  0.45594000000E+02  0.51100000000E-03 0.  1.
         11   -1    0    0    0    0 -0.00000000000E+00 -0.00000000000E+00 -0.45593999997E+02  0.45594000000E+02  0.51100000000E-03 0. -1.
    9900012    2    1    2    0    0 -0.38968489230E+02  0.74332739206E+01 -0.89089204084E+01  0.50528861090E+02  0.30000003770E+02 0.  0.
        -12    1    1    2    0    0  0.38968489230E+02 -0.74332739206E+01  0.89089204084E+01  0.40659138910E+02  0.00000000000E+00 0.  1.
         11    1    3    3    0    0 -0.14107870564E+02  0.52737965364E+01 -0.12991193282E+02  0.19890099168E+02  0.51100000000E-03 0. -1.
        -11    1    3    3    0    0 -0.18254963530E+02  0.14984507689E+01 -0.53707326403E+01  0.19087530420E+02  0.51100000000E-03 0.  1.
        -12    1    3    3    0    0 -0.66056551363E+01  0.66102661535E+00  0.94530055143E+01  0.11551231502E+02  0.00000000000E+00 0.  1.
</event>
<event>
 7    1  0.5487071E-013  0.5052887E+02  0.7816164E-02  0.1300439E+00
        -11   -1    0    0    0    0  0.00000000000E+00  0.00000000000E+00  0.45593999997E+02  0.45594000000E+02  0.51100000000E-03 0.  1.
         11   -1    0    0    0    0 -0.00000000000E+00 -0.00000000000E+00 -0.45593999997E+02  0.45594000000E+02  0.51100000000E-03 0. -1.
    9900012    2    1    2    0    0 -0.15977717283E+02  0.17031367202E+02 -0.33283782999E+02  0.50528866597E+02  0.30000020508E+02 0.  0.
        -12    1    1    2    0    0  0.15977717283E+02 -0.17031367202E+02  0.33283782999E+02  0.40659133403E+02  0.00000000000E+00 0.  1.
         11    1    3    3    0    0 -0.54779999425E+01  0.12660133206E+00 -0.32884400329E+01  0.63904889781E+01  0.51100000000E-03 0. -1.
        -11    1    3    3    0    0 -0.48144021399E+00 -0.34746000105E+01  0.26326052667E+01  0.43857998888E+01  0.51100000000E-03 0.  1.
         12    1    3    3    0    0 -0.10018277127E+02  0.20379365880E+02 -0.32627948233E+02  0.39752577730E+02  0.00000000000E+00 0. -1.
</event>
<event>
 7    1  0.5487071E-013  0.5052886E+02  0.7816164E-02  0.1300439E+00
        -11   -1    0    0    0    0  0.00000000000E+00  0.00000000000E+00  0.45593999997E+02  0.45594000000E+02  0.51100000000E-03 0.  1.
         11   -1    0    0    0    0 -0.00000000000E+00 -0.00000000000E+00 -0.45593999997E+02  0.45594000000E+02  0.51100000000E-03 0. -1.
    9900012    2    1    2    0    0 -0.22080162512E+01  0.57745190339E+01 -0.40186379432E+02  0.50528862065E+02  0.30000006731E+02 0.  0.
        -12    1    1    2    0    0  0.22080162512E+01 -0.57745190339E+01  0.40186379432E+02  0.40659137935E+02  0.00000000000E+00 0.  1.
         11    1    3    3    0    0 -0.12403333017E+01 -0.75928621849E+01 -0.73291600681E+01  0.10625750346E+02  0.51100000000E-03 0. -1.
        -11    1    3    3    0    0  0.18261901658E+01 -0.28779561495E+01 -0.15873576670E+02  0.16235394627E+02  0.51100000000E-03 0.  1.
        -12    1    3    3    0    0 -0.27938731153E+01  0.16245337368E+02 -0.16983642693E+02  0.23667717092E+02  0.00000000000E+00 0.  1.
</event>
<event>
 7    1  0.5487071E-013  0.5052887E+02  0.7816164E-02  0.1300439E+00
        -11   -1    0    0    0    0  0.00000000000E+00  0.00000000000E+00  0.45593999997E+02  0.45594000000E+02  0.51100000000E-03 0.  1.
         11   -1    0    0    0    0 -0.00000000000E+00 -0.00000000000E+00 -0.45593999997E+02  0.45594000000E+02  0.51100000000E-03 0. -1.
    9900012    2    1    2    0    0 -0.78182748509E+01 -0.14739991926E+02 -0.37077924317E+02  0.50528865045E+02  0.30000015791E+02 0.  0.
        -12    1    1    2    0    0  0.78182748509E+01  0.14739991926E+02  0.37077924317E+02  0.40659134955E+02  0.00000000000E+00 0.  1.
         11    1    3    3    0    0 -0.77924949148E+01 -0.25987700463E+01 -0.18216529416E+02  0.19982955911E+02  0.51100000000E-03 0. -1.
        -11    1    3    3    0    0  0.40179350565E+01  0.34816559547E+01 -0.11777419071E+02  0.12921816070E+02  0.51100000000E-03 0.  1.
        -12    1    3    3    0    0 -0.40437149926E+01 -0.15622877834E+02 -0.70839758305E+01  0.17624093064E+02  0.00000000000E+00 0.  1.
</event>
<event>
 7    1  0.5487071E-013  0.5052887E+02  0.7816164E-02  0.1300439E+00
        -11   -1    0    0    0    0  0.00000000000E+00  0.00000000000E+00  0.45593999997E+02  0.45594000000E+02  0.51100000000E-03 0.  1.
         11   -1    0    0    0    0 -0.00000000000E+00 -0.00000000000E+00 -0.45593999997E+02  0.45594000000E+02  0.51100000000E-03 0. -1.
    9900012    2    1    2    0    0 -0.55174604381E+01 -0.39214091360E+02 -0.92183382474E+01  0.50528867066E+02  0.30000021934E+02 0.  0.
        -12    1    1    2    0    0  0.55174604381E+01  0.39214091360E+02  0.92183382474E+01  0.40659132934E+02  0.00000000000E+00 0.  1.
         11    1    3    3    0    0  0.22186374469E+01 -0.24303610116E+02 -0.78439906904E+01  0.25634274068E+02  0.51100000000E-03 0. -1.
        -11    1    3    3    0    0 -0.71918070081E+00 -0.90234463346E+01 -0.91564933315E+01  0.12875603870E+02  0.51100000000E-03 0.  1.
        -12    1    3    3    0    0 -0.70169171841E+01 -0.58870349096E+01  0.77821457745E+01  0.12018989128E+02  0.00000000000E+00 0.  1.
</event>
<event>
 7    1  0.5487071E-013  0.5052886E+02  0.7816164E-02  0.1300439E+00
        -11   -1    0    0    0    0  0.00000000000E+00  0.00000000000E+00  0.45593999997E+02  0.45594000000E+02  0.51100000000E-03 0.  1.
         11   -1    0    0    0    0 -0.00000000000E+00 -0.00000000000E+00 -0.45593999997E+02  0.45594000000E+02  0.51100000000E-03 0. -1.
    9900012    2    1    2    0    0 -0.24383146887E+02 -0.64215749719E+01 -0.31896564666E+02  0.50528864315E+02  0.30000013571E+02 0.  0.
        -12    1    1    2    0    0  0.24383146887E+02  0.64215749719E+01  0.31896564666E+02  0.40659135685E+02  0.00000000000E+00 0.  1.
         11    1    3    3    0    0 -0.66523660079E+01 -0.97715753057E+01 -0.23732146365E+01  0.12056940136E+02  0.51100000000E-03 0. -1.
        -11    1    3    3    0    0 -0.64383379234E+01 -0.65373109057E+01 -0.76609024696E+01  0.11953160921E+02  0.51100000000E-03 0.  1.
         12    1    3    3    0    0 -0.11292442955E+02  0.98873112395E+01 -0.21862447560E+02  0.26518763258E+02  0.00000000000E+00 0. -1.
</event>
<event>
 7    1  0.5487071E-013  0.5052885E+02  0.7816164E-02  0.1300439E+00
        -11   -1    0    0    0    0  0.00000000000E+00  0.00000000000E+00  0.45593999997E+02  0.45594000000E+02  0.51100000000E-03 0.  1.
         11   -1    0    0    0    0 -0.00000000000E+00 -0.00000000000E+00 -0.45593999997E+02  0.45594000000E+02  0.51100000000E-03 0. -1.
    9900012    2    1    2    0    0  0.27959870537E+02 -0.85061422232E+01 -0.28267603239E+02  0.50528853319E+02  0.29999980149E+02 0.  0.
        -12    1    1    2    0    0 -0.27959870537E+02  0.85061422232E+01  0.28267603239E+02  0.40659146681E+02  0.00000000000E+00 0.  1.
         11    1    3    3    0    0  0.13924273823E+02 -0.10944720606E+02 -0.27744445110E+01  0.17926791493E+02  0.51100000000E-03 0. -1.
        -11    1    3    3    0    0  0.63333512670E+01  0.49466326789E+01 -0.28056958192E+01  0.85119000477E+01  0.51100000000E-03 0.  1.
         12    1    3    3    0    0  0.77022454468E+01 -0.25080542957E+01 -0.22687462908E+02  0.24090161778E+02  0.00000000000E+00 0. -1.
</event>
<event>
 7    1  0.5487071E-013  0.5052886E+02  0.7816164E-02  0.1300439E+00
        -11   -1    0    0    0    0  0.00000000000E+00  0.00000000000E+00  0.45593999997E+02  0.45594000000E+02  0.51100000000E-03 0.  1.
         11   -1    0    0    0    0 -0.00000000000E+00 -0.00000000000E+00 -0.45593999997E+02  0.45594000000E+02  0.51100000000E-03 0. -1.
    9900012    2    1    2    0    0 -0.67144411632E+01  0.24430143970E+02 -0.31800156103E+02  0.50528861019E+02  0.30000003553E+02 0.  0.
        -12    1    1    2    0    0  0.67144411632E+01 -0.24430143970E+02  0.31800156103E+02  0.40659138981E+02  0.00000000000E+00 0.  1.
         11    1    3    3    0    0  0.13750182157E+01 -0.16187584030E+01  0.10137010748E+01  0.23534323850E+01  0.51100000000E-03 0. -1.
        -11    1    3    3    0    0  0.46886187195E+01  0.45054997356E+00 -0.11715539640E+02  0.12626955694E+02  0.51100000000E-03 0.  1.
         12    1    3    3    0    0 -0.12778078098E+02  0.25598352399E+02 -0.21098317537E+02  0.35548472940E+02  0.00000000000E+00 0. -1.
</event>
<event>
 7    1  0.5487071E-013  0.5052884E+02  0.7816164E-02  0.1300439E+00
        -11   -1    0    0    0    0  0.00000000000E+00  0.00000000000E+00  0.45593999997E+02  0.45594000000E+02  0.51100000000E-03 0.  1.
         11   -1    0    0    0    0 -0.00000000000E+00 -0.00000000000E+00 -0.45593999997E+02  0.45594000000E+02  0.51100000000E-03 0. -1.
    9900012    2    1    2    0    0  0.10801004202E+02  0.35973139138E+02  0.15570454410E+02  0.50528837665E+02  0.29999932567E+02 0.  0.
        -12    1    1    2    0    0 -0.10801004202E+02 -0.35973139138E+02 -0.15570454410E+02  0.40659162335E+02  0.00000000000E+00 0.  1.
         11    1    3    3    0    0 -0.27253103567E+01  0.15619813765E+01  0.20762382461E+01  0.37653509633E+01  0.51100000000E-03 0.  1.
        -11    1    3    3    0    0  0.11202326060E+02  0.27422767814E+02  0.20951064702E+02  0.36282880483E+02  0.51100000000E-03 0. -1.
         12    1    3    3    0    0  0.23239884988E+01  0.69883899470E+01 -0.74568485379E+01  0.10480606219E+02  0.00000000000E+00 0. -1.
</event>
<event>
 7    1  0.5487071E-013  0.5052886E+02  0.7816164E-02  0.1300439E+00
        -11   -1    0    0    0    0  0.00000000000E+00  0.00000000000E+00  0.45593999997E+02  0.45594000000E+02  0.51100000000E-03 0.  1.
         11   -1    0    0    0    0 -0.00000000000E+00 -0.00000000000E+00 -0.45593999997E+02  0.45594000000E+02  0.51100000000E-03 0. -1.
    9900012    2    1    2    0    0 -0.10286598882E+01  0.38995195182E+02 -0.11466567741E+02  0.50528861246E+02  0.30000004245E+02 0.  0.
        -12    1    1    2    0    0  0.10286598882E+01 -0.38995195182E+02  0.11466567741E+02  0.40659138754E+02  0.00000000000E+00 0.  1.
         11    1    3    3    0    0 -0.68883867787E+01  0.21822322146E+02 -0.15480759676E+01  0.22936001302E+02  0.51100000000E-03 0. -1.
        -11    1    3    3    0    0  0.82622331221E+01  0.16650997857E+02 -0.13693754870E+02  0.23087640600E+02  0.51100000000E-03 0.  1.
         12    1    3    3    0    0 -0.24025062316E+01  0.52187517901E+00  0.37752630963E+01  0.45052193445E+01  0.00000000000E+00 0. -1.
</event>
<event>
 7    1  0.5487071E-013  0.5052886E+02  0.7816164E-02  0.1300439E+00
        -11   -1    0    0    0    0  0.00000000000E+00  0.00000000000E+00  0.45593999997E+02  0.45594000000E+02  0.51100000000E-03 0.  1.
         11   -1    0    0    0    0 -0.00000000000E+00 -0.00000000000E+00 -0.45593999997E+02  0.45594000000E+02  0.51100000000E-03 0. -1.
    9900012    2    1    2    0    0  0.29216144265E+02  0.53214614705E+01 -0.27771655204E+02  0.50528857477E+02  0.29999992787E+02 0.  0.
        -12    1    1    2    0    0 -0.29216144265E+02 -0.53214614705E+01  0.27771655204E+02  0.40659142523E+02  0.00000000000E+00 0.  1.
         11    1    3    3    0    0  0.23049989389E+02  0.43075624472E+01 -0.13530911719E+02  0.27072914089E+02  0.51100000000E-03 0. -1.
        -11    1    3    3    0    0  0.83293844591E+01  0.78565530638E+01 -0.83479522870E+01  0.14170122764E+02  0.51100000000E-03 0.  1.
         12    1    3    3    0    0 -0.21632295826E+01 -0.68426540405E+01 -0.58927911981E+01  0.92858206233E+01  0.00000000000E+00 0. -1.
</event>
<event>
 7    1  0.5487071E-013  0.5052886E+02  0.7816164E-02  0.1300439E+00
        -11   -1    0    0    0    0  0.00000000000E+00  0.00000000000E+00  0.45593999997E+02  0.45594000000E+02  0.51100000000E-03 0.  1.
         11   -1    0    0    0    0 -0.00000000000E+00 -0.00000000000E+00 -0.45593999997E+02  0.45594000000E+02  0.51100000000E-03 0. -1.
    9900012    2    1    2    0    0 -0.12109912905E+02  0.38776704054E+02 -0.16979428017E+01  0.50528858622E+02  0.29999996268E+02 0.  0.
        -12    1    1    2    0    0  0.12109912905E+02 -0.38776704054E+02  0.16979428017E+01  0.40659141378E+02  0.00000000000E+00 0.  1.
         11    1    3    3    0    0  0.21228999436E+00  0.65325983859E+01 -0.40541447012E+01  0.76912936645E+01  0.51100000000E-03 0. -1.
        -11    1    3    3    0    0 -0.40778740273E+01  0.45350175149E+01 -0.97461042778E+01  0.11497042633E+02  0.51100000000E-03 0.  1.
         12    1    3    3    0    0 -0.82443288717E+01  0.27709088153E+02  0.12102306177E+02  0.31340522325E+02  0.00000000000E+00 0. -1.
</event>
<event>
 7    1  0.5487071E-013  0.5052886E+02  0.7816164E-02  0.1300439E+00
        -11   -1    0    0    0    0  0.00000000000E+00  0.00000000000E+00  0.45593999997E+02  0.45594000000E+02  0.51100000000E-03 0.  1.
         11   -1    0    0    0    0 -0.00000000000E+00 -0.00000000000E+00 -0.45593999997E+02  0.45594000000E+02  0.51100000000E-03 0. -1.
    9900012    2    1    2    0    0  0.14281789169E+02 -0.21935291514E+02 -0.31113326923E+02  0.50528860463E+02  0.30000001864E+02 0.  0.
        -12    1    1    2    0    0 -0.14281789169E+02  0.21935291514E+02  0.31113326923E+02  0.40659139537E+02  0.00000000000E+00 0.  1.
         11    1    3    3    0    0  0.96356035295E+01 -0.24308780902E+02 -0.16214408241E+02  0.30767982046E+02  0.51100000000E-03 0. -1.
        -11    1    3    3    0    0  0.29395932379E+01 -0.23770940166E+01  0.25432001723E+00  0.37889923859E+01  0.51100000000E-03 0.  1.
        -12    1    3    3    0    0  0.17065924013E+01  0.47505834049E+01 -0.15153238699E+02  0.15971886031E+02  0.00000000000E+00 0.  1.
</event>
<event>
 7    1  0.5487071E-013  0.5052886E+02  0.7816164E-02  0.1300439E+00
        -11   -1    0    0    0    0  0.00000000000E+00  0.00000000000E+00  0.45593999997E+02  0.45594000000E+02  0.51100000000E-03 0. -1.
         11   -1    0    0    0    0 -0.00000000000E+00 -0.00000000000E+00 -0.45593999997E+02  0.45594000000E+02  0.51100000000E-03 0.  1.
    9900012    2    1    2    0    0 -0.36463863057E+02  0.16041896654E+02  0.81369474702E+01  0.50528859928E+02  0.30000000236E+02 0.  0.
        -12    1    1    2    0    0  0.36463863057E+02 -0.16041896654E+02 -0.81369474702E+01  0.40659140072E+02  0.00000000000E+00 0.  1.
         11    1    3    3    0    0 -0.56837842665E+01 -0.11831587242E+00  0.47767977977E+01  0.74254427272E+01  0.51100000000E-03 0. -1.
        -11    1    3    3    0    0 -0.88197928785E+01  0.46781643939E+01  0.13105583489E+02  0.16475141497E+02  0.51100000000E-03 0.  1.
        -12    1    3    3    0    0 -0.21960285912E+02  0.11482048133E+02 -0.97454338162E+01  0.26628275703E+02  0.00000000000E+00 0.  1.
</event>
<event>
 7    1  0.5487071E-013  0.5052893E+02  0.7816164E-02  0.1300439E+00
        -11   -1    0    0    0    0  0.00000000000E+00  0.00000000000E+00  0.45593999997E+02  0.45594000000E+02  0.51100000000E-03 0. -1.
         11   -1    0    0    0    0 -0.00000000000E+00 -0.00000000000E+00 -0.45593999997E+02  0.45594000000E+02  0.51100000000E-03 0.  1.
    9900012    2    1    2    0    0 -0.33289227496E+02 -0.20027441414E+02 -0.11995368687E+02  0.50528930326E+02  0.30000214217E+02 0.  0.
        -12    1    1    2    0    0  0.33289227496E+02  0.20027441414E+02  0.11995368687E+02  0.40659069674E+02  0.00000000000E+00 0.  1.
         11    1    3    3    0    0 -0.23003407721E+02 -0.19917443065E+02 -0.12384507776E+01  0.30453161833E+02  0.51100000000E-03 0. -1.
        -11    1    3    3    0    0 -0.82386690198E+01  0.30494286259E+01 -0.11294132443E+00  0.87856381764E+01  0.51100000000E-03 0.  1.
        -12    1    3    3    0    0 -0.20471507547E+01 -0.31594269753E+01 -0.10643976585E+02  0.11290130317E+02  0.00000000000E+00 0.  1.
</event>
<event>
 7    1  0.5487071E-013  0.5052886E+02  0.7816164E-02  0.1300439E+00
        -11   -1    0    0    0    0  0.00000000000E+00  0.00000000000E+00  0.45593999997E+02  0.45594000000E+02  0.51100000000E-03 0. -1.
         11   -1    0    0    0    0 -0.00000000000E+00 -0.00000000000E+00 -0.45593999997E+02  0.45594000000E+02  0.51100000000E-03 0.  1.
    9900012    2    1    2    0    0  0.16422040534E+02  0.77209554118E+01  0.36385013098E+02  0.50528859012E+02  0.29999997453E+02 0.  0.
        -12    1    1    2    0    0 -0.16422040534E+02 -0.77209554118E+01 -0.36385013098E+02  0.40659140988E+02  0.00000000000E+00 0.  1.
         11    1    3    3    0    0  0.42710315800E+01  0.40379500668E+01  0.11154383793E+02  0.12608212782E+02  0.51100000000E-03 0. -1.
        -11    1    3    3    0    0  0.33339596109E+01  0.94926506045E+01  0.25442446958E+02  0.27359528681E+02  0.51100000000E-03 0.  1.
        -12    1    3    3    0    0  0.88170493428E+01 -0.58096452595E+01 -0.21181765325E+00  0.10561117548E+02  0.00000000000E+00 0.  1.
</event>
<event>
 7    1  0.5487071E-013  0.5052886E+02  0.7816164E-02  0.1300439E+00
        -11   -1    0    0    0    0  0.00000000000E+00  0.00000000000E+00  0.45593999997E+02  0.45594000000E+02  0.51100000000E-03 0.  1.
         11   -1    0    0    0    0 -0.00000000000E+00 -0.00000000000E+00 -0.45593999997E+02  0.45594000000E+02  0.51100000000E-03 0. -1.
    9900012    2    1    2    0    0 -0.12966397147E+02  0.38075776992E+02  0.59391259939E+01  0.50528862453E+02  0.30000007912E+02 0.  0.
        -12    1    1    2    0    0  0.12966397147E+02 -0.38075776992E+02 -0.59391259939E+01  0.40659137547E+02  0.00000000000E+00 0.  1.
         11    1    3    3    0    0 -0.71091726638E+00  0.63192201767E+01 -0.14049917078E+01  0.65124456973E+01  0.51100000000E-03 0. -1.
        -11    1    3    3    0    0  0.79125346195E+01  0.15832845524E+02  0.32466967917E+01  0.17995228307E+02  0.51100000000E-03 0.  1.
        -12    1    3    3    0    0 -0.20168014500E+02  0.15923711291E+02  0.40974209099E+01  0.26021188449E+02  0.00000000000E+00 0.  1.
</event>
<event>
 7    1  0.5487071E-013  0.5052885E+02  0.7816164E-02  0.1300439E+00
        -11   -1    0    0    0    0  0.00000000000E+00  0.00000000000E+00  0.45593999997E+02  0.45594000000E+02  0.51100000000E-03 0.  1.
         11   -1    0    0    0    0 -0.00000000000E+00 -0.00000000000E+00 -0.45593999997E+02  0.45594000000E+02  0.51100000000E-03 0. -1.
    9900012    2    1    2    0    0  0.84709021055E+01 -0.13407848462E+01 -0.39744336462E+02  0.50528853830E+02  0.29999981702E+02 0.  0.
        -12    1    1    2    0    0 -0.84709021055E+01  0.13407848462E+01  0.39744336462E+02  0.40659146170E+02  0.00000000000E+00 0.  1.
         11    1    3    3    0    0 -0.20327496359E+01 -0.16764279561E+01 -0.69993138929E+01  0.74788285852E+01  0.51100000000E-03 0. -1.
        -11    1    3    3    0    0 -0.59888995421E+01 -0.47131714632E+01 -0.21341084526E+01  0.79142480449E+01  0.51100000000E-03 0.  1.
         12    1    3    3    0    0  0.16492551284E+02  0.50488145731E+01 -0.30610914116E+02  0.35135777200E+02  0.00000000000E+00 0. -1.
</event>
<event>
 7    1  0.5487071E-013  0.5052887E+02  0.7816164E-02  0.1300439E+00
        -11   -1    0    0    0    0  0.00000000000E+00  0.00000000000E+00  0.45593999997E+02  0.45594000000E+02  0.51100000000E-03 0.  1.
         11   -1    0    0    0    0 -0.00000000000E+00 -0.00000000000E+00 -0.45593999997E+02  0.45594000000E+02  0.51100000000E-03 0. -1.
    9900012    2    1    2    0    0  0.29409756571E+02 -0.11723514685E+02 -0.25510597148E+02  0.50528866402E+02  0.30000019914E+02 0.  0.
        -12    1    1    2    0    0 -0.29409756571E+02  0.11723514685E+02  0.25510597148E+02  0.40659133598E+02  0.00000000000E+00 0.  1.
         11    1    3    3    0    0  0.72216542070E+01 -0.89674470156E+00 -0.85214230281E+01  0.11205850759E+02  0.51100000000E-03 0. -1.
        -11    1    3    3    0    0  0.85804382815E+01 -0.12873851875E+02 -0.19951267876E+02  0.25247040882E+02  0.51100000000E-03 0.  1.
        -12    1    3    3    0    0  0.13607664082E+02  0.20470818918E+01  0.29620937555E+01  0.14075974761E+02  0.00000000000E+00 0.  1.
</event>
<event>
 7    1  0.5487071E-013  0.5052882E+02  0.7816164E-02  0.1300439E+00
        -11   -1    0    0    0    0  0.00000000000E+00  0.00000000000E+00  0.45593999997E+02  0.45594000000E+02  0.51100000000E-03 0. -1.
         11   -1    0    0    0    0 -0.00000000000E+00 -0.00000000000E+00 -0.45593999997E+02  0.45594000000E+02  0.51100000000E-03 0.  1.
    9900012    2    1    2    0    0 -0.26626267718E+01 -0.15101241810E+01  0.40543790777E+02  0.50528818663E+02  0.29999874809E+02 0.  0.
        -12    1    1    2    0    0  0.26626267718E+01  0.15101241810E+01 -0.40543790777E+02  0.40659181337E+02  0.00000000000E+00 0.  1.
         11    1    3    3    0    0 -0.57641239906E+01 -0.51463112468E+00  0.38183164319E+01  0.69332179548E+01  0.51100000000E-03 0. -1.
        -11    1    3    3    0    0 -0.18201484777E+01  0.48067164206E+00 -0.29986155258E+01  0.35405763713E+01  0.51100000000E-03 0.  1.
         12    1    3    3    0    0  0.49216456965E+01 -0.14761646984E+01  0.39724089871E+02  0.40055024337E+02  0.00000000000E+00 0. -1.
</event>
<event>
 7    1  0.5487071E-013  0.5052885E+02  0.7816164E-02  0.1300439E+00
        -11   -1    0    0    0    0  0.00000000000E+00  0.00000000000E+00  0.45593999997E+02  0.45594000000E+02  0.51100000000E-03 0.  1.
         11   -1    0    0    0    0 -0.00000000000E+00 -0.00000000000E+00 -0.45593999997E+02  0.45594000000E+02  0.51100000000E-03 0. -1.
    9900012    2    1    2    0    0  0.20701240100E+01 -0.25194739258E+02 -0.31845032291E+02  0.50528851198E+02  0.29999973701E+02 0.  0.
        -12    1    1    2    0    0 -0.20701240100E+01  0.25194739258E+02  0.31845032291E+02  0.40659148802E+02  0.00000000000E+00 0.  1.
         11    1    3    3    0    0  0.36919471328E+01 -0.57189144313E+01 -0.16922421564E+02  0.18240197580E+02  0.51100000000E-03 0.  1.
        -11    1    3    3    0    0  0.63294637522E+01 -0.16305368134E+02 -0.15944788303E+02  0.23667771667E+02  0.51100000000E-03 0. -1.
         12    1    3    3    0    0 -0.79512868750E+01 -0.31704566931E+01  0.10221775768E+01  0.86208819508E+01  0.00000000000E+00 0. -1.
</event>
<event>
 7    1  0.5487071E-013  0.5052886E+02  0.7816164E-02  0.1300439E+00
        -11   -1    0    0    0    0  0.00000000000E+00  0.00000000000E+00  0.45593999997E+02  0.45594000000E+02  0.51100000000E-03 0. -1.
         11   -1    0    0    0    0 -0.00000000000E+00 -0.00000000000E+00 -0.45593999997E+02  0.45594000000E+02  0.51100000000E-03 0.  1.
    9900012    2    1    2    0    0 -0.17463772422E+02  0.32302053256E+02 -0.17457367653E+02  0.50528859858E+02  0.30000000024E+02 0.  0.
        -12    1    1    2    0    0  0.17463772422E+02 -0.32302053256E+02  0.17457367653E+02  0.40659140142E+02  0.00000000000E+00 0.  1.
         11    1    3    3    0    0 -0.11218483595E+02  0.10455858719E+02 -0.45482842982E+01  0.15995819642E+02  0.51100000000E-03 0. -1.
        -11    1    3    3    0    0 -0.11031337513E+02  0.80598798384E+01  0.18388511537E+01  0.13785261846E+02  0.51100000000E-03 0.  1.
        -12    1    3    3    0    0  0.47860486859E+01  0.13786314698E+02 -0.14747934509E+02  0.20747778369E+02  0.00000000000E+00 0.  1.
</event>
<event>
 7    1  0.5487071E-013  0.5052890E+02  0.7816164E-02  0.1300439E+00
        -11   -1    0    0    0    0  0.00000000000E+00  0.00000000000E+00  0.45593999997E+02  0.45594000000E+02  0.51100000000E-03 0.  1.
         11   -1    0    0    0    0 -0.00000000000E+00 -0.00000000000E+00 -0.45593999997E+02  0.45594000000E+02  0.51100000000E-03 0. -1.
    9900012    2    1    2    0    0  0.20094203324E+02  0.27369237812E+02 -0.22367610920E+02  0.50528902568E+02  0.30000129847E+02 0.  0.
        -12    1    1    2    0    0 -0.20094203324E+02 -0.27369237812E+02  0.22367610920E+02  0.40659097432E+02  0.00000000000E+00 0.  1.
         11    1    3    3    0    0  0.57561559180E+01 -0.19382617056E+01  0.91266585308E+00  0.61419173401E+01  0.51100000000E-03 0. -1.
        -11    1    3    3    0    0  0.56832375902E+01  0.21311369652E+01  0.18799442698E+01  0.63541423488E+01  0.51100000000E-03 0.  1.
         12    1    3    3    0    0  0.86548098160E+01  0.27176362553E+02 -0.25160221043E+02  0.38032842880E+02  0.00000000000E+00 0. -1.
</event>
<event>
 7    1  0.5487071E-013  0.5052885E+02  0.7816164E-02  0.1300439E+00
        -11   -1    0    0    0    0  0.00000000000E+00  0.00000000000E+00  0.45593999997E+02  0.45594000000E+02  0.51100000000E-03 0.  1.
         11   -1    0    0    0    0 -0.00000000000E+00 -0.00000000000E+00 -0.45593999997E+02  0.45594000000E+02  0.51100000000E-03 0. -1.
    9900012    2    1    2    0    0  0.10699017148E+02  0.35817069848E+02 -0.15994835246E+02  0.50528853244E+02  0.29999979919E+02 0.  0.
        -12    1    1    2    0    0 -0.10699017148E+02 -0.35817069848E+02  0.15994835246E+02  0.40659146756E+02  0.00000000000E+00 0.  1.
         11    1    3    3    0    0  0.41608184319E+01  0.27162735639E+01  0.31882586066E+01  0.59038585096E+01  0.51100000000E-03 0. -1.
        -11    1    3    3    0    0  0.46444429425E+01 -0.14376655110E+01  0.39586303337E+00  0.48779545067E+01  0.51100000000E-03 0.  1.
         12    1    3    3    0    0  0.18937557733E+01  0.34538461795E+02 -0.19578956886E+02  0.39747040227E+02  0.00000000000E+00 0. -1.
</event>
<event>
 7    1  0.5487071E-013  0.5052887E+02  0.7816164E-02  0.1300439E+00
        -11   -1    0    0    0    0  0.00000000000E+00  0.00000000000E+00  0.45593999997E+02  0.45594000000E+02  0.51100000000E-03 0.  1.
         11   -1    0    0    0    0 -0.00000000000E+00 -0.00000000000E+00 -0.45593999997E+02  0.45594000000E+02  0.51100000000E-03 0. -1.
    9900012    2    1    2    0    0 -0.11234715124E+02 -0.27675887771E+02 -0.27586063751E+02  0.50528874320E+02  0.30000043982E+02 0.  0.
        -12    1    1    2    0    0  0.11234715124E+02  0.27675887771E+02  0.27586063751E+02  0.40659125680E+02  0.00000000000E+00 0.  1.
         11    1    3    3    0    0 -0.69312035115E+00 -0.81655220346E+01 -0.42877043292E+01  0.92488147670E+01  0.51100000000E-03 0. -1.
        -11    1    3    3    0    0 -0.78066804046E+01 -0.13196715764E+02  0.16302608131E+01  0.15419316343E+02  0.51100000000E-03 0.  1.
        -12    1    3    3    0    0 -0.27349143682E+01 -0.63136499729E+01 -0.24928620234E+02  0.25860743210E+02  0.00000000000E+00 0.  1.
</event>
<event>
 7    1  0.5487071E-013  0.5052884E+02  0.7816164E-02  0.1300439E+00
        -11   -1    0    0    0    0  0.00000000000E+00  0.00000000000E+00  0.45593999997E+02  0.45594000000E+02  0.51100000000E-03 0.  1.
         11   -1    0    0    0    0 -0.00000000000E+00 -0.00000000000E+00 -0.45593999997E+02  0.45594000000E+02  0.51100000000E-03 0. -1.
    9900012    2    1    2    0    0  0.95594591816E+01  0.88770738070E+01 -0.38509496141E+02  0.50528843685E+02  0.29999950866E+02 0.  0.
        -12    1    1    2    0    0 -0.95594591816E+01 -0.88770738070E+01  0.38509496141E+02  0.40659156315E+02  0.00000000000E+00 0.  1.
         11    1    3    3    0    0  0.65534317460E+01  0.40333875880E+01 -0.42686912097E+01  0.87998527254E+01  0.51100000000E-03 0. -1.
        -11    1    3    3    0    0  0.12370297747E+02 -0.40267370046E+00 -0.13116826955E+02  0.18034343961E+02  0.51100000000E-03 0.  1.
         12    1    3    3    0    0 -0.93642703117E+01  0.52463599194E+01 -0.21123977976E+02  0.23694646999E+02  0.00000000000E+00 0. -1.
</event>
<event>
 7    1  0.5487071E-013  0.5052890E+02  0.7816164E-02  0.1300439E+00
        -11   -1    0    0    0    0  0.00000000000E+00  0.00000000000E+00  0.45593999997E+02  0.45594000000E+02  0.51100000000E-03 0.  1.
         11   -1    0    0    0    0 -0.00000000000E+00 -0.00000000000E+00 -0.45593999997E+02  0.45594000000E+02  0.51100000000E-03 0. -1.
    9900012    2    1    2    0    0  0.21600702377E+02  0.55766995403E+01 -0.33992244018E+02  0.50528898014E+02  0.30000116002E+02 0.  0.
        -12    1    1    2    0    0 -0.21600702377E+02 -0.55766995403E+01  0.33992244018E+02  0.40659101986E+02  0.00000000000E+00 0.  1.
         11    1    3    3    0    0  0.30410043356E+01 -0.44363046390E+01 -0.18948395273E+02  0.19696958900E+02  0.51100000000E-03 0. -1.
        -11    1    3    3    0    0 -0.40618074686E+00  0.77931932724E+01 -0.48114589677E+01  0.91678231789E+01  0.51100000000E-03 0.  1.
         12    1    3    3    0    0  0.18965878789E+02  0.22198109069E+01 -0.10232389777E+02  0.21664115935E+02  0.00000000000E+00 0. -1.
</event>
<event>
 7    1  0.5487071E-013  0.5052886E+02  0.7816164E-02  0.1300439E+00
        -11   -1    0    0    0    0  0.00000000000E+00  0.00000000000E+00  0.45593999997E+02  0.45594000000E+02  0.51100000000E-03 0. -1.
         11   -1    0    0    0    0 -0.00000000000E+00 -0.00000000000E+00 -0.45593999997E+02  0.45594000000E+02  0.51100000000E-03 0.  1.
    9900012    2    1    2    0    0  0.20126092114E+02  0.26562217121E+02  0.23292798569E+02  0.50528862929E+02  0.30000009359E+02 0.  0.
        -12    1    1    2    0    0 -0.20126092114E+02 -0.26562217121E+02 -0.23292798569E+02  0.40659137071E+02  0.00000000000E+00 0.  1.
         11    1    3    3    0    0  0.24783336727E+01 -0.77804483716E+00  0.14811251835E+02  0.15037309358E+02  0.51100000000E-03 0. -1.
        -11    1    3    3    0    0 -0.80866601947E+00  0.60476103435E+01  0.13436834143E+00  0.61029162463E+01  0.51100000000E-03 0.  1.
         12    1    3    3    0    0  0.18456424461E+02  0.21292651615E+02  0.83471783930E+01  0.29388637324E+02  0.00000000000E+00 0. -1.
</event>
<event>
 7    1  0.5487071E-013  0.5052883E+02  0.7816164E-02  0.1300439E+00
        -11   -1    0    0    0    0  0.00000000000E+00  0.00000000000E+00  0.45593999997E+02  0.45594000000E+02  0.51100000000E-03 0.  1.
         11   -1    0    0    0    0 -0.00000000000E+00 -0.00000000000E+00 -0.45593999997E+02  0.45594000000E+02  0.51100000000E-03 0. -1.
    9900012    2    1    2    0    0 -0.22595052723E+02  0.33801281385E+02  0.32437403499E+00  0.50528828226E+02  0.29999903877E+02 0.  0.
        -12    1    1    2    0    0  0.22595052723E+02 -0.33801281385E+02 -0.32437403499E+00  0.40659171774E+02  0.00000000000E+00 0.  1.
         11    1    3    3    0    0  0.83328349762E+00  0.13329782660E+02 -0.25221371052E+01  0.13591859438E+02  0.51100000000E-03 0. -1.
        -11    1    3    3    0    0  0.22761265610E+01  0.17718855752E+01 -0.34869946474E+01  0.45254240183E+01  0.51100000000E-03 0.  1.
         12    1    3    3    0    0 -0.25704462781E+02  0.18699613150E+02  0.63335057875E+01  0.32411544770E+02  0.00000000000E+00 0. -1.
</event>
<event>
 7    1  0.5487071E-013  0.5052886E+02  0.7816164E-02  0.1300439E+00
        -11   -1    0    0    0    0  0.00000000000E+00  0.00000000000E+00  0.45593999997E+02  0.45594000000E+02  0.51100000000E-03 0.  1.
         11   -1    0    0    0    0 -0.00000000000E+00 -0.00000000000E+00 -0.45593999997E+02  0.45594000000E+02  0.51100000000E-03 0. -1.
    9900012    2    1    2    0    0  0.17100252897E+01  0.27686691942E+02 -0.29726905893E+02  0.50528855504E+02  0.29999986789E+02 0.  0.
        -12    1    1    2    0    0 -0.17100252897E+01 -0.27686691942E+02  0.29726905893E+02  0.40659144496E+02  0.00000000000E+00 0.  1.
         11    1    3    3    0    0 -0.80190967348E+01  0.13809257296E+02 -0.96699858144E+01  0.18668425895E+02  0.51100000000E-03 0. -1.
        -11    1    3    3    0    0  0.33443363455E+00 -0.26718720439E+00  0.31086963075E+01  0.31380292943E+01  0.51100000000E-03 0.  1.
         12    1    3    3    0    0  0.93946883899E+01  0.14144621851E+02 -0.23165616386E+02  0.28722400314E+02  0.00000000000E+00 0. -1.
</event>
<event>
 7    1  0.5487071E-013  0.5052887E+02  0.7816164E-02  0.1300439E+00
        -11   -1    0    0    0    0  0.00000000000E+00  0.00000000000E+00  0.45593999997E+02  0.45594000000E+02  0.51100000000E-03 0. -1.
         11   -1    0    0    0    0 -0.00000000000E+00 -0.00000000000E+00 -0.45593999997E+02  0.45594000000E+02  0.51100000000E-03 0.  1.
    9900012    2    1    2    0    0 -0.37891200894E+02  0.27351580696E+01 -0.14489317250E+02  0.50528874220E+02  0.30000043678E+02 0.  0.
        -12    1    1    2    0    0  0.37891200894E+02 -0.27351580696E+01  0.14489317250E+02  0.40659125780E+02  0.00000000000E+00 0.  1.
         11    1    3    3    0    0 -0.14358972031E+02  0.56026054051E+01 -0.64839582640E+01  0.16721572299E+02  0.51100000000E-03 0. -1.
        -11    1    3    3    0    0 -0.25027745678E+02 -0.54222011481E+01 -0.36224194426E+00  0.25610926155E+02  0.51100000000E-03 0.  1.
        -12    1    3    3    0    0  0.14955168151E+01  0.25547538127E+01 -0.76431170416E+01  0.81963757661E+01  0.00000000000E+00 0.  1.
</event>
<event>
 7    1  0.5487071E-013  0.5052886E+02  0.7816164E-02  0.1300439E+00
        -11   -1    0    0    0    0  0.00000000000E+00  0.00000000000E+00  0.45593999997E+02  0.45594000000E+02  0.51100000000E-03 0.  1.
         11   -1    0    0    0    0 -0.00000000000E+00 -0.00000000000E+00 -0.45593999997E+02  0.45594000000E+02  0.51100000000E-03 0. -1.
    9900012    2    1    2    0    0  0.31204673254E+02 -0.48594717281E+01 -0.25608974424E+02  0.50528859952E+02  0.30000000311E+02 0.  0.
        -12    1    1    2    0    0 -0.31204673254E+02  0.48594717281E+01  0.25608974424E+02  0.40659140048E+02  0.00000000000E+00 0.  1.
         11    1    3    3    0    0  0.20193879252E+02 -0.75635126014E+01 -0.13586981645E+02  0.25487360644E+02  0.51100000000E-03 0. -1.
        -11    1    3    3    0    0  0.10915299606E+02 -0.65372193132E+01 -0.71329491308E+01  0.14586225194E+02  0.51100000000E-03 0.  1.
        -12    1    3    3    0    0  0.95494395757E-01  0.92412601865E+01 -0.48890436475E+01  0.10455274114E+02  0.00000000000E+00 0.  1.
</event>
<event>
 7    1  0.5487071E-013  0.5052886E+02  0.7816164E-02  0.1300439E+00
        -11   -1    0    0    0    0  0.00000000000E+00  0.00000000000E+00  0.45593999997E+02  0.45594000000E+02  0.51100000000E-03 0.  1.
         11   -1    0    0    0    0 -0.00000000000E+00 -0.00000000000E+00 -0.45593999997E+02  0.45594000000E+02  0.51100000000E-03 0. -1.
    9900012    2    1    2    0    0  0.31106114641E+02  0.12258777173E+01 -0.26154783969E+02  0.50528857501E+02  0.29999992861E+02 0.  0.
        -12    1    1    2    0    0 -0.31106114641E+02 -0.12258777173E+01  0.26154783969E+02  0.40659142499E+02  0.00000000000E+00 0.  1.
         11    1    3    3    0    0  0.10176605712E+02  0.30905230405E+01 -0.21596516066E+01  0.10852591018E+02  0.51100000000E-03 0. -1.
        -11    1    3    3    0    0  0.68662292539E+01  0.53310469643E-01  0.42430822905E+01  0.80716599134E+01  0.51100000000E-03 0.  1.
        -12    1    3    3    0    0  0.14063279676E+02 -0.19179557929E+01 -0.28238214653E+02  0.31604606570E+02  0.00000000000E+00 0.  1.
</event>
<event>
 7    1  0.5487071E-013  0.5052885E+02  0.7816164E-02  0.1300439E+00
        -11   -1    0    0    0    0  0.00000000000E+00  0.00000000000E+00  0.45593999997E+02  0.45594000000E+02  0.51100000000E-03 0.  1.
         11   -1    0    0    0    0 -0.00000000000E+00 -0.00000000000E+00 -0.45593999997E+02  0.45594000000E+02  0.51100000000E-03 0. -1.
    9900012    2    1    2    0    0 -0.81993154344E+01  0.27955482632E+02 -0.28362445716E+02  0.50528854537E+02  0.29999983852E+02 0.  0.
        -12    1    1    2    0    0  0.81993154344E+01 -0.27955482632E+02  0.28362445716E+02  0.40659145463E+02  0.00000000000E+00 0.  1.
         11    1    3    3    0    0 -0.36614459680E+01  0.16964519973E+02 -0.31622407619E+02  0.36071842043E+02  0.51100000000E-03 0. -1.
        -11    1    3    3    0    0 -0.16217012477E+00  0.49694084645E+01 -0.19824332674E+01  0.53526966622E+01  0.51100000000E-03 0.  1.
        -12    1    3    3    0    0 -0.43756993416E+01  0.60215541944E+01  0.52423951708E+01  0.91043158321E+01  0.00000000000E+00 0.  1.
</event>
<event>
 7    1  0.5487071E-013  0.5052888E+02  0.7816164E-02  0.1300439E+00
        -11   -1    0    0    0    0  0.00000000000E+00  0.00000000000E+00  0.45593999997E+02  0.45594000000E+02  0.51100000000E-03 0.  1.
         11   -1    0    0    0    0 -0.00000000000E+00 -0.00000000000E+00 -0.45593999997E+02  0.45594000000E+02  0.51100000000E-03 0. -1.
    9900012    2    1    2    0    0  0.72674948078E+01 -0.22066554969E+02 -0.33367871383E+02  0.50528878396E+02  0.30000056373E+02 0.  0.
        -12    1    1    2    0    0 -0.72674948078E+01  0.22066554969E+02  0.33367871383E+02  0.40659121604E+02  0.00000000000E+00 0.  1.
         11    1    3    3    0    0  0.17170731824E+01 -0.16575495110E+02 -0.22269329943E+02  0.27813997102E+02  0.51100000000E-03 0. -1.
        -11    1    3    3    0    0 -0.18137444887E+01  0.33151026415E+01 -0.10567795736E+02  0.11223095900E+02  0.51100000000E-03 0.  1.
        -12    1    3    3    0    0  0.73641661141E+01 -0.88061625002E+01 -0.53074570359E+00  0.11491785394E+02  0.00000000000E+00 0.  1.
</event>
<event>
 7    1  0.5487071E-013  0.5052886E+02  0.7816164E-02  0.1300439E+00
        -11   -1    0    0    0    0  0.00000000000E+00  0.00000000000E+00  0.45593999997E+02  0.45594000000E+02  0.51100000000E-03 0.  1.
         11   -1    0    0    0    0 -0.00000000000E+00 -0.00000000000E+00 -0.45593999997E+02  0.45594000000E+02  0.51100000000E-03 0. -1.
    9900012    2    1    2    0    0  0.36122413066E+02 -0.17228063798E+02  0.71784952912E+01  0.50528859544E+02  0.29999999070E+02 0.  0.
        -12    1    1    2    0    0 -0.36122413066E+02  0.17228063798E+02 -0.71784952912E+01  0.40659140456E+02  0.00000000000E+00 0.  1.
         11    1    3    3    0    0  0.20441635573E+01  0.28152534588E+01 -0.24154701475E+01  0.42354165062E+01  0.51100000000E-03 0. -1.
        -11    1    3    3    0    0 -0.10365518105E+01  0.14623322979E+01  0.44487449927E+01  0.47962680989E+01  0.51100000000E-03 0.  1.
        -12    1    3    3    0    0  0.35114801319E+02 -0.21505649555E+02  0.51452204460E+01  0.41497174939E+02  0.00000000000E+00 0.  1.
</event>
<event>
 7    1  0.5487071E-013  0.5052884E+02  0.7816164E-02  0.1300439E+00
        -11   -1    0    0    0    0  0.00000000000E+00  0.00000000000E+00  0.45593999997E+02  0.45594000000E+02  0.51100000000E-03 0.  1.
         11   -1    0    0    0    0 -0.00000000000E+00 -0.00000000000E+00 -0.45593999997E+02  0.45594000000E+02  0.51100000000E-03 0. -1.
    9900012    2    1    2    0    0 -0.18505927380E+00 -0.20057268081E+02 -0.35367205065E+02  0.50528838131E+02  0.29999933981E+02 0.  0.
        -12    1    1    2    0    0  0.18505927380E+00  0.20057268081E+02  0.35367205065E+02  0.40659161869E+02  0.00000000000E+00 0.  1.
         11    1    3    3    0    0  0.45906665479E+01 -0.99565714480E+00 -0.48741554155E+01  0.67692646410E+01  0.51100000000E-03 0.  1.
        -11    1    3    3    0    0  0.42041908926E+01 -0.17365418371E+02 -0.81858953420E+01  0.19653036892E+02  0.51100000000E-03 0. -1.
        -12    1    3    3    0    0 -0.89799167142E+01 -0.16961925646E+01 -0.22307154308E+02  0.24106536598E+02  0.00000000000E+00 0.  1.
</event>
<event>
 7    1  0.5487071E-013  0.5052886E+02  0.7816164E-02  0.1300439E+00
        -11   -1    0    0    0    0  0.00000000000E+00  0.00000000000E+00  0.45593999997E+02  0.45594000000E+02  0.51100000000E-03 0.  1.
         11   -1    0    0    0    0 -0.00000000000E+00 -0.00000000000E+00 -0.45593999997E+02  0.45594000000E+02  0.51100000000E-03 0. -1.
    9900012    2    1    2    0    0 -0.17815081949E+02 -0.23934100623E+02 -0.27621504308E+02  0.50528858129E+02  0.29999994768E+02 0.  0.
        -12    1    1    2    0    0  0.17815081949E+02  0.23934100623E+02  0.27621504308E+02  0.40659141871E+02  0.00000000000E+00 0.  1.
         11    1    3    3    0    0 -0.13318632122E+02 -0.25677343954E+02 -0.16205743406E+02  0.33156267488E+02  0.51100000000E-03 0. -1.
        -11    1    3    3    0    0 -0.48416892768E+01 -0.36868375646E+01 -0.18378335756E+01  0.63570715580E+01  0.51100000000E-03 0.  1.
         12    1    3    3    0    0  0.34523945001E+00  0.54300808951E+01 -0.95779273261E+01  0.11015519083E+02  0.00000000000E+00 0. -1.
</event>
<event>
 7    1  0.5487071E-013  0.5052886E+02  0.7816164E-02  0.1300439E+00
        -11   -1    0    0    0    0  0.00000000000E+00  0.00000000000E+00  0.45593999997E+02  0.45594000000E+02  0.51100000000E-03 0. -1.
         11   -1    0    0    0    0 -0.00000000000E+00 -0.00000000000E+00 -0.45593999997E+02  0.45594000000E+02  0.51100000000E-03 0.  1.
    9900012    2    1    2    0    0  0.12323991456E+02 -0.77602319221E+01  0.37961341196E+02  0.50528863385E+02  0.30000010745E+02 0.  0.
        -12    1    1    2    0    0 -0.12323991456E+02  0.77602319221E+01 -0.37961341196E+02  0.40659136615E+02  0.00000000000E+00 0.  1.
         11    1    3    3    0    0  0.14113477014E+01 -0.13214593813E+01 -0.15559051190E+01  0.24817329089E+01  0.51100000000E-03 0. -1.
        -11    1    3    3    0    0  0.10158951495E+02 -0.83282696298E+01  0.59547093668E+01  0.14423000187E+02  0.51100000000E-03 0.  1.
         12    1    3    3    0    0  0.75369225995E+00  0.18894970890E+01  0.33562536948E+02  0.33624130289E+02  0.00000000000E+00 0. -1.
</event>
<event>
 7    1  0.5487071E-013  0.5052878E+02  0.7816164E-02  0.1300439E+00
        -11   -1    0    0    0    0  0.00000000000E+00  0.00000000000E+00  0.45593999997E+02  0.45594000000E+02  0.51100000000E-03 0.  1.
         11   -1    0    0    0    0 -0.00000000000E+00 -0.00000000000E+00 -0.45593999997E+02  0.45594000000E+02  0.51100000000E-03 0. -1.
    9900012    2    1    2    0    0 -0.12832234037E+02 -0.35926649645E+02 -0.14063492126E+02  0.50528779694E+02  0.29999756358E+02 0.  0.
        -12    1    1    2    0    0  0.12832234037E+02  0.35926649645E+02  0.14063492126E+02  0.40659220306E+02  0.00000000000E+00 0.  1.
         11    1    3    3    0    0  0.68139496653E+01 -0.55211775829E+01 -0.54597069731E+01  0.10330620138E+02  0.51100000000E-03 0.  1.
        -11    1    3    3    0    0 -0.76659719067E+01 -0.24024474302E+02 -0.25852039680E+01  0.25350064508E+02  0.51100000000E-03 0. -1.
        -12    1    3    3    0    0 -0.11980211795E+02 -0.63809977597E+01 -0.60185811851E+01  0.14848095048E+02  0.00000000000E+00 0.  1.
</event>
<event>
 7    1  0.5487071E-013  0.5052885E+02  0.7816164E-02  0.1300439E+00
        -11   -1    0    0    0    0  0.00000000000E+00  0.00000000000E+00  0.45593999997E+02  0.45594000000E+02  0.51100000000E-03 0. -1.
         11   -1    0    0    0    0 -0.00000000000E+00 -0.00000000000E+00 -0.45593999997E+02  0.45594000000E+02  0.51100000000E-03 0.  1.
    9900012    2    1    2    0    0 -0.15910419089E+02  0.30067387332E+02  0.22270549668E+02  0.50528848520E+02  0.29999965561E+02 0.  0.
        -12    1    1    2    0    0  0.15910419089E+02 -0.30067387332E+02 -0.22270549668E+02  0.40659151480E+02  0.00000000000E+00 0.  1.
         11    1    3    3    0    0 -0.82417295761E+01  0.23731976084E+02  0.87621975674E+01  0.26606557495E+02  0.51100000000E-03 0. -1.
        -11    1    3    3    0    0  0.13164126812E+01  0.89788324995E+01  0.23888783704E+01  0.93839818590E+01  0.51100000000E-03 0.  1.
        -12    1    3    3    0    0 -0.89851021944E+01 -0.26434212517E+01  0.11119473731E+02  0.14538309166E+02  0.00000000000E+00 0.  1.
</event>
<event>
 7    1  0.5487071E-013  0.5052884E+02  0.7816164E-02  0.1300439E+00
        -11   -1    0    0    0    0  0.00000000000E+00  0.00000000000E+00  0.45593999997E+02  0.45594000000E+02  0.51100000000E-03 0.  1.
         11   -1    0    0    0    0 -0.00000000000E+00 -0.00000000000E+00 -0.45593999997E+02  0.45594000000E+02  0.51100000000E-03 0. -1.
    9900012    2    1    2    0    0  0.61639149694E+01 -0.30423485495E+02 -0.26259945679E+02  0.50528842797E+02  0.29999948164E+02 0.  0.
        -12    1    1    2    0    0 -0.61639149694E+01  0.30423485495E+02  0.26259945679E+02  0.40659157203E+02  0.00000000000E+00 0.  1.
         11    1    3    3    0    0 -0.73497288615E+01 -0.34596555300E+01 -0.81381000683E+01  0.11498539199E+02  0.51100000000E-03 0. -1.
        -11    1    3    3    0    0  0.11477026774E+01 -0.91148736765E+01  0.20272724496E+01  0.94078678467E+01  0.51100000000E-03 0.  1.
         12    1    3    3    0    0  0.12365941154E+02 -0.17848956289E+02 -0.20149118061E+02  0.29622435751E+02  0.00000000000E+00 0. -1.
</event>
<event>
 7    1  0.5487071E-013  0.5052886E+02  0.7816164E-02  0.1300439E+00
        -11   -1    0    0    0    0  0.00000000000E+00  0.00000000000E+00  0.45593999997E+02  0.45594000000E+02  0.51100000000E-03 0.  1.
         11   -1    0    0    0    0 -0.00000000000E+00 -0.00000000000E+00 -0.45593999997E+02  0.45594000000E+02  0.51100000000E-03 0. -1.
    9900012    2    1    2    0    0  0.12993066540E+02  0.34392797024E+01 -0.38373391991E+02  0.50528860365E+02  0.30000001566E+02 0.  0.
        -12    1    1    2    0    0 -0.12993066540E+02 -0.34392797024E+01  0.38373391991E+02  0.40659139635E+02  0.00000000000E+00 0.  1.
         11    1    3    3    0    0  0.98624971463E+01  0.10652294194E+00 -0.12580399167E+02  0.15985826239E+02  0.51100000000E-03 0. -1.
        -11    1    3    3    0    0  0.52854513374E+00  0.11022769911E+02 -0.47984525943E+01  0.12033534976E+02  0.51100000000E-03 0.  1.
         12    1    3    3    0    0  0.26020242598E+01 -0.76900131503E+01 -0.20994540230E+02  0.22509499150E+02  0.00000000000E+00 0. -1.
</event>
<event>
 7    1  0.5487071E-013  0.5052890E+02  0.7816164E-02  0.1300439E+00
        -11   -1    0    0    0    0  0.00000000000E+00  0.00000000000E+00  0.45593999997E+02  0.45594000000E+02  0.51100000000E-03 0.  1.
         11   -1    0    0    0    0 -0.00000000000E+00 -0.00000000000E+00 -0.45593999997E+02  0.45594000000E+02  0.51100000000E-03 0. -1.
    9900012    2    1    2    0    0 -0.30303217736E+02  0.17479895318E+01 -0.27052207939E+02  0.50528899827E+02  0.30000121513E+02 0.  0.
        -12    1    1    2    0    0  0.30303217736E+02 -0.17479895318E+01  0.27052207939E+02  0.40659100173E+02  0.00000000000E+00 0.  1.
         11    1    3    3    0    0 -0.24972648913E+01  0.21653317082E+01 -0.75584398755E+01  0.82495458636E+01  0.51100000000E-03 0. -1.
        -11    1    3    3    0    0 -0.29512155301E-01 -0.62413295726E+01 -0.11013393945E+02  0.12658985435E+02  0.51100000000E-03 0.  1.
        -12    1    3    3    0    0 -0.27776440689E+02  0.58239873962E+01 -0.84803741191E+01  0.29620368528E+02  0.00000000000E+00 0.  1.
</event>
<event>
 7    1  0.5487071E-013  0.5052886E+02  0.7816164E-02  0.1300439E+00
        -11   -1    0    0    0    0  0.00000000000E+00  0.00000000000E+00  0.45593999997E+02  0.45594000000E+02  0.51100000000E-03 0. -1.
         11   -1    0    0    0    0 -0.00000000000E+00 -0.00000000000E+00 -0.45593999997E+02  0.45594000000E+02  0.51100000000E-03 0.  1.
    9900012    2    1    2    0    0  0.27716670579E+02 -0.23011326602E+02  0.18852868518E+02  0.50528860421E+02  0.30000001735E+02 0.  0.
        -12    1    1    2    0    0 -0.27716670579E+02  0.23011326602E+02 -0.18852868518E+02  0.40659139579E+02  0.00000000000E+00 0.  1.
         11    1    3    3    0    0  0.13929023840E+02 -0.13107378032E+02  0.10536808514E+02  0.21836790010E+02  0.51100000000E-03 0. -1.
        -11    1    3    3    0    0 -0.21507502520E+01 -0.11195828245E+02  0.24607091548E+01  0.11663077919E+02  0.51100000000E-03 0.  1.
        -12    1    3    3    0    0  0.15938396991E+02  0.12918796745E+01  0.58553508499E+01  0.17028992492E+02  0.00000000000E+00 0.  1.
</event>
<event>
 7    1  0.5487071E-013  0.5052886E+02  0.7816164E-02  0.1300439E+00
        -11   -1    0    0    0    0  0.00000000000E+00  0.00000000000E+00  0.45593999997E+02  0.45594000000E+02  0.51100000000E-03 0. -1.
         11   -1    0    0    0    0 -0.00000000000E+00 -0.00000000000E+00 -0.45593999997E+02  0.45594000000E+02  0.51100000000E-03 0.  1.
    9900012    2    1    2    0    0 -0.32487429709E+02  0.22138695701E+02  0.10373571428E+02  0.50528856863E+02  0.29999990922E+02 0.  0.
        -12    1    1    2    0    0  0.32487429709E+02 -0.22138695701E+02 -0.10373571428E+02  0.40659143137E+02  0.00000000000E+00 0.  1.
         11    1    3    3    0    0 -0.21156108349E+02  0.10077135875E+02  0.16396678216E+01  0.23490808814E+02  0.51100000000E-03 0. -1.
        -11    1    3    3    0    0 -0.87818756878E+01  0.41197799460E+01 -0.50431155459E+01  0.10932837787E+02  0.51100000000E-03 0.  1.
        -12    1    3    3    0    0 -0.25494456726E+01  0.79417798796E+01  0.13777019152E+02  0.16105210263E+02  0.00000000000E+00 0.  1.
</event>
<event>
 7    1  0.5487071E-013  0.5052886E+02  0.7816164E-02  0.1300439E+00
        -11   -1    0    0    0    0  0.00000000000E+00  0.00000000000E+00  0.45593999997E+02  0.45594000000E+02  0.51100000000E-03 0.  1.
         11   -1    0    0    0    0 -0.00000000000E+00 -0.00000000000E+00 -0.45593999997E+02  0.45594000000E+02  0.51100000000E-03 0. -1.
    9900012    2    1    2    0    0  0.29905490659E+02  0.13185062780E+02 -0.24186396339E+02  0.50528855641E+02  0.29999987208E+02 0.  0.
        -12    1    1    2    0    0 -0.29905490659E+02 -0.13185062780E+02  0.24186396339E+02  0.40659144359E+02  0.00000000000E+00 0.  1.
         11    1    3    3    0    0  0.13028372898E+01 -0.81493113700E+00 -0.21810449351E+01  0.26680432965E+01  0.51100000000E-03 0.  1.
        -11    1    3    3    0    0  0.18987543280E+02  0.22199047404E+02 -0.19078513288E+02  0.34890029736E+02  0.51100000000E-03 0. -1.
        -12    1    3    3    0    0  0.96151100893E+01 -0.81990534873E+01 -0.29268381167E+01  0.12970782609E+02  0.00000000000E+00 0.  1.
</event>
<event>
 7    1  0.5487071E-013  0.5052886E+02  0.7816164E-02  0.1300439E+00
        -11   -1    0    0    0    0  0.00000000000E+00  0.00000000000E+00  0.45593999997E+02  0.45594000000E+02  0.51100000000E-03 0.  1.
         11   -1    0    0    0    0 -0.00000000000E+00 -0.00000000000E+00 -0.45593999997E+02  0.45594000000E+02  0.51100000000E-03 0. -1.
    9900012    2    1    2    0    0 -0.29671051109E+02  0.24336458869E+02 -0.13436199616E+02  0.50528856326E+02  0.29999989288E+02 0.  0.
        -12    1    1    2    0    0  0.29671051109E+02 -0.24336458869E+02  0.13436199616E+02  0.40659143674E+02  0.00000000000E+00 0.  1.
         11    1    3    3    0    0 -0.15131280146E+02  0.14648691766E+01  0.57683388076E+01  0.16259619104E+02  0.51100000000E-03 0. -1.
        -11    1    3    3    0    0 -0.39262596637E+01  0.97898956713E+00 -0.29954682308E+01  0.50345571506E+01  0.51100000000E-03 0.  1.
        -12    1    3    3    0    0 -0.10613511300E+02  0.21892600126E+02 -0.16209070192E+02  0.29234680071E+02  0.00000000000E+00 0.  1.
</event>
<event>
 7    1  0.5487071E-013  0.5052886E+02  0.7816164E-02  0.1300439E+00
        -11   -1    0    0    0    0  0.00000000000E+00  0.00000000000E+00  0.45593999997E+02  0.45594000000E+02  0.51100000000E-03 0.  1.
         11   -1    0    0    0    0 -0.00000000000E+00 -0.00000000000E+00 -0.45593999997E+02  0.45594000000E+02  0.51100000000E-03 0. -1.
    9900012    2    1    2    0    0 -0.27072721632E+01 -0.39924411449E+02 -0.72026193094E+01  0.50528859858E+02  0.30000000025E+02 0.  0.
        -12    1    1    2    0    0  0.27072721632E+01  0.39924411449E+02  0.72026193094E+01  0.40659140142E+02  0.00000000000E+00 0.  1.
         11    1    3    3    0    0  0.48459749054E+01 -0.11583955316E+02 -0.34018637153E+01  0.13009387785E+02  0.51100000000E-03 0. -1.
        -11    1    3    3    0    0  0.50825063866E+01 -0.17328173354E+02  0.47934265774E+01  0.18683532898E+02  0.51100000000E-03 0.  1.
        -12    1    3    3    0    0 -0.12635753455E+02 -0.11012282779E+02 -0.85941821715E+01  0.18835939175E+02  0.00000000000E+00 0.  1.
</event>
<event>
 7    1  0.5487071E-013  0.5052886E+02  0.7816164E-02  0.1300439E+00
        -11   -1    0    0    0    0  0.00000000000E+00  0.00000000000E+00  0.45593999997E+02  0.45594000000E+02  0.51100000000E-03 0.  1.
         11   -1    0    0    0    0 -0.00000000000E+00 -0.00000000000E+00 -0.45593999997E+02  0.45594000000E+02  0.51100000000E-03 0. -1.
    9900012    2    1    2    0    0 -0.12571860310E+02 -0.11757329954E+02 -0.36835841085E+02  0.50528859973E+02  0.30000000374E+02 0.  0.
        -12    1    1    2    0    0  0.12571860310E+02  0.11757329954E+02  0.36835841085E+02  0.40659140027E+02  0.00000000000E+00 0.  1.
         11    1    3    3    0    0  0.15086233746E+01 -0.13432530302E+01  0.10459791620E+00  0.20226750047E+01  0.51100000000E-03 0. -1.
        -11    1    3    3    0    0 -0.67240005357E+01 -0.52436441992E+01  0.18178734821E+01  0.87185234960E+01  0.51100000000E-03 0.  1.
         12    1    3    3    0    0 -0.73564831492E+01 -0.51704327251E+01 -0.38758312483E+02  0.39787661472E+02  0.00000000000E+00 0. -1.
</event>
<event>
 7    1  0.5487071E-013  0.5052887E+02  0.7816164E-02  0.1300439E+00
        -11   -1    0    0    0    0  0.00000000000E+00  0.00000000000E+00  0.45593999997E+02  0.45594000000E+02  0.51100000000E-03 0.  1.
         11   -1    0    0    0    0 -0.00000000000E+00 -0.00000000000E+00 -0.45593999997E+02  0.45594000000E+02  0.51100000000E-03 0. -1.
    9900012    2    1    2    0    0  0.28676655561E+02 -0.11712474665E+02 -0.26336900703E+02  0.50528868485E+02  0.30000026247E+02 0.  0.
        -12    1    1    2    0    0 -0.28676655561E+02  0.11712474665E+02  0.26336900703E+02  0.40659131515E+02  0.00000000000E+00 0.  1.
         11    1    3    3    0    0  0.15785170927E+02 -0.13547638843E+02 -0.14607957359E+02  0.25418547517E+02  0.51100000000E-03 0. -1.
        -11    1    3    3    0    0  0.17307115447E+02 -0.43192417169E-01 -0.81854568344E+01  0.19145229550E+02  0.51100000000E-03 0.  1.
        -12    1    3    3    0    0 -0.44156308133E+01  0.18783565956E+01 -0.35434865098E+01  0.59650914180E+01  0.00000000000E+00 0.  1.
</event>
<event>
 7    1  0.5487071E-013  0.5052885E+02  0.7816164E-02  0.1300439E+00
        -11   -1    0    0    0    0  0.00000000000E+00  0.00000000000E+00  0.45593999997E+02  0.45594000000E+02  0.51100000000E-03 0. -1.
         11   -1    0    0    0    0 -0.00000000000E+00 -0.00000000000E+00 -0.45593999997E+02  0.45594000000E+02  0.51100000000E-03 0.  1.
    9900012    2    1    2    0    0  0.39592191956E+02 -0.50677209750E+01 -0.77422828471E+01  0.50528850926E+02  0.29999972874E+02 0.  0.
        -12    1    1    2    0    0 -0.39592191956E+02  0.50677209750E+01  0.77422828471E+01  0.40659149074E+02  0.00000000000E+00 0.  1.
         11    1    3    3    0    0  0.74279001160E+01  0.62744794497E+00  0.13237903217E+01  0.75709848853E+01  0.51100000000E-03 0. -1.
        -11    1    3    3    0    0 -0.15753789635E+01  0.27814880525E+01 -0.74789685035E+01  0.81334780262E+01  0.51100000000E-03 0.  1.
         12    1    3    3    0    0  0.33739670803E+02 -0.84766569725E+01 -0.15871046653E+01  0.34824388014E+02  0.00000000000E+00 0. -1.
</event>
<event>
 7    1  0.5487071E-013  0.5052886E+02  0.7816164E-02  0.1300439E+00
        -11   -1    0    0    0    0  0.00000000000E+00  0.00000000000E+00  0.45593999997E+02  0.45594000000E+02  0.51100000000E-03 0.  1.
         11   -1    0    0    0    0 -0.00000000000E+00 -0.00000000000E+00 -0.45593999997E+02  0.45594000000E+02  0.51100000000E-03 0. -1.
    9900012    2    1    2    0    0 -0.68464891595E+01  0.40078378678E+02  0.12064139477E+00  0.50528863196E+02  0.30000010171E+02 0.  0.
        -12    1    1    2    0    0  0.68464891595E+01 -0.40078378678E+02 -0.12064139477E+00  0.40659136804E+02  0.00000000000E+00 0.  1.
         11    1    3    3    0    0 -0.10642334308E+02  0.15047775547E+02  0.23807504008E+01  0.18583939333E+02  0.51100000000E-03 0. -1.
        -11    1    3    3    0    0 -0.55822482126E+01  0.17388134669E+02 -0.60972877852E+01  0.19253198202E+02  0.51100000000E-03 0.  1.
        -12    1    3    3    0    0  0.93780933606E+01  0.76424684621E+01  0.38371787792E+01  0.12691725661E+02  0.00000000000E+00 0.  1.
</event>
<event>
 7    1  0.5487071E-013  0.5052885E+02  0.7816164E-02  0.1300439E+00
        -11   -1    0    0    0    0  0.00000000000E+00  0.00000000000E+00  0.45593999997E+02  0.45594000000E+02  0.51100000000E-03 0.  1.
         11   -1    0    0    0    0 -0.00000000000E+00 -0.00000000000E+00 -0.45593999997E+02  0.45594000000E+02  0.51100000000E-03 0. -1.
    9900012    2    1    2    0    0  0.26472857530E+01  0.38979918963E+02 -0.11257191160E+02  0.50528849037E+02  0.29999967132E+02 0.  0.
        -12    1    1    2    0    0 -0.26472857530E+01 -0.38979918963E+02  0.11257191160E+02  0.40659150963E+02  0.00000000000E+00 0.  1.
         11    1    3    3    0    0  0.52754927088E+01  0.10147232072E+02 -0.14855919279E+02  0.18748212713E+02  0.51100000000E-03 0. -1.
        -11    1    3    3    0    0  0.94590049415E+00 -0.10244801343E+01  0.72964744301E+00  0.15737448785E+01  0.51100000000E-03 0.  1.
        -12    1    3    3    0    0 -0.35741074499E+01  0.29857167026E+02  0.28690806765E+01  0.30206891445E+02  0.00000000000E+00 0.  1.
</event>
<event>
 7    1  0.5487071E-013  0.5052886E+02  0.7816164E-02  0.1300439E+00
        -11   -1    0    0    0    0  0.00000000000E+00  0.00000000000E+00  0.45593999997E+02  0.45594000000E+02  0.51100000000E-03 0.  1.
         11   -1    0    0    0    0 -0.00000000000E+00 -0.00000000000E+00 -0.45593999997E+02  0.45594000000E+02  0.51100000000E-03 0. -1.
    9900012    2    1    2    0    0  0.17679434554E+02 -0.35897486094E+02  0.72093015457E+01  0.50528856590E+02  0.29999990092E+02 0.  0.
        -12    1    1    2    0    0 -0.17679434554E+02  0.35897486094E+02 -0.72093015457E+01  0.40659143410E+02  0.00000000000E+00 0.  1.
         11    1    3    3    0    0  0.53327272105E+01 -0.19094120718E+01  0.38241410787E+01  0.68343170261E+01  0.51100000000E-03 0. -1.
        -11    1    3    3    0    0  0.10480804410E+02 -0.19788748433E+01 -0.28280897391E+01  0.11034550220E+02  0.51100000000E-03 0.  1.
         12    1    3    3    0    0  0.18659029331E+01 -0.32009199179E+02  0.62132502061E+01  0.32659989344E+02  0.00000000000E+00 0. -1.
</event>
<event>
 7    1  0.5487071E-013  0.5052885E+02  0.7816164E-02  0.1300439E+00
        -11   -1    0    0    0    0  0.00000000000E+00  0.00000000000E+00  0.45593999997E+02  0.45594000000E+02  0.51100000000E-03 0. -1.
         11   -1    0    0    0    0 -0.00000000000E+00 -0.00000000000E+00 -0.45593999997E+02  0.45594000000E+02  0.51100000000E-03 0.  1.
    9900012    2    1    2    0    0 -0.37382734078E+02 -0.15148444343E+01  0.15918627963E+02  0.50528852480E+02  0.29999977599E+02 0.  0.
        -12    1    1    2    0    0  0.37382734078E+02  0.15148444343E+01 -0.15918627963E+02  0.40659147520E+02  0.00000000000E+00 0.  1.
         11    1    3    3    0    0 -0.15209938352E+02 -0.10803054183E+02  0.34255032351E+01  0.18967927590E+02  0.51100000000E-03 0. -1.
        -11    1    3    3    0    0 -0.69155971587E+01 -0.15348596829E+00 -0.32943583966E+01  0.76617125703E+01  0.51100000000E-03 0.  1.
        -12    1    3    3    0    0 -0.15257198567E+02  0.94416957175E+01  0.15787483124E+02  0.23899212320E+02  0.00000000000E+00 0.  1.
</event>
<event>
 7    1  0.5487071E-013  0.5052886E+02  0.7816164E-02  0.1300439E+00
        -11   -1    0    0    0    0  0.00000000000E+00  0.00000000000E+00  0.45593999997E+02  0.45594000000E+02  0.51100000000E-03 0.  1.
         11   -1    0    0    0    0 -0.00000000000E+00 -0.00000000000E+00 -0.45593999997E+02  0.45594000000E+02  0.51100000000E-03 0. -1.
    9900012    2    1    2    0    0  0.89202402590E+01 -0.39668539315E+02  0.44642480258E-01  0.50528859692E+02  0.29999999519E+02 0.  0.
        -12    1    1    2    0    0 -0.89202402590E+01  0.39668539315E+02 -0.44642480258E-01  0.40659140308E+02  0.00000000000E+00 0.  1.
         11    1    3    3    0    0  0.23740516117E+01 -0.11912909202E+02 -0.47697090389E+01  0.13050044110E+02  0.51100000000E-03 0. -1.
        -11    1    3    3    0    0  0.86476906098E+01 -0.26748105868E+02 -0.39703139152E+01  0.28390264410E+02  0.51100000000E-03 0.  1.
        -12    1    3    3    0    0 -0.21015019625E+01 -0.10075242450E+01  0.87846654343E+01  0.90885511714E+01  0.00000000000E+00 0.  1.
</event>
<event>
 7    1  0.5487071E-013  0.5052886E+02  0.7816164E-02  0.1300439E+00
        -11   -1    0    0    0    0  0.00000000000E+00  0.00000000000E+00  0.45593999997E+02  0.45594000000E+02  0.51100000000E-03 0.  1.
         11   -1    0    0    0    0 -0.00000000000E+00 -0.00000000000E+00 -0.45593999997E+02  0.45594000000E+02  0.51100000000E-03 0. -1.
    9900012    2    1    2    0    0 -0.24685629894E+02 -0.67778461044E+01 -0.31588708038E+02  0.50528855929E+02  0.29999988083E+02 0.  0.
        -12    1    1    2    0    0  0.24685629894E+02  0.67778461044E+01  0.31588708038E+02  0.40659144071E+02  0.00000000000E+00 0.  1.
         11    1    3    3    0    0 -0.68791368006E+01 -0.75084026990E+01 -0.15410824265E+02  0.18471387035E+02  0.51100000000E-03 0. -1.
        -11    1    3    3    0    0 -0.39739391379E+00 -0.79693229214E+01 -0.28655166790E+01  0.84781611124E+01  0.51100000000E-03 0.  1.
        -12    1    3    3    0    0 -0.17409099179E+02  0.86998795161E+01 -0.13312367093E+02  0.23579307782E+02  0.00000000000E+00 0.  1.
</event>
<event>
 7    1  0.5487071E-013  0.5052886E+02  0.7816164E-02  0.1300439E+00
        -11   -1    0    0    0    0  0.00000000000E+00  0.00000000000E+00  0.45593999997E+02  0.45594000000E+02  0.51100000000E-03 0.  1.
         11   -1    0    0    0    0 -0.00000000000E+00 -0.00000000000E+00 -0.45593999997E+02  0.45594000000E+02  0.51100000000E-03 0. -1.
    9900012    2    1    2    0    0  0.18189595170E+02  0.29917753121E+02 -0.20669608145E+02  0.50528855578E+02  0.29999987014E+02 0.  0.
        -12    1    1    2    0    0 -0.18189595170E+02 -0.29917753121E+02  0.20669608145E+02  0.40659144422E+02  0.00000000000E+00 0.  1.
         11    1    3    3    0    0 -0.14020759170E+01  0.66426054903E+00 -0.98173926913E+01  0.99392282634E+01  0.51100000000E-03 0. -1.
        -11    1    3    3    0    0  0.13004873026E+02  0.16602422482E+02  0.22664065013E+01  0.21210934760E+02  0.51100000000E-03 0.  1.
         12    1    3    3    0    0  0.65867980615E+01  0.12651070089E+02 -0.13118621955E+02  0.19378692554E+02  0.00000000000E+00 0. -1.
</event>
<event>
 7    1  0.5487071E-013  0.5052886E+02  0.7816164E-02  0.1300439E+00
        -11   -1    0    0    0    0  0.00000000000E+00  0.00000000000E+00  0.45593999997E+02  0.45594000000E+02  0.51100000000E-03 0.  1.
         11   -1    0    0    0    0 -0.00000000000E+00 -0.00000000000E+00 -0.45593999997E+02  0.45594000000E+02  0.51100000000E-03 0. -1.
    9900012    2    1    2    0    0 -0.21149658198E+02 -0.81262233324E+00 -0.34715953763E+02  0.50528857822E+02  0.29999993836E+02 0.  0.
        -12    1    1    2    0    0  0.21149658198E+02  0.81262233324E+00  0.34715953763E+02  0.40659142178E+02  0.00000000000E+00 0.  1.
         11    1    3    3    0    0 -0.12411578219E+02  0.33235384179E+01 -0.10194354930E+02  0.16401769850E+02  0.51100000000E-03 0. -1.
        -11    1    3    3    0    0 -0.12220230851E+02  0.47992824924E+01 -0.91265006843E+01  0.15989376770E+02  0.51100000000E-03 0.  1.
         12    1    3    3    0    0  0.34821508720E+01 -0.89354432435E+01 -0.15395098149E+02  0.18137711202E+02  0.00000000000E+00 0. -1.
</event>
<event>
 7    1  0.5487071E-013  0.5052890E+02  0.7816164E-02  0.1300439E+00
        -11   -1    0    0    0    0  0.00000000000E+00  0.00000000000E+00  0.45593999997E+02  0.45594000000E+02  0.51100000000E-03 0.  1.
         11   -1    0    0    0    0 -0.00000000000E+00 -0.00000000000E+00 -0.45593999997E+02  0.45594000000E+02  0.51100000000E-03 0. -1.
    9900012    2    1    2    0    0 -0.47449267213E+01  0.69061789277E+01 -0.39786338772E+02  0.50528900282E+02  0.30000122897E+02 0.  0.
        -12    1    1    2    0    0  0.47449267213E+01 -0.69061789277E+01  0.39786338772E+02  0.40659099718E+02  0.00000000000E+00 0.  1.
         11    1    3    3    0    0 -0.11573700859E+01 -0.49374263997E+01 -0.46190457058E+01  0.68595385021E+01  0.51100000000E-03 0. -1.
        -11    1    3    3    0    0  0.26460975774E+01 -0.50962220019E+01 -0.23279337857E+01  0.61961751955E+01  0.51100000000E-03 0.  1.
        -12    1    3    3    0    0 -0.62336542128E+01  0.16939827329E+02 -0.32839359281E+02  0.37473186584E+02  0.00000000000E+00 0.  1.
</event>
<event>
 7    1  0.5487071E-013  0.5052886E+02  0.7816164E-02  0.1300439E+00
        -11   -1    0    0    0    0  0.00000000000E+00  0.00000000000E+00  0.45593999997E+02  0.45594000000E+02  0.51100000000E-03 0.  1.
         11   -1    0    0    0    0 -0.00000000000E+00 -0.00000000000E+00 -0.45593999997E+02  0.45594000000E+02  0.51100000000E-03 0. -1.
    9900012    2    1    2    0    0 -0.34343887994E+02  0.13615681610E+02 -0.16978696888E+02  0.50528861098E+02  0.30000003794E+02 0.  0.
        -12    1    1    2    0    0  0.34343887994E+02 -0.13615681610E+02  0.16978696888E+02  0.40659138902E+02  0.00000000000E+00 0.  1.
         11    1    3    3    0    0 -0.34963702567E+01  0.19935198309E+01 -0.46497734857E+01  0.61497251985E+01  0.51100000000E-03 0. -1.
        -11    1    3    3    0    0 -0.45473925127E+00 -0.62447276574E+01 -0.57786607478E+01  0.85203480916E+01  0.51100000000E-03 0.  1.
         12    1    3    3    0    0 -0.30392778486E+02  0.17866889436E+02 -0.65502626544E+01  0.35858787808E+02  0.00000000000E+00 0. -1.
</event>
<event>
 7    1  0.5487071E-013  0.5052886E+02  0.7816164E-02  0.1300439E+00
        -11   -1    0    0    0    0  0.00000000000E+00  0.00000000000E+00  0.45593999997E+02  0.45594000000E+02  0.51100000000E-03 0.  1.
         11   -1    0    0    0    0 -0.00000000000E+00 -0.00000000000E+00 -0.45593999997E+02  0.45594000000E+02  0.51100000000E-03 0. -1.
    9900012    2    1    2    0    0 -0.34200591080E+02  0.21930438928E+02 -0.15940717165E+01  0.50528860235E+02  0.30000001169E+02 0.  0.
        -12    1    1    2    0    0  0.34200591080E+02 -0.21930438928E+02  0.15940717165E+01  0.40659139765E+02  0.00000000000E+00 0.  1.
         11    1    3    3    0    0 -0.35818722177E+01  0.10818391097E+01  0.54170012813E+01  0.65836226794E+01  0.51100000000E-03 0. -1.
        -11    1    3    3    0    0 -0.77255709471E+01  0.49906582212E+01  0.81043606432E+01  0.12258538968E+02  0.51100000000E-03 0.  1.
         12    1    3    3    0    0 -0.22893147915E+02  0.15857941598E+02 -0.15115433641E+02  0.31686698587E+02  0.00000000000E+00 0. -1.
</event>
<event>
 7    1  0.5487071E-013  0.5052886E+02  0.7816164E-02  0.1300439E+00
        -11   -1    0    0    0    0  0.00000000000E+00  0.00000000000E+00  0.45593999997E+02  0.45594000000E+02  0.51100000000E-03 0. -1.
         11   -1    0    0    0    0 -0.00000000000E+00 -0.00000000000E+00 -0.45593999997E+02  0.45594000000E+02  0.51100000000E-03 0.  1.
    9900012    2    1    2    0    0 -0.85808239538E+01  0.30342799323E+02  0.25668059277E+02  0.50528864772E+02  0.30000014960E+02 0.  0.
        -12    1    1    2    0    0  0.85808239538E+01 -0.30342799323E+02 -0.25668059277E+02  0.40659135228E+02  0.00000000000E+00 0.  1.
         11    1    3    3    0    0 -0.32797304420E+01  0.79593154473E+01  0.95668315762E+01  0.12869794125E+02  0.51100000000E-03 0. -1.
        -11    1    3    3    0    0 -0.14780459811E+02  0.95365695573E+01  0.11601760993E+02  0.21071521292E+02  0.51100000000E-03 0.  1.
         12    1    3    3    0    0  0.94793662989E+01  0.12846914319E+02  0.44994667074E+01  0.16587549355E+02  0.00000000000E+00 0. -1.
</event>
<event>
 7    1  0.5487071E-013  0.5052886E+02  0.7816164E-02  0.1300439E+00
        -11   -1    0    0    0    0  0.00000000000E+00  0.00000000000E+00  0.45593999997E+02  0.45594000000E+02  0.51100000000E-03 0.  1.
         11   -1    0    0    0    0 -0.00000000000E+00 -0.00000000000E+00 -0.45593999997E+02  0.45594000000E+02  0.51100000000E-03 0. -1.
    9900012    2    1    2    0    0 -0.22302630222E+02  0.17615830300E+02 -0.29076467302E+02  0.50528859051E+02  0.29999997571E+02 0.  0.
        -12    1    1    2    0    0  0.22302630222E+02 -0.17615830300E+02  0.29076467302E+02  0.40659140949E+02  0.00000000000E+00 0.  1.
         11    1    3    3    0    0  0.45697435389E+01  0.38755306737E+00  0.10751846710E+01  0.47104963358E+01  0.51100000000E-03 0. -1.
        -11    1    3    3    0    0  0.41420253205E+00  0.42685738074E+01 -0.35557994392E+01  0.55709959612E+01  0.51100000000E-03 0.  1.
         12    1    3    3    0    0 -0.27286576293E+02  0.12959703425E+02 -0.26595852534E+02  0.40247366754E+02  0.00000000000E+00 0. -1.
</event>
<event>
 7    1  0.5487071E-013  0.5052886E+02  0.7816164E-02  0.1300439E+00
        -11   -1    0    0    0    0  0.00000000000E+00  0.00000000000E+00  0.45593999997E+02  0.45594000000E+02  0.51100000000E-03 0.  1.
         11   -1    0    0    0    0 -0.00000000000E+00 -0.00000000000E+00 -0.45593999997E+02  0.45594000000E+02  0.51100000000E-03 0. -1.
    9900012    2    1    2    0    0  0.46973718646E+01  0.40373548755E+02 -0.10378147939E+01  0.50528858333E+02  0.29999995390E+02 0.  0.
        -12    1    1    2    0    0 -0.46973718646E+01 -0.40373548755E+02  0.10378147939E+01  0.40659141667E+02  0.00000000000E+00 0.  1.
         11    1    3    3    0    0  0.55437253270E+01  0.45147645256E+01 -0.54007138556E+01  0.89601171663E+01  0.51100000000E-03 0. -1.
        -11    1    3    3    0    0  0.13528456528E+01  0.58059103162E+01 -0.71516417258E+01  0.93104653801E+01  0.51100000000E-03 0.  1.
        -12    1    3    3    0    0 -0.21991991153E+01  0.30052873913E+02  0.11514540788E+02  0.32258275787E+02  0.00000000000E+00 0.  1.
</event>
<event>
 7    1  0.5487071E-013  0.5052886E+02  0.7816164E-02  0.1300439E+00
        -11   -1    0    0    0    0  0.00000000000E+00  0.00000000000E+00  0.45593999997E+02  0.45594000000E+02  0.51100000000E-03 0.  1.
         11   -1    0    0    0    0 -0.00000000000E+00 -0.00000000000E+00 -0.45593999997E+02  0.45594000000E+02  0.51100000000E-03 0. -1.
    9900012    2    1    2    0    0 -0.32965885342E+02 -0.20918048079E+02  0.11351258477E+02  0.50528863256E+02  0.30000010352E+02 0.  0.
        -12    1    1    2    0    0  0.32965885342E+02  0.20918048079E+02 -0.11351258477E+02  0.40659136744E+02  0.00000000000E+00 0.  1.
         11    1    3    3    0    0 -0.68967988370E+01 -0.93739489543E+01 -0.33864717544E+00  0.11642655855E+02  0.51100000000E-03 0. -1.
        -11    1    3    3    0    0 -0.33637006696E+01 -0.61319814029E+01 -0.63027070183E+01  0.94148709040E+01  0.51100000000E-03 0.  1.
        -12    1    3    3    0    0 -0.22705385835E+02 -0.54121177214E+01  0.17992612671E+02  0.29471336496E+02  0.00000000000E+00 0.  1.
</event>
<event>
 7    1  0.5487071E-013  0.5052886E+02  0.7816164E-02  0.1300439E+00
        -11   -1    0    0    0    0  0.00000000000E+00  0.00000000000E+00  0.45593999997E+02  0.45594000000E+02  0.51100000000E-03 0.  1.
         11   -1    0    0    0    0 -0.00000000000E+00 -0.00000000000E+00 -0.45593999997E+02  0.45594000000E+02  0.51100000000E-03 0. -1.
    9900012    2    1    2    0    0 -0.65779108924E+01 -0.25108637983E+02 -0.31296209360E+02  0.50528864085E+02  0.30000012872E+02 0.  0.
        -12    1    1    2    0    0  0.65779108924E+01  0.25108637983E+02  0.31296209360E+02  0.40659135915E+02  0.00000000000E+00 0.  1.
         11    1    3    3    0    0 -0.13152902292E+02 -0.18937860084E+02 -0.15769065827E+02  0.27933936718E+02  0.51100000000E-03 0.  1.
        -11    1    3    3    0    0 -0.34257423772E+01 -0.36829374919E+01 -0.92473737563E+01  0.10526806783E+02  0.51100000000E-03 0. -1.
        -12    1    3    3    0    0  0.10000733777E+02 -0.24878404069E+01 -0.62797697765E+01  0.12068120583E+02  0.00000000000E+00 0.  1.
</event>
<event>
 7    1  0.5487071E-013  0.5052885E+02  0.7816164E-02  0.1300439E+00
        -11   -1    0    0    0    0  0.00000000000E+00  0.00000000000E+00  0.45593999997E+02  0.45594000000E+02  0.51100000000E-03 0.  1.
         11   -1    0    0    0    0 -0.00000000000E+00 -0.00000000000E+00 -0.45593999997E+02  0.45594000000E+02  0.51100000000E-03 0. -1.
    9900012    2    1    2    0    0 -0.33979180530E+01  0.84570272807E+01 -0.39624476235E+02  0.50528852512E+02  0.29999977696E+02 0.  0.
        -12    1    1    2    0    0  0.33979180530E+01 -0.84570272807E+01  0.39624476235E+02  0.40659147488E+02  0.00000000000E+00 0.  1.
         11    1    3    3    0    0 -0.63679771229E+01  0.14658764329E+01 -0.28860157763E+02  0.29590684897E+02  0.51100000000E-03 0. -1.
        -11    1    3    3    0    0  0.32354855914E+01 -0.87257327277E+00 -0.12448563745E+02  0.12891721790E+02  0.51100000000E-03 0.  1.
         12    1    3    3    0    0 -0.26542652149E+00  0.78637241206E+01  0.16842452723E+01  0.80464458253E+01  0.00000000000E+00 0. -1.
</event>
<event>
 7    1  0.5487071E-013  0.5052872E+02  0.7816164E-02  0.1300439E+00
        -11   -1    0    0    0    0  0.00000000000E+00  0.00000000000E+00  0.45593999997E+02  0.45594000000E+02  0.51100000000E-03 0.  1.
         11   -1    0    0    0    0 -0.00000000000E+00 -0.00000000000E+00 -0.45593999997E+02  0.45594000000E+02  0.51100000000E-03 0. -1.
    9900012    2    1    2    0    0 -0.93517864007E+01  0.32941192637E+02 -0.21922562335E+02  0.50528722823E+02  0.29999583490E+02 0.  0.
        -12    1    1    2    0    0  0.93517864007E+01 -0.32941192637E+02  0.21922562335E+02  0.40659277177E+02  0.00000000000E+00 0.  1.
         11    1    3    3    0    0  0.98521162267E+00  0.51659057164E+01 -0.96669441196E+01  0.11004864047E+02  0.51100000000E-03 0. -1.
        -11    1    3    3    0    0 -0.11541104063E+02  0.21757247559E+01 -0.57843878067E+01  0.13091600504E+02  0.51100000000E-03 0.  1.
        -12    1    3    3    0    0  0.12041060395E+01  0.25599562164E+02 -0.64712304090E+01  0.26432258272E+02  0.00000000000E+00 0.  1.
</event>
<event>
 7    1  0.5487071E-013  0.5052886E+02  0.7816164E-02  0.1300439E+00
        -11   -1    0    0    0    0  0.00000000000E+00  0.00000000000E+00  0.45593999997E+02  0.45594000000E+02  0.51100000000E-03 0.  1.
         11   -1    0    0    0    0 -0.00000000000E+00 -0.00000000000E+00 -0.45593999997E+02  0.45594000000E+02  0.51100000000E-03 0. -1.
    9900012    2    1    2    0    0  0.21061869098E+02 -0.69323272800E+01 -0.34080875197E+02  0.50528861475E+02  0.30000004939E+02 0.  0.
        -12    1    1    2    0    0 -0.21061869098E+02  0.69323272800E+01  0.34080875197E+02  0.40659138525E+02  0.00000000000E+00 0.  1.
         11    1    3    3    0    0  0.70828366665E+01 -0.12181193740E+02 -0.24394549503E+02  0.28171654227E+02  0.51100000000E-03 0. -1.
        -11    1    3    3    0    0  0.62217344591E+01 -0.40800995499E+01 -0.11649044401E+01  0.75308827260E+01  0.51100000000E-03 0.  1.
        -12    1    3    3    0    0  0.77572979725E+01  0.93289660098E+01 -0.85214212535E+01  0.14826324522E+02  0.00000000000E+00 0.  1.
</event>
<event>
 7    1  0.5487071E-013  0.5052886E+02  0.7816164E-02  0.1300439E+00
        -11   -1    0    0    0    0  0.00000000000E+00  0.00000000000E+00  0.45593999997E+02  0.45594000000E+02  0.51100000000E-03 0.  1.
         11   -1    0    0    0    0 -0.00000000000E+00 -0.00000000000E+00 -0.45593999997E+02  0.45594000000E+02  0.51100000000E-03 0. -1.
    9900012    2    1    2    0    0  0.16341131001E+02  0.15452701349E+02 -0.33872511403E+02  0.50528861174E+02  0.30000004023E+02 0.  0.
        -12    1    1    2    0    0 -0.16341131001E+02 -0.15452701349E+02  0.33872511403E+02  0.40659138826E+02  0.00000000000E+00 0.  1.
         11    1    3    3    0    0  0.96322109882E+01  0.20117755827E+02 -0.17466929207E+02  0.28330146562E+02  0.51100000000E-03 0. -1.
        -11    1    3    3    0    0  0.43494723299E+01 -0.16020023070E+01  0.67676759821E+00  0.46842646790E+01  0.51100000000E-03 0.  1.
        -12    1    3    3    0    0  0.23594476830E+01 -0.30630521708E+01 -0.17082349794E+02  0.17514449933E+02  0.00000000000E+00 0.  1.
</event>
<event>
 7    1  0.5487071E-013  0.5052886E+02  0.7816164E-02  0.1300439E+00
        -11   -1    0    0    0    0  0.00000000000E+00  0.00000000000E+00  0.45593999997E+02  0.45594000000E+02  0.51100000000E-03 0. -1.
         11   -1    0    0    0    0 -0.00000000000E+00 -0.00000000000E+00 -0.45593999997E+02  0.45594000000E+02  0.51100000000E-03 0.  1.
    9900012    2    1    2    0    0  0.40468671767E+02  0.32432890386E+00 -0.39175078196E+01  0.50528862634E+02  0.30000008463E+02 0.  0.
        -12    1    1    2    0    0 -0.40468671767E+02 -0.32432890386E+00  0.39175078196E+01  0.40659137366E+02  0.00000000000E+00 0.  1.
         11    1    3    3    0    0  0.91314397331E+01  0.36317915586E+01 -0.95002623828E+00  0.98729758249E+01  0.51100000000E-03 0.  1.
        -11    1    3    3    0    0  0.20004396700E+02  0.50714167847E+01 -0.12041658627E+02  0.23893444672E+02  0.51100000000E-03 0. -1.
        -12    1    3    3    0    0  0.11332835334E+02 -0.83788794394E+01  0.90741770457E+01  0.16762442138E+02  0.00000000000E+00 0.  1.
</event>
<event>
 7    1  0.5487071E-013  0.5052886E+02  0.7816164E-02  0.1300439E+00
        -11   -1    0    0    0    0  0.00000000000E+00  0.00000000000E+00  0.45593999997E+02  0.45594000000E+02  0.51100000000E-03 0.  1.
         11   -1    0    0    0    0 -0.00000000000E+00 -0.00000000000E+00 -0.45593999997E+02  0.45594000000E+02  0.51100000000E-03 0. -1.
    9900012    2    1    2    0    0 -0.27789755347E+02  0.88548986435E+01 -0.28328188305E+02  0.50528856073E+02  0.29999988519E+02 0.  0.
        -12    1    1    2    0    0  0.27789755347E+02 -0.88548986435E+01  0.28328188305E+02  0.40659143927E+02  0.00000000000E+00 0.  1.
         11    1    3    3    0    0 -0.78872063043E+01 -0.78169991637E+00 -0.13733351509E+02  0.15856355886E+02  0.51100000000E-03 0. -1.
        -11    1    3    3    0    0 -0.14325112252E+02 -0.30311898920E+01 -0.14814543267E+02  0.20829489808E+02  0.51100000000E-03 0.  1.
         12    1    3    3    0    0 -0.55774367907E+01  0.12667788452E+02  0.21970647112E+00  0.13843010379E+02  0.00000000000E+00 0. -1.
</event>
<event>
 7    1  0.5487071E-013  0.5052887E+02  0.7816164E-02  0.1300439E+00
        -11   -1    0    0    0    0  0.00000000000E+00  0.00000000000E+00  0.45593999997E+02  0.45594000000E+02  0.51100000000E-03 0. -1.
         11   -1    0    0    0    0 -0.00000000000E+00 -0.00000000000E+00 -0.45593999997E+02  0.45594000000E+02  0.51100000000E-03 0.  1.
    9900012    2    1    2    0    0 -0.19971288801E+02 -0.33382807554E+02 -0.11827971111E+02  0.50528866744E+02  0.30000020954E+02 0.  0.
        -12    1    1    2    0    0  0.19971288801E+02  0.33382807554E+02  0.11827971111E+02  0.40659133256E+02  0.00000000000E+00 0.  1.
         11    1    3    3    0    0 -0.71326037564E+01 -0.17054645208E+02 -0.83220249173E+01  0.20272914406E+02  0.51100000000E-03 0. -1.
        -11    1    3    3    0    0 -0.16348747209E+02 -0.17682458571E+02 -0.70442090345E+01  0.25091268553E+02  0.51100000000E-03 0.  1.
        -12    1    3    3    0    0  0.35100621640E+01  0.13542962257E+01  0.35382628408E+01  0.51646837844E+01  0.00000000000E+00 0.  1.
</event>
<event>
 7    1  0.5487071E-013  0.5052884E+02  0.7816164E-02  0.1300439E+00
        -11   -1    0    0    0    0  0.00000000000E+00  0.00000000000E+00  0.45593999997E+02  0.45594000000E+02  0.51100000000E-03 0.  1.
         11   -1    0    0    0    0 -0.00000000000E+00 -0.00000000000E+00 -0.45593999997E+02  0.45594000000E+02  0.51100000000E-03 0. -1.
    9900012    2    1    2    0    0 -0.15460547202E+02 -0.19836523493E+02 -0.31947627990E+02  0.50528842135E+02  0.29999946154E+02 0.  0.
        -12    1    1    2    0    0  0.15460547202E+02  0.19836523493E+02  0.31947627990E+02  0.40659157865E+02  0.00000000000E+00 0.  1.
         11    1    3    3    0    0 -0.16974517877E+02 -0.11911650146E+02 -0.27513299488E+02  0.34452914468E+02  0.51100000000E-03 0. -1.
        -11    1    3    3    0    0 -0.33263656574E+01 -0.97230873748E+01 -0.26469959392E+01  0.10611772913E+02  0.51100000000E-03 0.  1.
        -12    1    3    3    0    0  0.48403363323E+01  0.17982140271E+01 -0.17873325629E+01  0.54641547551E+01  0.00000000000E+00 0.  1.
</event>
<event>
 7    1  0.5487071E-013  0.5052887E+02  0.7816164E-02  0.1300439E+00
        -11   -1    0    0    0    0  0.00000000000E+00  0.00000000000E+00  0.45593999997E+02  0.45594000000E+02  0.51100000000E-03 0. -1.
         11   -1    0    0    0    0 -0.00000000000E+00 -0.00000000000E+00 -0.45593999997E+02  0.45594000000E+02  0.51100000000E-03 0.  1.
    9900012    2    1    2    0    0 -0.36201703555E+02  0.17986008240E+02  0.43709396998E+01  0.50528868841E+02  0.30000027330E+02 0.  0.
        -12    1    1    2    0    0  0.36201703555E+02 -0.17986008240E+02 -0.43709396998E+01  0.40659131159E+02  0.00000000000E+00 0.  1.
         11    1    3    3    0    0 -0.12381078457E+02 -0.44485165350E+01 -0.71162546781E+01  0.14957322087E+02  0.51100000000E-03 0. -1.
        -11    1    3    3    0    0 -0.16196423538E+01  0.44395904841E+01  0.35534822736E+01  0.59127355388E+01  0.51100000000E-03 0.  1.
        -12    1    3    3    0    0 -0.22200982745E+02  0.17994934291E+02  0.79337121042E+01  0.29658811215E+02  0.00000000000E+00 0.  1.
</event>
<event>
 7    1  0.5487071E-013  0.5052885E+02  0.7816164E-02  0.1300439E+00
        -11   -1    0    0    0    0  0.00000000000E+00  0.00000000000E+00  0.45593999997E+02  0.45594000000E+02  0.51100000000E-03 0.  1.
         11   -1    0    0    0    0 -0.00000000000E+00 -0.00000000000E+00 -0.45593999997E+02  0.45594000000E+02  0.51100000000E-03 0. -1.
    9900012    2    1    2    0    0  0.14639578791E+02 -0.29377691595E+02 -0.23995842322E+02  0.50528849992E+02  0.29999970035E+02 0.  0.
        -12    1    1    2    0    0 -0.14639578791E+02  0.29377691595E+02  0.23995842322E+02  0.40659150008E+02  0.00000000000E+00 0.  1.
         11    1    3    3    0    0  0.16897045924E+01 -0.48663493136E+01  0.13393746006E+01  0.53226292219E+01  0.51100000000E-03 0. -1.
        -11    1    3    3    0    0 -0.14522413087E+01 -0.43759534853E+00  0.42037789624E+01  0.44690325949E+01  0.51100000000E-03 0.  1.
         12    1    3    3    0    0  0.14402115507E+02 -0.24073746933E+02 -0.29538995885E+02  0.40737188175E+02  0.00000000000E+00 0. -1.
</event>
<event>
 7    1  0.5487071E-013  0.5052886E+02  0.7816164E-02  0.1300439E+00
        -11   -1    0    0    0    0  0.00000000000E+00  0.00000000000E+00  0.45593999997E+02  0.45594000000E+02  0.51100000000E-03 0.  1.
         11   -1    0    0    0    0 -0.00000000000E+00 -0.00000000000E+00 -0.45593999997E+02  0.45594000000E+02  0.51100000000E-03 0. -1.
    9900012    2    1    2    0    0 -0.21522356141E+02  0.15762809792E+02 -0.30683671059E+02  0.50528860117E+02  0.30000000811E+02 0.  0.
        -12    1    1    2    0    0  0.21522356141E+02 -0.15762809792E+02  0.30683671059E+02  0.40659139883E+02  0.00000000000E+00 0.  1.
         11    1    3    3    0    0 -0.10320518951E+02  0.39412462312E+01 -0.44349040107E+01  0.11904407046E+02  0.51100000000E-03 0. -1.
        -11    1    3    3    0    0 -0.96118820961E+01  0.62679088703E+01  0.27562981728E+00  0.11478280842E+02  0.51100000000E-03 0.  1.
        -12    1    3    3    0    0 -0.15899550946E+01  0.55536546905E+01 -0.26524396865E+02  0.27146172229E+02  0.00000000000E+00 0.  1.
</event>
<event>
 7    1  0.5487071E-013  0.5052888E+02  0.7816164E-02  0.1300439E+00
        -11   -1    0    0    0    0  0.00000000000E+00  0.00000000000E+00  0.45593999997E+02  0.45594000000E+02  0.51100000000E-03 0. -1.
         11   -1    0    0    0    0 -0.00000000000E+00 -0.00000000000E+00 -0.45593999997E+02  0.45594000000E+02  0.51100000000E-03 0.  1.
    9900012    2    1    2    0    0  0.17255726874E+02 -0.36269054449E+02 -0.63213807805E+01  0.50528877093E+02  0.30000052412E+02 0.  0.
        -12    1    1    2    0    0 -0.17255726874E+02  0.36269054449E+02  0.63213807805E+01  0.40659122907E+02  0.00000000000E+00 0.  1.
         11    1    3    3    0    0  0.28814288834E+01 -0.23152459820E+02  0.24100534800E+01  0.23455220872E+02  0.51100000000E-03 0. -1.
        -11    1    3    3    0    0 -0.21144667477E+01 -0.57656168606E+01  0.15015541583E+01  0.63220228220E+01  0.51100000000E-03 0.  1.
        -12    1    3    3    0    0  0.16488764738E+02 -0.73509777686E+01 -0.10232988419E+02  0.20751633399E+02  0.00000000000E+00 0.  1.
</event>
<event>
 7    1  0.5487071E-013  0.5052886E+02  0.7816164E-02  0.1300439E+00
        -11   -1    0    0    0    0  0.00000000000E+00  0.00000000000E+00  0.45593999997E+02  0.45594000000E+02  0.51100000000E-03 0. -1.
         11   -1    0    0    0    0 -0.00000000000E+00 -0.00000000000E+00 -0.45593999997E+02  0.45594000000E+02  0.51100000000E-03 0.  1.
    9900012    2    1    2    0    0  0.19604229089E+01  0.34427180492E+02  0.21542793064E+02  0.50528856531E+02  0.29999989911E+02 0.  0.
        -12    1    1    2    0    0 -0.19604229089E+01 -0.34427180492E+02 -0.21542793064E+02  0.40659143469E+02  0.00000000000E+00 0.  1.
         11    1    3    3    0    0 -0.15139566212E-01 -0.12516592442E+01 -0.86071276942E+00  0.15191138215E+01  0.51100000000E-03 0. -1.
        -11    1    3    3    0    0  0.98306154868E+01  0.38416031885E+01  0.32970088617E+01  0.11057539672E+02  0.51100000000E-03 0.  1.
         12    1    3    3    0    0 -0.78550530117E+01  0.31837236548E+02  0.19106496972E+02  0.37952203037E+02  0.00000000000E+00 0. -1.
</event>
<event>
 7    1  0.5487071E-013  0.5052887E+02  0.7816164E-02  0.1300439E+00
        -11   -1    0    0    0    0  0.00000000000E+00  0.00000000000E+00  0.45593999997E+02  0.45594000000E+02  0.51100000000E-03 0.  1.
         11   -1    0    0    0    0 -0.00000000000E+00 -0.00000000000E+00 -0.45593999997E+02  0.45594000000E+02  0.51100000000E-03 0. -1.
    9900012    2    1    2    0    0 -0.24322662269E+01 -0.65199888114E+01 -0.40059193144E+02  0.50528866605E+02  0.30000020532E+02 0.  0.
        -12    1    1    2    0    0  0.24322662269E+01  0.65199888114E+01  0.40059193144E+02  0.40659133395E+02  0.00000000000E+00 0.  1.
         11    1    3    3    0    0 -0.39116697822E+01  0.19910460873E+01 -0.10168933146E+02  0.11075767540E+02  0.51100000000E-03 0. -1.
        -11    1    3    3    0    0 -0.96521798074E+01 -0.85667538571E+01 -0.22965498140E+02  0.26343271471E+02  0.51100000000E-03 0.  1.
        -12    1    3    3    0    0  0.11131583363E+02  0.55718958456E-01 -0.69247618573E+01  0.13109827594E+02  0.00000000000E+00 0.  1.
</event>
<event>
 7    1  0.5487071E-013  0.5052878E+02  0.7816164E-02  0.1300439E+00
        -11   -1    0    0    0    0  0.00000000000E+00  0.00000000000E+00  0.45593999997E+02  0.45594000000E+02  0.51100000000E-03 0. -1.
         11   -1    0    0    0    0 -0.00000000000E+00 -0.00000000000E+00 -0.45593999997E+02  0.45594000000E+02  0.51100000000E-03 0.  1.
    9900012    2    1    2    0    0  0.38278771238E+02  0.69775901315E+01 -0.11799207811E+02  0.50528777227E+02  0.29999748858E+02 0.  0.
        -12    1    1    2    0    0 -0.38278771238E+02 -0.69775901315E+01  0.11799207811E+02  0.40659222773E+02  0.00000000000E+00 0.  1.
         11    1    3    3    0    0  0.15311585576E+02 -0.42153851551E+00 -0.10512337068E+01  0.15353417865E+02  0.51100000000E-03 0. -1.
        -11    1    3    3    0    0  0.67105307027E+01 -0.76214590620E+01  0.84443579361E+00  0.10189746445E+02  0.51100000000E-03 0.  1.
        -12    1    3    3    0    0  0.16256654959E+02  0.15020587709E+02 -0.11592409898E+02  0.24985612917E+02  0.00000000000E+00 0.  1.
</event>
<event>
 7    1  0.5487071E-013  0.5052886E+02  0.7816164E-02  0.1300439E+00
        -11   -1    0    0    0    0  0.00000000000E+00  0.00000000000E+00  0.45593999997E+02  0.45594000000E+02  0.51100000000E-03 0. -1.
         11   -1    0    0    0    0 -0.00000000000E+00 -0.00000000000E+00 -0.45593999997E+02  0.45594000000E+02  0.51100000000E-03 0.  1.
    9900012    2    1    2    0    0 -0.15098376043E+02 -0.37630952047E+02  0.30193390020E+01  0.50528856882E+02  0.29999990978E+02 0.  0.
        -12    1    1    2    0    0  0.15098376043E+02  0.37630952047E+02 -0.30193390020E+01  0.40659143118E+02  0.00000000000E+00 0.  1.
         11    1    3    3    0    0 -0.18502258336E+02 -0.14568426298E+02  0.21688229203E+01  0.23649025381E+02  0.51100000000E-03 0. -1.
        -11    1    3    3    0    0 -0.19586514683E+01  0.11630045906E+00  0.23260158976E+01  0.30430562907E+01  0.51100000000E-03 0.  1.
        -12    1    3    3    0    0  0.53625337617E+01 -0.23178826208E+02 -0.14754998160E+01  0.23836775210E+02  0.00000000000E+00 0.  1.
</event>
<event>
 7    1  0.5487071E-013  0.5052886E+02  0.7816164E-02  0.1300439E+00
        -11   -1    0    0    0    0  0.00000000000E+00  0.00000000000E+00  0.45593999997E+02  0.45594000000E+02  0.51100000000E-03 0. -1.
         11   -1    0    0    0    0 -0.00000000000E+00 -0.00000000000E+00 -0.45593999997E+02  0.45594000000E+02  0.51100000000E-03 0.  1.
    9900012    2    1    2    0    0  0.27737589595E+02  0.29088614529E+02 -0.61354832752E+01  0.50528861706E+02  0.30000005641E+02 0.  0.
        -12    1    1    2    0    0 -0.27737589595E+02 -0.29088614529E+02  0.61354832752E+01  0.40659138294E+02  0.00000000000E+00 0.  1.
         11    1    3    3    0    0  0.68213698832E+01  0.17924262417E+02 -0.86342113825E+01  0.21032353096E+02  0.51100000000E-03 0. -1.
        -11    1    3    3    0    0 -0.87537413080E+00  0.67113358004E+01 -0.14106721172E+01  0.69136317648E+01  0.51100000000E-03 0.  1.
        -12    1    3    3    0    0  0.21791593843E+02  0.44530163117E+01  0.39094002245E+01  0.22582876845E+02  0.00000000000E+00 0.  1.
</event>
<event>
 7    1  0.5487071E-013  0.5052885E+02  0.7816164E-02  0.1300439E+00
        -11   -1    0    0    0    0  0.00000000000E+00  0.00000000000E+00  0.45593999997E+02  0.45594000000E+02  0.51100000000E-03 0.  1.
         11   -1    0    0    0    0 -0.00000000000E+00 -0.00000000000E+00 -0.45593999997E+02  0.45594000000E+02  0.51100000000E-03 0. -1.
    9900012    2    1    2    0    0 -0.12776434409E+02  0.38579873797E+02  0.12337918879E+01  0.50528853663E+02  0.29999981194E+02 0.  0.
        -12    1    1    2    0    0  0.12776434409E+02 -0.38579873797E+02 -0.12337918879E+01  0.40659146337E+02  0.00000000000E+00 0.  1.
         11    1    3    3    0    0 -0.11661115529E+01  0.42719307860E+01  0.11873904571E+01  0.45846597642E+01  0.51100000000E-03 0. -1.
        -11    1    3    3    0    0 -0.63009351667E+01  0.13424475922E+02  0.13901330376E+02  0.20326468563E+02  0.51100000000E-03 0.  1.
         12    1    3    3    0    0 -0.53093876894E+01  0.20883467089E+02 -0.13854928945E+02  0.25617725336E+02  0.00000000000E+00 0. -1.
</event>
<event>
 7    1  0.5487071E-013  0.5052889E+02  0.7816164E-02  0.1300439E+00
        -11   -1    0    0    0    0  0.00000000000E+00  0.00000000000E+00  0.45593999997E+02  0.45594000000E+02  0.51100000000E-03 0.  1.
         11   -1    0    0    0    0 -0.00000000000E+00 -0.00000000000E+00 -0.45593999997E+02  0.45594000000E+02  0.51100000000E-03 0. -1.
    9900012    2    1    2    0    0 -0.16972815330E+02 -0.27068987202E+02 -0.25146705511E+02  0.50528888765E+02  0.30000087890E+02 0.  0.
        -12    1    1    2    0    0  0.16972815330E+02  0.27068987202E+02  0.25146705511E+02  0.40659111235E+02  0.00000000000E+00 0.  1.
         11    1    3    3    0    0 -0.21776002566E+02 -0.14460281460E+02 -0.18657387898E+02  0.32115294660E+02  0.51100000000E-03 0. -1.
        -11    1    3    3    0    0 -0.29768519422E+01 -0.31243519254E+01 -0.40254804644E+01  0.59015011370E+01  0.51100000000E-03 0.  1.
        -12    1    3    3    0    0  0.77800391784E+01 -0.94843538167E+01 -0.24638371481E+01  0.12512092968E+02  0.00000000000E+00 0.  1.
</event>
<event>
 7    1  0.5487071E-013  0.5052886E+02  0.7816164E-02  0.1300439E+00
        -11   -1    0    0    0    0  0.00000000000E+00  0.00000000000E+00  0.45593999997E+02  0.45594000000E+02  0.51100000000E-03 0. -1.
         11   -1    0    0    0    0 -0.00000000000E+00 -0.00000000000E+00 -0.45593999997E+02  0.45594000000E+02  0.51100000000E-03 0.  1.
    9900012    2    1    2    0    0 -0.31655234695E+02  0.17131549173E+02 -0.18910896202E+02  0.50528857660E+02  0.29999993344E+02 0.  0.
        -12    1    1    2    0    0  0.31655234695E+02 -0.17131549173E+02  0.18910896202E+02  0.40659142340E+02  0.00000000000E+00 0.  1.
         11    1    3    3    0    0 -0.19434848759E+02  0.26619178159E+01 -0.10468218706E+02  0.22234719604E+02  0.51100000000E-03 0. -1.
        -11    1    3    3    0    0 -0.15884880262E+02  0.64524500213E+01 -0.17660887166E+01  0.17236084295E+02  0.51100000000E-03 0.  1.
        -12    1    3    3    0    0  0.36644943265E+01  0.80171813359E+01 -0.66765887797E+01  0.11058053761E+02  0.00000000000E+00 0.  1.
</event>
<event>
 7    1  0.5487071E-013  0.5052885E+02  0.7816164E-02  0.1300439E+00
        -11   -1    0    0    0    0  0.00000000000E+00  0.00000000000E+00  0.45593999997E+02  0.45594000000E+02  0.51100000000E-03 0.  1.
         11   -1    0    0    0    0 -0.00000000000E+00 -0.00000000000E+00 -0.45593999997E+02  0.45594000000E+02  0.51100000000E-03 0. -1.
    9900012    2    1    2    0    0 -0.28407196895E+02  0.29599420532E+01 -0.28938491931E+02  0.50528850874E+02  0.29999972717E+02 0.  0.
        -12    1    1    2    0    0  0.28407196895E+02 -0.29599420532E+01  0.28938491931E+02  0.40659149126E+02  0.00000000000E+00 0.  1.
         11    1    3    3    0    0 -0.10762366750E+02 -0.24857347294E+01 -0.13587296915E+01  0.11128951516E+02  0.51100000000E-03 0.  1.
        -11    1    3    3    0    0 -0.20759346553E+02 -0.23537505442E+00 -0.16312352067E+02  0.26402626782E+02  0.51100000000E-03 0. -1.
         12    1    3    3    0    0  0.31145164086E+01  0.56810518370E+01 -0.11267410172E+02  0.12997272576E+02  0.00000000000E+00 0. -1.
</event>
<event>
 7    1  0.5487071E-013  0.5052886E+02  0.7816164E-02  0.1300439E+00
        -11   -1    0    0    0    0  0.00000000000E+00  0.00000000000E+00  0.45593999997E+02  0.45594000000E+02  0.51100000000E-03 0. -1.
         11   -1    0    0    0    0 -0.00000000000E+00 -0.00000000000E+00 -0.45593999997E+02  0.45594000000E+02  0.51100000000E-03 0.  1.
    9900012    2    1    2    0    0 -0.11025100022E+02  0.37067821854E+02  0.12553476691E+02  0.50528855586E+02  0.29999987039E+02 0.  0.
        -12    1    1    2    0    0  0.11025100022E+02 -0.37067821854E+02 -0.12553476691E+02  0.40659144414E+02  0.00000000000E+00 0.  1.
         11    1    3    3    0    0  0.12127988505E+00  0.23534373824E+01 -0.42302073714E+01  0.48423166965E+01  0.51100000000E-03 0. -1.
        -11    1    3    3    0    0  0.20410795307E+01  0.46335726184E+01 -0.43122044371E+01  0.66506472038E+01  0.51100000000E-03 0.  1.
         12    1    3    3    0    0 -0.13187459437E+02  0.30080811853E+02  0.21095888499E+02  0.39035891686E+02  0.00000000000E+00 0. -1.
</event>
<event>
 7    1  0.5487071E-013  0.5052887E+02  0.7816164E-02  0.1300439E+00
        -11   -1    0    0    0    0  0.00000000000E+00  0.00000000000E+00  0.45593999997E+02  0.45594000000E+02  0.51100000000E-03 0.  1.
         11   -1    0    0    0    0 -0.00000000000E+00 -0.00000000000E+00 -0.45593999997E+02  0.45594000000E+02  0.51100000000E-03 0. -1.
    9900012    2    1    2    0    0 -0.28321667712E+02  0.23875743935E+02 -0.16762957590E+02  0.50528871165E+02  0.30000034393E+02 0.  0.
        -12    1    1    2    0    0  0.28321667712E+02 -0.23875743935E+02  0.16762957590E+02  0.40659128835E+02  0.00000000000E+00 0.  1.
         11    1    3    3    0    0  0.15478872467E+01 -0.72417772300E+00 -0.26283241515E+01  0.31350400970E+01  0.51100000000E-03 0. -1.
        -11    1    3    3    0    0 -0.16405137184E+02  0.99674882787E+00  0.67008018085E+00  0.16449043801E+02  0.51100000000E-03 0.  1.
        -12    1    3    3    0    0 -0.13464417775E+02  0.23603172830E+02 -0.14804713619E+02  0.30944787267E+02  0.00000000000E+00 0.  1.
</event>
<event>
 7    1  0.5487071E-013  0.5052888E+02  0.7816164E-02  0.1300439E+00
        -11   -1    0    0    0    0  0.00000000000E+00  0.00000000000E+00  0.45593999997E+02  0.45594000000E+02  0.51100000000E-03 0. -1.
         11   -1    0    0    0    0 -0.00000000000E+00 -0.00000000000E+00 -0.45593999997E+02  0.45594000000E+02  0.51100000000E-03 0.  1.
    9900012    2    1    2    0    0 -0.38441193112E+02 -0.16969171017E+01  0.13136178558E+02  0.50528879957E+02  0.30000061118E+02 0.  0.
        -12    1    1    2    0    0  0.38441193112E+02  0.16969171017E+01 -0.13136178558E+02  0.40659120043E+02  0.00000000000E+00 0.  1.
         11    1    3    3    0    0 -0.11770233562E+02  0.42127943910E+01 -0.13608079095E+01  0.12575286602E+02  0.51100000000E-03 0. -1.
        -11    1    3    3    0    0 -0.19450101330E+01  0.23530256491E+01 -0.46816201515E+01  0.55890394190E+01  0.51100000000E-03 0.  1.
         12    1    3    3    0    0 -0.24725949417E+02 -0.82627371418E+01  0.19178606619E+02  0.32364553936E+02  0.00000000000E+00 0. -1.
</event>
<event>
 7    1  0.5487071E-013  0.5052886E+02  0.7816164E-02  0.1300439E+00
        -11   -1    0    0    0    0  0.00000000000E+00  0.00000000000E+00  0.45593999997E+02  0.45594000000E+02  0.51100000000E-03 0.  1.
         11   -1    0    0    0    0 -0.00000000000E+00 -0.00000000000E+00 -0.45593999997E+02  0.45594000000E+02  0.51100000000E-03 0. -1.
    9900012    2    1    2    0    0  0.31998224768E+02  0.20531285688E+02 -0.14413390182E+02  0.50528857155E+02  0.29999991808E+02 0.  0.
        -12    1    1    2    0    0 -0.31998224768E+02 -0.20531285688E+02  0.14413390182E+02  0.40659142845E+02  0.00000000000E+00 0.  1.
         11    1    3    3    0    0  0.13590762112E+02  0.10357323568E+02 -0.34728662470E+01  0.17436850820E+02  0.51100000000E-03 0.  1.
        -11    1    3    3    0    0  0.23372064775E+02  0.10546715148E+02 -0.11460965606E+02  0.28086301735E+02  0.51100000000E-03 0. -1.
        -12    1    3    3    0    0 -0.49646021183E+01 -0.37275302795E+00  0.52044167083E+00  0.50057046004E+01  0.00000000000E+00 0.  1.
</event>
<event>
 7    1  0.5487071E-013  0.5052886E+02  0.7816164E-02  0.1300439E+00
        -11   -1    0    0    0    0  0.00000000000E+00  0.00000000000E+00  0.45593999997E+02  0.45594000000E+02  0.51100000000E-03 0. -1.
         11   -1    0    0    0    0 -0.00000000000E+00 -0.00000000000E+00 -0.45593999997E+02  0.45594000000E+02  0.51100000000E-03 0.  1.
    9900012    2    1    2    0    0  0.21140998765E+02  0.32769566130E+02 -0.11505629613E+02  0.50528858274E+02  0.29999995210E+02 0.  0.
        -12    1    1    2    0    0 -0.21140998765E+02 -0.32769566130E+02  0.11505629613E+02  0.40659141726E+02  0.00000000000E+00 0.  1.
         11    1    3    3    0    0 -0.15151484762E+01 -0.39816298476E+00  0.43360418645E+01  0.46103652761E+01  0.51100000000E-03 0. -1.
        -11    1    3    3    0    0  0.15235463075E+01 -0.16333217219E+01 -0.91424846898E-02  0.22336107638E+01  0.51100000000E-03 0.  1.
         12    1    3    3    0    0  0.21132600933E+02  0.34801050836E+02 -0.15832528992E+02  0.43684882234E+02  0.00000000000E+00 0. -1.
</event>
<event>
 7    1  0.5487071E-013  0.5052886E+02  0.7816164E-02  0.1300439E+00
        -11   -1    0    0    0    0  0.00000000000E+00  0.00000000000E+00  0.45593999997E+02  0.45594000000E+02  0.51100000000E-03 0.  1.
         11   -1    0    0    0    0 -0.00000000000E+00 -0.00000000000E+00 -0.45593999997E+02  0.45594000000E+02  0.51100000000E-03 0. -1.
    9900012    2    1    2    0    0  0.16135066622E+02  0.14156695706E+02 -0.34531337077E+02  0.50528860209E+02  0.30000001091E+02 0.  0.
        -12    1    1    2    0    0 -0.16135066622E+02 -0.14156695706E+02  0.34531337077E+02  0.40659139791E+02  0.00000000000E+00 0.  1.
         11    1    3    3    0    0  0.22576014897E+01  0.94519402163E+00  0.28735968764E+01  0.37746146153E+01  0.51100000000E-03 0.  1.
        -11    1    3    3    0    0  0.74905424138E+01  0.15259140868E+02 -0.12875466792E+02  0.21324334716E+02  0.51100000000E-03 0. -1.
         12    1    3    3    0    0  0.63869227187E+01 -0.20476391840E+01 -0.24529467161E+02  0.25429910878E+02  0.00000000000E+00 0. -1.
</event>
<event>
 7    1  0.5487071E-013  0.5052886E+02  0.7816164E-02  0.1300439E+00
        -11   -1    0    0    0    0  0.00000000000E+00  0.00000000000E+00  0.45593999997E+02  0.45594000000E+02  0.51100000000E-03 0. -1.
         11   -1    0    0    0    0 -0.00000000000E+00 -0.00000000000E+00 -0.45593999997E+02  0.45594000000E+02  0.51100000000E-03 0.  1.
    9900012    2    1    2    0    0  0.23420252501E+02 -0.23638592931E+02  0.23363952915E+02  0.50528860821E+02  0.30000002953E+02 0.  0.
        -12    1    1    2    0    0 -0.23420252501E+02  0.23638592931E+02 -0.23363952915E+02  0.40659139179E+02  0.00000000000E+00 0.  1.
         11    1    3    3    0    0 -0.35400353998E+01  0.10861168454E+01  0.25286430557E+01  0.44839197582E+01  0.51100000000E-03 0. -1.
        -11    1    3    3    0    0 -0.14166930026E+00 -0.20570149541E+01 -0.28434269984E+01  0.35123294362E+01  0.51100000000E-03 0.  1.
         12    1    3    3    0    0  0.27101957201E+02 -0.22667694822E+02  0.23678736858E+02  0.42532611627E+02  0.00000000000E+00 0. -1.
</event>
<event>
 7    1  0.5487071E-013  0.5052886E+02  0.7816164E-02  0.1300439E+00
        -11   -1    0    0    0    0  0.00000000000E+00  0.00000000000E+00  0.45593999997E+02  0.45594000000E+02  0.51100000000E-03 0.  1.
         11   -1    0    0    0    0 -0.00000000000E+00 -0.00000000000E+00 -0.45593999997E+02  0.45594000000E+02  0.51100000000E-03 0. -1.
    9900012    2    1    2    0    0  0.80289270032E+01  0.16391299839E+02 -0.36332181963E+02  0.50528858034E+02  0.29999994480E+02 0.  0.
        -12    1    1    2    0    0 -0.80289270032E+01 -0.16391299839E+02  0.36332181963E+02  0.40659141966E+02  0.00000000000E+00 0.  1.
         11    1    3    3    0    0 -0.13586988556E+01  0.17233234032E+01  0.24562030214E+01  0.32937576832E+01  0.51100000000E-03 0. -1.
        -11    1    3    3    0    0  0.61782411622E+01 -0.32575170843E+00 -0.76188910328E+00  0.62335586385E+01  0.51100000000E-03 0.  1.
         12    1    3    3    0    0  0.32093846966E+01  0.14993728144E+02 -0.38026495881E+02  0.41001541712E+02  0.00000000000E+00 0. -1.
</event>
<event>
 7    1  0.5487071E-013  0.5052888E+02  0.7816164E-02  0.1300439E+00
        -11   -1    0    0    0    0  0.00000000000E+00  0.00000000000E+00  0.45593999997E+02  0.45594000000E+02  0.51100000000E-03 0. -1.
         11   -1    0    0    0    0 -0.00000000000E+00 -0.00000000000E+00 -0.45593999997E+02  0.45594000000E+02  0.51100000000E-03 0.  1.
    9900012    2    1    2    0    0 -0.35232058812E+02 -0.16617581614E+02  0.11649978812E+02  0.50528880566E+02  0.30000062970E+02 0.  0.
        -12    1    1    2    0    0  0.35232058812E+02  0.16617581614E+02 -0.11649978812E+02  0.40659119434E+02  0.00000000000E+00 0.  1.
         11    1    3    3    0    0 -0.10502327505E+02  0.69108425316E+01 -0.15831269732E+01  0.12671421340E+02  0.51100000000E-03 0. -1.
        -11    1    3    3    0    0 -0.31954712368E+00  0.76076056212E+00  0.10381326360E+01  0.13261171246E+01  0.51100000000E-03 0.  1.
        -12    1    3    3    0    0 -0.24410184183E+02 -0.24289184707E+02  0.12194973149E+02  0.36531342101E+02  0.00000000000E+00 0.  1.
</event>
<event>
 7    1  0.5487071E-013  0.5052886E+02  0.7816164E-02  0.1300439E+00
        -11   -1    0    0    0    0  0.00000000000E+00  0.00000000000E+00  0.45593999997E+02  0.45594000000E+02  0.51100000000E-03 0. -1.
         11   -1    0    0    0    0 -0.00000000000E+00 -0.00000000000E+00 -0.45593999997E+02  0.45594000000E+02  0.51100000000E-03 0.  1.
    9900012    2    1    2    0    0 -0.47426461382E+01  0.38948623527E+02  0.10661983596E+02  0.50528857593E+02  0.29999993141E+02 0.  0.
        -12    1    1    2    0    0  0.47426461382E+01 -0.38948623527E+02 -0.10661983596E+02  0.40659142407E+02  0.00000000000E+00 0.  1.
         11    1    3    3    0    0 -0.62629670907E+01  0.28651625398E+02  0.76828568160E+01  0.30317761854E+02  0.51100000000E-03 0. -1.
        -11    1    3    3    0    0 -0.22843711303E+01  0.13403681665E+02 -0.13498521679E+01  0.13663789180E+02  0.51100000000E-03 0.  1.
        -12    1    3    3    0    0  0.38046920827E+01 -0.31066835363E+01  0.43289789480E+01  0.65473065585E+01  0.00000000000E+00 0.  1.
</event>
<event>
 7    1  0.5487071E-013  0.5052886E+02  0.7816164E-02  0.1300439E+00
        -11   -1    0    0    0    0  0.00000000000E+00  0.00000000000E+00  0.45593999997E+02  0.45594000000E+02  0.51100000000E-03 0.  1.
         11   -1    0    0    0    0 -0.00000000000E+00 -0.00000000000E+00 -0.45593999997E+02  0.45594000000E+02  0.51100000000E-03 0. -1.
    9900012    2    1    2    0    0 -0.17453665298E+01  0.12214288065E+02 -0.38741843960E+02  0.50528860675E+02  0.30000002508E+02 0.  0.
        -12    1    1    2    0    0  0.17453665298E+01 -0.12214288065E+02  0.38741843960E+02  0.40659139325E+02  0.00000000000E+00 0.  1.
         11    1    3    3    0    0 -0.24418453695E+00  0.29003402250E+01 -0.36349655030E+01  0.46566698378E+01  0.51100000000E-03 0. -1.
        -11    1    3    3    0    0  0.47000548551E+01 -0.35287321027E+01  0.19286711297E+01  0.61856477818E+01  0.51100000000E-03 0.  1.
        -12    1    3    3    0    0 -0.62012368479E+01  0.12842679943E+02 -0.37035549586E+02  0.39686543056E+02  0.00000000000E+00 0.  1.
</event>
<event>
 7    1  0.5487071E-013  0.5052886E+02  0.7816164E-02  0.1300439E+00
        -11   -1    0    0    0    0  0.00000000000E+00  0.00000000000E+00  0.45593999997E+02  0.45594000000E+02  0.51100000000E-03 0.  1.
         11   -1    0    0    0    0 -0.00000000000E+00 -0.00000000000E+00 -0.45593999997E+02  0.45594000000E+02  0.51100000000E-03 0. -1.
    9900012    2    1    2    0    0 -0.20951849088E+02  0.32858847305E+02 -0.11596630312E+02  0.50528860055E+02  0.30000000625E+02 0.  0.
        -12    1    1    2    0    0  0.20951849088E+02 -0.32858847305E+02  0.11596630312E+02  0.40659139945E+02  0.00000000000E+00 0.  1.
         11    1    3    3    0    0 -0.15800249482E+02  0.11813655926E+02 -0.10010479079E+02  0.22122839820E+02  0.51100000000E-03 0. -1.
        -11    1    3    3    0    0 -0.66300154312E+01  0.80614882578E+01 -0.86457858590E+01  0.13553387434E+02  0.51100000000E-03 0.  1.
        -12    1    3    3    0    0  0.14784158251E+01  0.12983703122E+02  0.70596346259E+01  0.14852632802E+02  0.00000000000E+00 0.  1.
</event>
<event>
 7    1  0.5487071E-013  0.5052887E+02  0.7816164E-02  0.1300439E+00
        -11   -1    0    0    0    0  0.00000000000E+00  0.00000000000E+00  0.45593999997E+02  0.45594000000E+02  0.51100000000E-03 0.  1.
         11   -1    0    0    0    0 -0.00000000000E+00 -0.00000000000E+00 -0.45593999997E+02  0.45594000000E+02  0.51100000000E-03 0. -1.
    9900012    2    1    2    0    0  0.36367749028E+02  0.18143880586E+02 -0.11623801295E+01  0.50528871878E+02  0.30000036560E+02 0.  0.
        -12    1    1    2    0    0 -0.36367749028E+02 -0.18143880586E+02  0.11623801295E+01  0.40659128122E+02  0.00000000000E+00 0.  1.
         11    1    3    3    0    0  0.79044853823E+01  0.56594438940E+01 -0.87030675137E+01  0.13048125488E+02  0.51100000000E-03 0.  1.
        -11    1    3    3    0    0 -0.14139441360E+01  0.54817930443E+01 -0.70607062705E+00  0.57050704633E+01  0.51100000000E-03 0. -1.
         12    1    3    3    0    0  0.29877207782E+02  0.70026436474E+01  0.82467580113E+01  0.31775675926E+02  0.00000000000E+00 0. -1.
</event>
<event>
 7    1  0.5487071E-013  0.5052887E+02  0.7816164E-02  0.1300439E+00
        -11   -1    0    0    0    0  0.00000000000E+00  0.00000000000E+00  0.45593999997E+02  0.45594000000E+02  0.51100000000E-03 0. -1.
         11   -1    0    0    0    0 -0.00000000000E+00 -0.00000000000E+00 -0.45593999997E+02  0.45594000000E+02  0.51100000000E-03 0.  1.
    9900012    2    1    2    0    0  0.31707553626E+02  0.25364256519E+02 -0.21095904262E+01  0.50528870183E+02  0.30000031408E+02 0.  0.
        -12    1    1    2    0    0 -0.31707553626E+02 -0.25364256519E+02  0.21095904262E+01  0.40659129817E+02  0.00000000000E+00 0.  1.
         11    1    3    3    0    0  0.85534368190E+01  0.12882040189E+02 -0.11725263701E+02  0.19405928217E+02  0.51100000000E-03 0. -1.
        -11    1    3    3    0    0  0.60623138921E+01  0.84977020643E+01 -0.12008093864E+01  0.10507356163E+02  0.51100000000E-03 0.  1.
        -12    1    3    3    0    0  0.17091802915E+02  0.39845142659E+01  0.10816482661E+02  0.20615585802E+02  0.00000000000E+00 0.  1.
</event>
<event>
 7    1  0.5487071E-013  0.5052884E+02  0.7816164E-02  0.1300439E+00
        -11   -1    0    0    0    0  0.00000000000E+00  0.00000000000E+00  0.45593999997E+02  0.45594000000E+02  0.51100000000E-03 0.  1.
         11   -1    0    0    0    0 -0.00000000000E+00 -0.00000000000E+00 -0.45593999997E+02  0.45594000000E+02  0.51100000000E-03 0. -1.
    9900012    2    1    2    0    0  0.29455849177E+02  0.53517624784E+01 -0.27511424649E+02  0.50528844836E+02  0.29999954364E+02 0.  0.
        -12    1    1    2    0    0 -0.29455849177E+02 -0.53517624784E+01  0.27511424649E+02  0.40659155164E+02  0.00000000000E+00 0.  1.
         11    1    3    3    0    0  0.86483621130E+01  0.23360846641E+01 -0.91146087979E+01  0.12779966846E+02  0.51100000000E-03 0. -1.
        -11    1    3    3    0    0  0.25590195306E+02  0.28457874549E+01 -0.20104899304E+02  0.32667469726E+02  0.51100000000E-03 0.  1.
        -12    1    3    3    0    0 -0.47827082416E+01  0.16989035942E+00  0.17080834527E+01  0.50814082635E+01  0.00000000000E+00 0.  1.
</event>
<event>
 7    1  0.5487071E-013  0.5052885E+02  0.7816164E-02  0.1300439E+00
        -11   -1    0    0    0    0  0.00000000000E+00  0.00000000000E+00  0.45593999997E+02  0.45594000000E+02  0.51100000000E-03 0.  1.
         11   -1    0    0    0    0 -0.00000000000E+00 -0.00000000000E+00 -0.45593999997E+02  0.45594000000E+02  0.51100000000E-03 0. -1.
    9900012    2    1    2    0    0  0.79389216323E+01 -0.35318020722E+02 -0.18514243873E+02  0.50528852313E+02  0.29999977091E+02 0.  0.
        -12    1    1    2    0    0 -0.79389216323E+01  0.35318020722E+02  0.18514243873E+02  0.40659147687E+02  0.00000000000E+00 0.  1.
         11    1    3    3    0    0  0.13298231695E+02 -0.18496484056E+02 -0.15755251869E+02  0.27698210238E+02  0.51100000000E-03 0. -1.
        -11    1    3    3    0    0  0.28086386219E+01 -0.12604743790E+02  0.88119487930E+00  0.12943899011E+02  0.51100000000E-03 0.  1.
        -12    1    3    3    0    0 -0.81679486851E+01 -0.42167928765E+01 -0.36401868829E+01  0.98867430647E+01  0.00000000000E+00 0.  1.
</event>
<event>
 7    1  0.5487071E-013  0.5052884E+02  0.7816164E-02  0.1300439E+00
        -11   -1    0    0    0    0  0.00000000000E+00  0.00000000000E+00  0.45593999997E+02  0.45594000000E+02  0.51100000000E-03 0. -1.
         11   -1    0    0    0    0 -0.00000000000E+00 -0.00000000000E+00 -0.45593999997E+02  0.45594000000E+02  0.51100000000E-03 0.  1.
    9900012    2    1    2    0    0  0.28105060544E+02  0.19351961116E+02  0.22108237018E+02  0.50528843943E+02  0.29999951650E+02 0.  0.
        -12    1    1    2    0    0 -0.28105060544E+02 -0.19351961116E+02 -0.22108237018E+02  0.40659156057E+02  0.00000000000E+00 0.  1.
         11    1    3    3    0    0  0.95734936166E+01  0.17729053166E+02  0.86636765688E+01  0.21932405206E+02  0.51100000000E-03 0. -1.
        -11    1    3    3    0    0 -0.28473459814E+01 -0.11491569810E+01  0.40452669871E+01  0.50785949004E+01  0.51100000000E-03 0.  1.
         12    1    3    3    0    0  0.21378912909E+02  0.27720649314E+01  0.93992934625E+01  0.23517843837E+02  0.00000000000E+00 0. -1.
</event>
<event>
 7    1  0.5487071E-013  0.5052888E+02  0.7816164E-02  0.1300439E+00
        -11   -1    0    0    0    0  0.00000000000E+00  0.00000000000E+00  0.45593999997E+02  0.45594000000E+02  0.51100000000E-03 0.  1.
         11   -1    0    0    0    0 -0.00000000000E+00 -0.00000000000E+00 -0.45593999997E+02  0.45594000000E+02  0.51100000000E-03 0. -1.
    9900012    2    1    2    0    0  0.10141492681E+02  0.15020407276E+02 -0.36396450778E+02  0.50528878788E+02  0.30000057563E+02 0.  0.
        -12    1    1    2    0    0 -0.10141492681E+02 -0.15020407276E+02  0.36396450778E+02  0.40659121212E+02  0.00000000000E+00 0.  1.
         11    1    3    3    0    0  0.45579776395E+01  0.12268533961E+02 -0.37638036992E+02  0.39848637550E+02  0.51100000000E-03 0.  1.
        -11    1    3    3    0    0  0.62909968957E+01  0.32058347721E+01 -0.19942801646E+01  0.73369729564E+01  0.51100000000E-03 0. -1.
        -12    1    3    3    0    0 -0.70748185449E+00 -0.45396145715E+00  0.32358663789E+01  0.33432682814E+01  0.00000000000E+00 0.  1.
</event>
<event>
 7    1  0.5487071E-013  0.5052886E+02  0.7816164E-02  0.1300439E+00
        -11   -1    0    0    0    0  0.00000000000E+00  0.00000000000E+00  0.45593999997E+02  0.45594000000E+02  0.51100000000E-03 0.  1.
         11   -1    0    0    0    0 -0.00000000000E+00 -0.00000000000E+00 -0.45593999997E+02  0.45594000000E+02  0.51100000000E-03 0. -1.
    9900012    2    1    2    0    0  0.20863823102E+02 -0.68608918866E+01 -0.34216881846E+02  0.50528856438E+02  0.29999989630E+02 0.  0.
        -12    1    1    2    0    0 -0.20863823102E+02  0.68608918866E+01  0.34216881846E+02  0.40659143562E+02  0.00000000000E+00 0.  1.
         11    1    3    3    0    0 -0.38536204758E+01 -0.53186998372E+01 -0.12966151407E+02  0.14534787281E+02  0.51100000000E-03 0. -1.
        -11    1    3    3    0    0  0.44634605462E+01 -0.51348509219E+01 -0.57361829558E+00  0.68277530892E+01  0.51100000000E-03 0.  1.
         12    1    3    3    0    0  0.20253983032E+02  0.35926588725E+01 -0.20677112143E+02  0.29166316069E+02  0.00000000000E+00 0. -1.
</event>
<event>
 7    1  0.5487071E-013  0.5052888E+02  0.7816164E-02  0.1300439E+00
        -11   -1    0    0    0    0  0.00000000000E+00  0.00000000000E+00  0.45593999997E+02  0.45594000000E+02  0.51100000000E-03 0.  1.
         11   -1    0    0    0    0 -0.00000000000E+00 -0.00000000000E+00 -0.45593999997E+02  0.45594000000E+02  0.51100000000E-03 0. -1.
    9900012    2    1    2    0    0  0.15219687871E+02  0.19684780273E+02 -0.32156409357E+02  0.50528878809E+02  0.30000057627E+02 0.  0.
        -12    1    1    2    0    0 -0.15219687871E+02 -0.19684780273E+02  0.32156409357E+02  0.40659121191E+02  0.00000000000E+00 0.  1.
         11    1    3    3    0    0 -0.37475347603E+01  0.64302602970E-01 -0.12214625699E+02  0.12776745784E+02  0.51100000000E-03 0. -1.
        -11    1    3    3    0    0  0.16111305309E+01  0.15311918757E+01  0.30245850209E+01  0.37534524051E+01  0.51100000000E-03 0.  1.
        -12    1    3    3    0    0  0.17356092101E+02  0.18089285795E+02 -0.22966368679E+02  0.33998680619E+02  0.00000000000E+00 0.  1.
</event>
<event>
 7    1  0.5487071E-013  0.5052886E+02  0.7816164E-02  0.1300439E+00
        -11   -1    0    0    0    0  0.00000000000E+00  0.00000000000E+00  0.45593999997E+02  0.45594000000E+02  0.51100000000E-03 0.  1.
         11   -1    0    0    0    0 -0.00000000000E+00 -0.00000000000E+00 -0.45593999997E+02  0.45594000000E+02  0.51100000000E-03 0. -1.
    9900012    2    1    2    0    0  0.73690067183E+01 -0.37667061068E+02 -0.13418489158E+02  0.50528860796E+02  0.30000002875E+02 0.  0.
        -12    1    1    2    0    0 -0.73690067183E+01  0.37667061068E+02  0.13418489158E+02  0.40659139204E+02  0.00000000000E+00 0.  1.
         11    1    3    3    0    0  0.12056659347E+02 -0.20840792198E+02 -0.11620097375E+02  0.26734403253E+02  0.51100000000E-03 0. -1.
        -11    1    3    3    0    0 -0.53301263505E+01 -0.18069098457E+02 -0.56734107153E+01  0.19674606867E+02  0.51100000000E-03 0.  1.
         12    1    3    3    0    0  0.64247372219E+00  0.12428295861E+01  0.38750189325E+01  0.41198506758E+01  0.00000000000E+00 0. -1.
</event>
<event>
 7    1  0.5487071E-013  0.5052886E+02  0.7816164E-02  0.1300439E+00
        -11   -1    0    0    0    0  0.00000000000E+00  0.00000000000E+00  0.45593999997E+02  0.45594000000E+02  0.51100000000E-03 0. -1.
         11   -1    0    0    0    0 -0.00000000000E+00 -0.00000000000E+00 -0.45593999997E+02  0.45594000000E+02  0.51100000000E-03 0.  1.
    9900012    2    1    2    0    0  0.11670602911E+02  0.38939839282E+02  0.80732687029E+00  0.50528857949E+02  0.29999994223E+02 0.  0.
        -12    1    1    2    0    0 -0.11670602911E+02 -0.38939839282E+02 -0.80732687029E+00  0.40659142051E+02  0.00000000000E+00 0.  1.
         11    1    3    3    0    0  0.40812341628E+01  0.18286373732E+02  0.72296673929E+01  0.20082729581E+02  0.51100000000E-03 0. -1.
        -11    1    3    3    0    0  0.31963791762E+01  0.14518200087E+02  0.59024599963E+01  0.15994811905E+02  0.51100000000E-03 0.  1.
        -12    1    3    3    0    0  0.43929895718E+01  0.61352654631E+01 -0.12324800519E+02  0.14451316463E+02  0.00000000000E+00 0.  1.
</event>
<event>
 7    1  0.5487071E-013  0.5052886E+02  0.7816164E-02  0.1300439E+00
        -11   -1    0    0    0    0  0.00000000000E+00  0.00000000000E+00  0.45593999997E+02  0.45594000000E+02  0.51100000000E-03 0. -1.
         11   -1    0    0    0    0 -0.00000000000E+00 -0.00000000000E+00 -0.45593999997E+02  0.45594000000E+02  0.51100000000E-03 0.  1.
    9900012    2    1    2    0    0 -0.20706012410E+02  0.11049399601E+02  0.33201470191E+02  0.50528858293E+02  0.29999995268E+02 0.  0.
        -12    1    1    2    0    0  0.20706012410E+02 -0.11049399601E+02 -0.33201470191E+02  0.40659141707E+02  0.00000000000E+00 0.  1.
         11    1    3    3    0    0 -0.36424971582E+01 -0.12290435007E+01  0.10189909009E+02  0.10890940242E+02  0.51100000000E-03 0. -1.
        -11    1    3    3    0    0 -0.19658282958E+02 -0.38440886597E-01  0.13207923573E+02  0.23683302387E+02  0.51100000000E-03 0.  1.
        -12    1    3    3    0    0  0.25947677062E+01  0.12316883989E+02  0.98036376093E+01  0.15954615665E+02  0.00000000000E+00 0.  1.
</event>
<event>
 7    1  0.5487071E-013  0.5052887E+02  0.7816164E-02  0.1300439E+00
        -11   -1    0    0    0    0  0.00000000000E+00  0.00000000000E+00  0.45593999997E+02  0.45594000000E+02  0.51100000000E-03 0.  1.
         11   -1    0    0    0    0 -0.00000000000E+00 -0.00000000000E+00 -0.45593999997E+02  0.45594000000E+02  0.51100000000E-03 0. -1.
    9900012    2    1    2    0    0 -0.54914419363E+01  0.18812232319E+02 -0.35624556066E+02  0.50528868009E+02  0.30000024800E+02 0.  0.
        -12    1    1    2    0    0  0.54914419363E+01 -0.18812232319E+02  0.35624556066E+02  0.40659131991E+02  0.00000000000E+00 0.  1.
         11    1    3    3    0    0 -0.64281216939E+01  0.11272380527E+01  0.15216974070E+01  0.67012668503E+01  0.51100000000E-03 0.  1.
        -11    1    3    3    0    0  0.33731477741E+01  0.71603003246E+01 -0.38094265686E+01  0.87840627097E+01  0.51100000000E-03 0. -1.
         12    1    3    3    0    0 -0.24364680166E+01  0.10524693942E+02 -0.33336826905E+02  0.35043538449E+02  0.00000000000E+00 0. -1.
</event>
<event>
 7    1  0.5487071E-013  0.5052886E+02  0.7816164E-02  0.1300439E+00
        -11   -1    0    0    0    0  0.00000000000E+00  0.00000000000E+00  0.45593999997E+02  0.45594000000E+02  0.51100000000E-03 0.  1.
         11   -1    0    0    0    0 -0.00000000000E+00 -0.00000000000E+00 -0.45593999997E+02  0.45594000000E+02  0.51100000000E-03 0. -1.
    9900012    2    1    2    0    0 -0.59390185183E+01  0.89278061660E+01 -0.39219735379E+02  0.50528864408E+02  0.30000013855E+02 0.  0.
        -12    1    1    2    0    0  0.59390185183E+01 -0.89278061660E+01  0.39219735379E+02  0.40659135592E+02  0.00000000000E+00 0.  1.
         11    1    3    3    0    0 -0.42185117159E+01 -0.35506405524E+01 -0.42455939648E+01  0.69590198882E+01  0.51100000000E-03 0. -1.
        -11    1    3    3    0    0 -0.10969035703E+02  0.21533447428E+01 -0.99607275277E+01  0.14972398972E+02  0.51100000000E-03 0.  1.
         12    1    3    3    0    0  0.92485289004E+01  0.10325101976E+02 -0.25013413886E+02  0.28597445548E+02  0.00000000000E+00 0. -1.
</event>
<event>
 7    1  0.5487071E-013  0.5052886E+02  0.7816164E-02  0.1300439E+00
        -11   -1    0    0    0    0  0.00000000000E+00  0.00000000000E+00  0.45593999997E+02  0.45594000000E+02  0.51100000000E-03 0. -1.
         11   -1    0    0    0    0 -0.00000000000E+00 -0.00000000000E+00 -0.45593999997E+02  0.45594000000E+02  0.51100000000E-03 0.  1.
    9900012    2    1    2    0    0  0.28646743301E+02 -0.27957733218E+02 -0.71340730893E+01  0.50528858995E+02  0.29999997401E+02 0.  0.
        -12    1    1    2    0    0 -0.28646743301E+02  0.27957733218E+02  0.71340730893E+01  0.40659141005E+02  0.00000000000E+00 0.  1.
         11    1    3    3    0    0  0.17461638295E+02 -0.79804975592E+01  0.35444097453E+01  0.19523319235E+02  0.51100000000E-03 0. -1.
        -11    1    3    3    0    0  0.10859762329E+02 -0.29952918731E+01 -0.79850910907E+01  0.13808254460E+02  0.51100000000E-03 0.  1.
         12    1    3    3    0    0  0.32534267673E+00 -0.16981943786E+02 -0.26933917438E+01  0.17197285300E+02  0.00000000000E+00 0. -1.
</event>
<event>
 7    1  0.5487071E-013  0.5052886E+02  0.7816164E-02  0.1300439E+00
        -11   -1    0    0    0    0  0.00000000000E+00  0.00000000000E+00  0.45593999997E+02  0.45594000000E+02  0.51100000000E-03 0.  1.
         11   -1    0    0    0    0 -0.00000000000E+00 -0.00000000000E+00 -0.45593999997E+02  0.45594000000E+02  0.51100000000E-03 0. -1.
    9900012    2    1    2    0    0  0.20375121308E+02  0.31563673374E+02 -0.15548464897E+02  0.50528858274E+02  0.29999995211E+02 0.  0.
        -12    1    1    2    0    0 -0.20375121308E+02 -0.31563673374E+02  0.15548464897E+02  0.40659141726E+02  0.00000000000E+00 0.  1.
         11    1    3    3    0    0  0.11773852048E+02 -0.25307290499E-01 -0.86606733857E+01  0.14616138213E+02  0.51100000000E-03 0.  1.
        -11    1    3    3    0    0  0.10650142331E+01  0.32170845339E+00 -0.33811112416E+01  0.35594473075E+01  0.51100000000E-03 0. -1.
        -12    1    3    3    0    0  0.75362550272E+01  0.31267272211E+02 -0.35066802702E+01  0.32353272754E+02  0.00000000000E+00 0.  1.
</event>
<event>
 7    1  0.5487071E-013  0.5052886E+02  0.7816164E-02  0.1300439E+00
        -11   -1    0    0    0    0  0.00000000000E+00  0.00000000000E+00  0.45593999997E+02  0.45594000000E+02  0.51100000000E-03 0.  1.
         11   -1    0    0    0    0 -0.00000000000E+00 -0.00000000000E+00 -0.45593999997E+02  0.45594000000E+02  0.51100000000E-03 0. -1.
    9900012    2    1    2    0    0 -0.35789771906E+02 -0.16566131033E+02 -0.98904444779E+01  0.50528863727E+02  0.30000011784E+02 0.  0.
        -12    1    1    2    0    0  0.35789771906E+02  0.16566131033E+02  0.98904444779E+01  0.40659136273E+02  0.00000000000E+00 0.  1.
         11    1    3    3    0    0 -0.54104267147E+01 -0.39759431888E+00 -0.12456618553E+02  0.13586689976E+02  0.51100000000E-03 0. -1.
        -11    1    3    3    0    0 -0.80677042947E+01 -0.25280679351E-01 -0.34151250182E+01  0.87607973867E+01  0.51100000000E-03 0.  1.
        -12    1    3    3    0    0 -0.22311640897E+02 -0.16143256035E+02  0.59812990929E+01  0.28181376364E+02  0.00000000000E+00 0.  1.
</event>
<event>
 7    1  0.5487071E-013  0.5052886E+02  0.7816164E-02  0.1300439E+00
        -11   -1    0    0    0    0  0.00000000000E+00  0.00000000000E+00  0.45593999997E+02  0.45594000000E+02  0.51100000000E-03 0.  1.
         11   -1    0    0    0    0 -0.00000000000E+00 -0.00000000000E+00 -0.45593999997E+02  0.45594000000E+02  0.51100000000E-03 0. -1.
    9900012    2    1    2    0    0  0.10968269927E+02  0.34682474721E+02 -0.18165587694E+02  0.50528861123E+02  0.30000003868E+02 0.  0.
        -12    1    1    2    0    0 -0.10968269927E+02 -0.34682474721E+02  0.18165587694E+02  0.40659138877E+02  0.00000000000E+00 0.  1.
         11    1    3    3    0    0  0.92497854156E+01  0.20960718902E+02 -0.13868986027E+02  0.26781692269E+02  0.51100000000E-03 0. -1.
        -11    1    3    3    0    0  0.10849780468E+00 -0.13890579009E+01 -0.79882528638E+01  0.81088493451E+01  0.51100000000E-03 0.  1.
         12    1    3    3    0    0  0.16099867068E+01  0.15110813720E+02  0.36916511969E+01  0.15638319508E+02  0.00000000000E+00 0. -1.
</event>
<event>
 7    1  0.5487071E-013  0.5052882E+02  0.7816164E-02  0.1300439E+00
        -11   -1    0    0    0    0  0.00000000000E+00  0.00000000000E+00  0.45593999997E+02  0.45594000000E+02  0.51100000000E-03 0.  1.
         11   -1    0    0    0    0 -0.00000000000E+00 -0.00000000000E+00 -0.45593999997E+02  0.45594000000E+02  0.51100000000E-03 0. -1.
    9900012    2    1    2    0    0 -0.36927151102E+02 -0.15065127624E+02 -0.79117989589E+01  0.50528817500E+02  0.29999871271E+02 0.  0.
        -12    1    1    2    0    0  0.36927151102E+02  0.15065127624E+02  0.79117989589E+01  0.40659182500E+02  0.00000000000E+00 0.  1.
         11    1    3    3    0    0 -0.45588705197E+01  0.40518806830E+01 -0.61552143290E+01  0.86653159885E+01  0.51100000000E-03 0. -1.
        -11    1    3    3    0    0 -0.19458360445E+02 -0.12926618093E+01  0.17410875218E+01  0.19578818957E+02  0.51100000000E-03 0.  1.
         12    1    3    3    0    0 -0.12909920138E+02 -0.17824346498E+02 -0.34976721517E+01  0.22284682554E+02  0.00000000000E+00 0. -1.
</event>
<event>
 7    1  0.5487071E-013  0.5052886E+02  0.7816164E-02  0.1300439E+00
        -11   -1    0    0    0    0  0.00000000000E+00  0.00000000000E+00  0.45593999997E+02  0.45594000000E+02  0.51100000000E-03 0.  1.
         11   -1    0    0    0    0 -0.00000000000E+00 -0.00000000000E+00 -0.45593999997E+02  0.45594000000E+02  0.51100000000E-03 0. -1.
    9900012    2    1    2    0    0  0.16826444804E+02  0.28208641288E+02 -0.23964745236E+02  0.50528859548E+02  0.29999999082E+02 0.  0.
        -12    1    1    2    0    0 -0.16826444804E+02 -0.28208641288E+02  0.23964745236E+02  0.40659140452E+02  0.00000000000E+00 0.  1.
         11    1    3    3    0    0  0.47804138031E+01 -0.38125398518E+01 -0.63586027293E+01  0.88215443761E+01  0.51100000000E-03 0. -1.
        -11    1    3    3    0    0  0.65342003639E-02  0.13531238145E-01  0.21924255088E+01  0.21924770610E+01  0.51100000000E-03 0.  1.
         12    1    3    3    0    0  0.12039496801E+02  0.32007649901E+02 -0.19798568016E+02  0.39514838111E+02  0.00000000000E+00 0. -1.
</event>
<event>
 7    1  0.5487071E-013  0.5052887E+02  0.7816164E-02  0.1300439E+00
        -11   -1    0    0    0    0  0.00000000000E+00  0.00000000000E+00  0.45593999997E+02  0.45594000000E+02  0.51100000000E-03 0. -1.
         11   -1    0    0    0    0 -0.00000000000E+00 -0.00000000000E+00 -0.45593999997E+02  0.45594000000E+02  0.51100000000E-03 0.  1.
    9900012    2    1    2    0    0 -0.26919115575E+02 -0.25582673553E+02 -0.16554547177E+02  0.50528868164E+02  0.30000025270E+02 0.  0.
        -12    1    1    2    0    0  0.26919115575E+02  0.25582673553E+02  0.16554547177E+02  0.40659131836E+02  0.00000000000E+00 0.  1.
         11    1    3    3    0    0 -0.99201241918E+01 -0.26272423871E+02 -0.58347937651E+01  0.28682641764E+02  0.51100000000E-03 0. -1.
        -11    1    3    3    0    0 -0.10255842473E+02 -0.35613216641E+01 -0.45737223837E+01  0.11780672881E+02  0.51100000000E-03 0.  1.
        -12    1    3    3    0    0 -0.67431489105E+01  0.42510719825E+01 -0.61460310280E+01  0.10065553518E+02  0.00000000000E+00 0.  1.
</event>
<event>
 7    1  0.5487071E-013  0.5052886E+02  0.7816164E-02  0.1300439E+00
        -11   -1    0    0    0    0  0.00000000000E+00  0.00000000000E+00  0.45593999997E+02  0.45594000000E+02  0.51100000000E-03 0. -1.
         11   -1    0    0    0    0 -0.00000000000E+00 -0.00000000000E+00 -0.45593999997E+02  0.45594000000E+02  0.51100000000E-03 0.  1.
    9900012    2    1    2    0    0 -0.34565695663E+01 -0.37453990208E+02  0.15440727308E+02  0.50528864305E+02  0.30000013542E+02 0.  0.
        -12    1    1    2    0    0  0.34565695663E+01  0.37453990208E+02 -0.15440727308E+02  0.40659135695E+02  0.00000000000E+00 0.  1.
         11    1    3    3    0    0  0.59053088667E+01 -0.17914996362E+02  0.15959734743E+02  0.24708963976E+02  0.51100000000E-03 0. -1.
        -11    1    3    3    0    0  0.91549608599E+00  0.65683200923E+00  0.27059100710E+01  0.29311279305E+01  0.51100000000E-03 0.  1.
        -12    1    3    3    0    0 -0.10277374519E+02 -0.20195825855E+02 -0.32249175061E+01  0.22888772398E+02  0.00000000000E+00 0.  1.
</event>
<event>
 7    1  0.5487071E-013  0.5052886E+02  0.7816164E-02  0.1300439E+00
        -11   -1    0    0    0    0  0.00000000000E+00  0.00000000000E+00  0.45593999997E+02  0.45594000000E+02  0.51100000000E-03 0. -1.
         11   -1    0    0    0    0 -0.00000000000E+00 -0.00000000000E+00 -0.45593999997E+02  0.45594000000E+02  0.51100000000E-03 0.  1.
    9900012    2    1    2    0    0 -0.11812546915E+02  0.26028158624E+01  0.38818224610E+02  0.50528862320E+02  0.30000007508E+02 0.  0.
        -12    1    1    2    0    0  0.11812546915E+02 -0.26028158624E+01 -0.38818224610E+02  0.40659137680E+02  0.00000000000E+00 0.  1.
         11    1    3    3    0    0  0.36129498309E+01  0.25118153806E+01  0.40750293605E+01  0.59973733865E+01  0.51100000000E-03 0. -1.
        -11    1    3    3    0    0 -0.31689955663E+00  0.33824777296E+01 -0.24919629251E+01  0.42132482008E+01  0.51100000000E-03 0.  1.
         12    1    3    3    0    0 -0.15108597189E+02 -0.32914772478E+01  0.37235158174E+02  0.40318240733E+02  0.00000000000E+00 0. -1.
</event>
<event>
 7    1  0.5487071E-013  0.5052888E+02  0.7816164E-02  0.1300439E+00
        -11   -1    0    0    0    0  0.00000000000E+00  0.00000000000E+00  0.45593999997E+02  0.45594000000E+02  0.51100000000E-03 0.  1.
         11   -1    0    0    0    0 -0.00000000000E+00 -0.00000000000E+00 -0.45593999997E+02  0.45594000000E+02  0.51100000000E-03 0. -1.
    9900012    2    1    2    0    0  0.92828651205E+01 -0.16960665154E+02 -0.35767697159E+02  0.50528881621E+02  0.30000066175E+02 0.  0.
        -12    1    1    2    0    0 -0.92828651205E+01  0.16960665154E+02  0.35767697159E+02  0.40659118379E+02  0.00000000000E+00 0.  1.
         11    1    3    3    0    0  0.40064349894E+01 -0.60179291458E+01 -0.13735884216E+02  0.15522290681E+02  0.51100000000E-03 0. -1.
        -11    1    3    3    0    0 -0.45357743065E+01 -0.11629535822E+02 -0.21855178718E+02  0.25168793953E+02  0.51100000000E-03 0.  1.
        -12    1    3    3    0    0  0.98122044376E+01  0.68679981318E+00 -0.17663422490E+00  0.98377969870E+01  0.00000000000E+00 0.  1.
</event>
<event>
 7    1  0.5487071E-013  0.5052888E+02  0.7816164E-02  0.1300439E+00
        -11   -1    0    0    0    0  0.00000000000E+00  0.00000000000E+00  0.45593999997E+02  0.45594000000E+02  0.51100000000E-03 0. -1.
         11   -1    0    0    0    0 -0.00000000000E+00 -0.00000000000E+00 -0.45593999997E+02  0.45594000000E+02  0.51100000000E-03 0.  1.
    9900012    2    1    2    0    0 -0.10242704640E+02  0.39334014089E+02 -0.10422128221E+01  0.50528882077E+02  0.30000067561E+02 0.  0.
        -12    1    1    2    0    0  0.10242704640E+02 -0.39334014089E+02  0.10422128221E+01  0.40659117923E+02  0.00000000000E+00 0.  1.
         11    1    3    3    0    0 -0.23698922557E+01  0.17650361022E+02 -0.34531593200E+01  0.18140450465E+02  0.51100000000E-03 0. -1.
        -11    1    3    3    0    0  0.65245445639E+00  0.21150932743E+02 -0.42165139054E+01  0.21576993361E+02  0.51100000000E-03 0.  1.
        -12    1    3    3    0    0 -0.85252668412E+01  0.53272032359E+00  0.66274604033E+01  0.10811438251E+02  0.00000000000E+00 0.  1.
</event>
<event>
 7    1  0.5487071E-013  0.5052885E+02  0.7816164E-02  0.1300439E+00
        -11   -1    0    0    0    0  0.00000000000E+00  0.00000000000E+00  0.45593999997E+02  0.45594000000E+02  0.51100000000E-03 0.  1.
         11   -1    0    0    0    0 -0.00000000000E+00 -0.00000000000E+00 -0.45593999997E+02  0.45594000000E+02  0.51100000000E-03 0. -1.
    9900012    2    1    2    0    0 -0.12258327477E+02 -0.31800341548E+02 -0.22172918254E+02  0.50528848275E+02  0.29999964816E+02 0.  0.
        -12    1    1    2    0    0  0.12258327477E+02  0.31800341548E+02  0.22172918254E+02  0.40659151725E+02  0.00000000000E+00 0.  1.
         11    1    3    3    0    0 -0.11832086215E+01 -0.19586783655E+02 -0.78313741118E+01  0.21127529371E+02  0.51100000000E-03 0. -1.
        -11    1    3    3    0    0 -0.55098935055E+01 -0.73384688248E+01  0.37054971016E+01  0.98966034661E+01  0.51100000000E-03 0.  1.
        -12    1    3    3    0    0 -0.55652253499E+01 -0.48750890681E+01 -0.18047041244E+02  0.19504715437E+02  0.00000000000E+00 0.  1.
</event>
<event>
 7    1  0.5487071E-013  0.5052887E+02  0.7816164E-02  0.1300439E+00
        -11   -1    0    0    0    0  0.00000000000E+00  0.00000000000E+00  0.45593999997E+02  0.45594000000E+02  0.51100000000E-03 0.  1.
         11   -1    0    0    0    0 -0.00000000000E+00 -0.00000000000E+00 -0.45593999997E+02  0.45594000000E+02  0.51100000000E-03 0. -1.
    9900012    2    1    2    0    0 -0.33064148504E+01  0.27228959895E+02 -0.30013605536E+02  0.50528866298E+02  0.30000019598E+02 0.  0.
        -12    1    1    2    0    0  0.33064148504E+01 -0.27228959895E+02  0.30013605536E+02  0.40659133702E+02  0.00000000000E+00 0.  1.
         11    1    3    3    0    0  0.19558502748E+00  0.13448240491E+02 -0.27469912449E+02  0.30585773098E+02  0.51100000000E-03 0.  1.
        -11    1    3    3    0    0 -0.32229404028E+01  0.92476242050E+01 -0.81409537855E+01  0.12735031491E+02  0.51100000000E-03 0. -1.
        -12    1    3    3    0    0 -0.27905947506E+00  0.45330951991E+01  0.55972606980E+01  0.72080617086E+01  0.00000000000E+00 0.  1.
</event>
<event>
 7    1  0.5487071E-013  0.5052887E+02  0.7816164E-02  0.1300439E+00
        -11   -1    0    0    0    0  0.00000000000E+00  0.00000000000E+00  0.45593999997E+02  0.45594000000E+02  0.51100000000E-03 0.  1.
         11   -1    0    0    0    0 -0.00000000000E+00 -0.00000000000E+00 -0.45593999997E+02  0.45594000000E+02  0.51100000000E-03 0. -1.
    9900012    2    1    2    0    0  0.31255103430E+02 -0.18752117656E+02 -0.18017800781E+02  0.50528873693E+02  0.30000042078E+02 0.  0.
        -12    1    1    2    0    0 -0.31255103430E+02  0.18752117656E+02  0.18017800781E+02  0.40659126307E+02  0.00000000000E+00 0.  1.
         11    1    3    3    0    0  0.25722033723E+01  0.12396459841E+01  0.68334785931E-01  0.28561551531E+01  0.51100000000E-03 0. -1.
        -11    1    3    3    0    0  0.16961138006E+02 -0.15168887286E+02  0.31196708004E+01  0.22967535569E+02  0.51100000000E-03 0.  1.
         12    1    3    3    0    0  0.11721762052E+02 -0.48228763540E+01 -0.21205806368E+02  0.24705182971E+02  0.00000000000E+00 0. -1.
</event>
<event>
 7    1  0.5810901E-013  0.5052886E+02  0.7816164E-02  0.1300439E+00
        -11   -1    0    0    0    0  0.00000000000E+00  0.00000000000E+00  0.45593999997E+02  0.45594000000E+02  0.51100000000E-03 0.  1.
         11   -1    0    0    0    0 -0.00000000000E+00 -0.00000000000E+00 -0.45593999997E+02  0.45594000000E+02  0.51100000000E-03 0. -1.
    9900012    2    1    2    0    0 -0.37872729122E+02  0.12862695418E+01 -0.14736601693E+02  0.50528861668E+02  0.30000005525E+02 0.  0.
        -12    1    1    2    0    0  0.37872729122E+02 -0.12862695418E+01  0.14736601693E+02  0.40659138332E+02  0.00000000000E+00 0.  1.
         11    1    3    3    0    0 -0.20974257833E+02  0.58501018321E+01 -0.12460272888E+02  0.25087877228E+02  0.51100000000E-03 0. -1.
        -11    1    3    3    0    0 -0.17638982781E+01  0.60386380591E+01  0.17473525737E+01  0.65291445092E+01  0.51100000000E-03 0.  1.
        -12    1    3    3    0    0 -0.15134573010E+02 -0.10602470349E+02 -0.40236813791E+01  0.18911839930E+02  0.00000000000E+00 0.  1.
</event>
<event>
 7    1  0.5487071E-013  0.5052886E+02  0.7816164E-02  0.1300439E+00
        -11   -1    0    0    0    0  0.00000000000E+00  0.00000000000E+00  0.45593999997E+02  0.45594000000E+02  0.51100000000E-03 0.  1.
         11   -1    0    0    0    0 -0.00000000000E+00 -0.00000000000E+00 -0.45593999997E+02  0.45594000000E+02  0.51100000000E-03 0. -1.
    9900012    2    1    2    0    0  0.26649326732E-01 -0.38993726894E+02  0.11517562140E+02  0.50528859761E+02  0.29999999731E+02 0.  0.
        -12    1    1    2    0    0 -0.26649326732E-01  0.38993726894E+02 -0.11517562140E+02  0.40659140239E+02  0.00000000000E+00 0.  1.
         11    1    3    3    0    0  0.43026019737E+01 -0.96788160355E+01  0.87006011146E+01  0.13707382085E+02  0.51100000000E-03 0. -1.
        -11    1    3    3    0    0  0.81021070005E+01 -0.63862426649E+01 -0.14504157915E+01  0.10417866358E+02  0.51100000000E-03 0.  1.
        -12    1    3    3    0    0 -0.12378059647E+02 -0.22928668194E+02  0.42673768170E+01  0.26403611319E+02  0.00000000000E+00 0.  1.
</event>
<event>
 7    1  0.5487071E-013  0.5052886E+02  0.7816164E-02  0.1300439E+00
        -11   -1    0    0    0    0  0.00000000000E+00  0.00000000000E+00  0.45593999997E+02  0.45594000000E+02  0.51100000000E-03 0.  1.
         11   -1    0    0    0    0 -0.00000000000E+00 -0.00000000000E+00 -0.45593999997E+02  0.45594000000E+02  0.51100000000E-03 0. -1.
    9900012    2    1    2    0    0  0.63238652560E+01  0.31216870618E+02 -0.25272144437E+02  0.50528861207E+02  0.30000004125E+02 0.  0.
        -12    1    1    2    0    0 -0.63238652560E+01 -0.31216870618E+02  0.25272144437E+02  0.40659138793E+02  0.00000000000E+00 0.  1.
         11    1    3    3    0    0  0.10848775714E+02  0.15184912891E+02 -0.69616495340E+01  0.19918385439E+02  0.51100000000E-03 0. -1.
        -11    1    3    3    0    0  0.64272979668E+01  0.81067589280E+01 -0.44912358731E+01  0.11278337617E+02  0.51100000000E-03 0.  1.
        -12    1    3    3    0    0 -0.10952208425E+02  0.79251987994E+01 -0.13819259030E+02  0.19332138152E+02  0.00000000000E+00 0.  1.
</event>
<event>
 7    1  0.5487071E-013  0.5052886E+02  0.7816164E-02  0.1300439E+00
        -11   -1    0    0    0    0  0.00000000000E+00  0.00000000000E+00  0.45593999997E+02  0.45594000000E+02  0.51100000000E-03 0.  1.
         11   -1    0    0    0    0 -0.00000000000E+00 -0.00000000000E+00 -0.45593999997E+02  0.45594000000E+02  0.51100000000E-03 0. -1.
    9900012    2    1    2    0    0 -0.13554545079E+02  0.34771532792E+02 -0.16136308296E+02  0.50528860432E+02  0.30000001769E+02 0.  0.
        -12    1    1    2    0    0  0.13554545079E+02 -0.34771532792E+02  0.16136308296E+02  0.40659139568E+02  0.00000000000E+00 0.  1.
         11    1    3    3    0    0 -0.16606482982E+01  0.18451795529E+02 -0.95602172078E+01  0.20847644096E+02  0.51100000000E-03 0. -1.
        -11    1    3    3    0    0 -0.15155858450E+02  0.81464592215E+01  0.20867694652E+01  0.17332612332E+02  0.51100000000E-03 0.  1.
         12    1    3    3    0    0  0.32619616691E+01  0.81732780409E+01 -0.86628605539E+01  0.12348604004E+02  0.00000000000E+00 0. -1.
</event>
<event>
 7    1  0.5487071E-013  0.5052886E+02  0.7816164E-02  0.1300439E+00
        -11   -1    0    0    0    0  0.00000000000E+00  0.00000000000E+00  0.45593999997E+02  0.45594000000E+02  0.51100000000E-03 0.  1.
         11   -1    0    0    0    0 -0.00000000000E+00 -0.00000000000E+00 -0.45593999997E+02  0.45594000000E+02  0.51100000000E-03 0. -1.
    9900012    2    1    2    0    0  0.24949413935E+02 -0.19738336921E+02 -0.25319763270E+02  0.50528860656E+02  0.30000002451E+02 0.  0.
        -12    1    1    2    0    0 -0.24949413935E+02  0.19738336921E+02  0.25319763270E+02  0.40659139344E+02  0.00000000000E+00 0.  1.
         11    1    3    3    0    0 -0.99340683414E-02 -0.39225778676E+01 -0.46862210089E+01  0.61112505610E+01  0.51100000000E-03 0. -1.
        -11    1    3    3    0    0  0.66623323591E+00 -0.13662591419E+02 -0.12978531151E+02  0.18856100925E+02  0.51100000000E-03 0.  1.
         12    1    3    3    0    0  0.24293114767E+02 -0.21531676351E+01 -0.76550111101E+01  0.25561509170E+02  0.00000000000E+00 0. -1.
</event>
<event>
 7    1  0.5487071E-013  0.5052886E+02  0.7816164E-02  0.1300439E+00
        -11   -1    0    0    0    0  0.00000000000E+00  0.00000000000E+00  0.45593999997E+02  0.45594000000E+02  0.51100000000E-03 0.  1.
         11   -1    0    0    0    0 -0.00000000000E+00 -0.00000000000E+00 -0.45593999997E+02  0.45594000000E+02  0.51100000000E-03 0. -1.
    9900012    2    1    2    0    0  0.27683021521E+02 -0.25869483184E+02 -0.14750791971E+02  0.50528859520E+02  0.29999998998E+02 0.  0.
        -12    1    1    2    0    0 -0.27683021521E+02  0.25869483184E+02  0.14750791971E+02  0.40659140480E+02  0.00000000000E+00 0.  1.
         11    1    3    3    0    0  0.12515699893E+02 -0.76366624276E+01 -0.53760972871E+01  0.15616138420E+02  0.51100000000E-03 0. -1.
        -11    1    3    3    0    0  0.14924479494E+02 -0.58054588325E+01 -0.14370698074E+02  0.21516514677E+02  0.51100000000E-03 0.  1.
         12    1    3    3    0    0  0.24284213439E+00 -0.12427361924E+02  0.49960033899E+01  0.13396206424E+02  0.00000000000E+00 0. -1.
</event>
<event>
 7    1  0.5487071E-013  0.5052882E+02  0.7816164E-02  0.1300439E+00
        -11   -1    0    0    0    0  0.00000000000E+00  0.00000000000E+00  0.45593999997E+02  0.45594000000E+02  0.51100000000E-03 0. -1.
         11   -1    0    0    0    0 -0.00000000000E+00 -0.00000000000E+00 -0.45593999997E+02  0.45594000000E+02  0.51100000000E-03 0.  1.
    9900012    2    1    2    0    0  0.40094622394E+02  0.58251696571E+01  0.34143616322E+01  0.50528816390E+02  0.29999867899E+02 0.  0.
        -12    1    1    2    0    0 -0.40094622394E+02 -0.58251696571E+01 -0.34143616322E+01  0.40659183610E+02  0.00000000000E+00 0.  1.
         11    1    3    3    0    0 -0.17809257481E+01 -0.54566432533E+01 -0.31315647301E+01  0.65386045938E+01  0.51100000000E-03 0.  1.
        -11    1    3    3    0    0  0.16141309601E+02  0.54319217291E+01  0.38631993725E+01  0.17463446366E+02  0.51100000000E-03 0. -1.
        -12    1    3    3    0    0  0.25734238541E+02  0.58498911813E+01  0.26827269897E+01  0.26526765431E+02  0.00000000000E+00 0.  1.
</event>
<event>
 7    1  0.5487071E-013  0.5052886E+02  0.7816164E-02  0.1300439E+00
        -11   -1    0    0    0    0  0.00000000000E+00  0.00000000000E+00  0.45593999997E+02  0.45594000000E+02  0.51100000000E-03 0.  1.
         11   -1    0    0    0    0 -0.00000000000E+00 -0.00000000000E+00 -0.45593999997E+02  0.45594000000E+02  0.51100000000E-03 0. -1.
    9900012    2    1    2    0    0  0.20406232089E+02  0.25389851836E+01 -0.35075700666E+02  0.50528861654E+02  0.30000005484E+02 0.  0.
        -12    1    1    2    0    0 -0.20406232089E+02 -0.25389851836E+01  0.35075700666E+02  0.40659138346E+02  0.00000000000E+00 0.  1.
         11    1    3    3    0    0  0.10226876626E+02  0.58230526799E+01 -0.51221697326E+01  0.12834857656E+02  0.51100000000E-03 0.  1.
        -11    1    3    3    0    0 -0.48594070110E+01 -0.56593701479E+01 -0.12266767303E+02  0.14356736652E+02  0.51100000000E-03 0. -1.
         12    1    3    3    0    0  0.15038762475E+02  0.23753026515E+01 -0.17686763630E+02  0.23337267346E+02  0.00000000000E+00 0. -1.
</event>
<event>
 7    1  0.5487071E-013  0.5052886E+02  0.7816164E-02  0.1300439E+00
        -11   -1    0    0    0    0  0.00000000000E+00  0.00000000000E+00  0.45593999997E+02  0.45594000000E+02  0.51100000000E-03 0. -1.
         11   -1    0    0    0    0 -0.00000000000E+00 -0.00000000000E+00 -0.45593999997E+02  0.45594000000E+02  0.51100000000E-03 0.  1.
    9900012    2    1    2    0    0  0.13725377786E+02 -0.17744195244E+02 -0.33910521719E+02  0.50528856582E+02  0.29999990068E+02 0.  0.
        -12    1    1    2    0    0 -0.13725377786E+02  0.17744195244E+02  0.33910521719E+02  0.40659143418E+02  0.00000000000E+00 0.  1.
         11    1    3    3    0    0  0.16296834479E+02 -0.17305645754E+02 -0.17087848948E+02  0.29275702740E+02  0.51100000000E-03 0. -1.
        -11    1    3    3    0    0  0.17588061201E+01 -0.32804853396E+01 -0.75166418594E-01  0.37229871451E+01  0.51100000000E-03 0.  1.
        -12    1    3    3    0    0 -0.43302628131E+01  0.28419358500E+01 -0.16747506352E+02  0.17530166697E+02  0.00000000000E+00 0.  1.
</event>
<event>
 7    1  0.5487071E-013  0.5052891E+02  0.7816164E-02  0.1300439E+00
        -11   -1    0    0    0    0  0.00000000000E+00  0.00000000000E+00  0.45593999997E+02  0.45594000000E+02  0.51100000000E-03 0. -1.
         11   -1    0    0    0    0 -0.00000000000E+00 -0.00000000000E+00 -0.45593999997E+02  0.45594000000E+02  0.51100000000E-03 0.  1.
    9900012    2    1    2    0    0  0.17904250420E+02  0.84012810106E+01  0.35524894800E+02  0.50528906844E+02  0.30000142844E+02 0.  0.
        -12    1    1    2    0    0 -0.17904250420E+02 -0.84012810106E+01 -0.35524894800E+02  0.40659093156E+02  0.00000000000E+00 0.  1.
         11    1    3    3    0    0  0.12762915469E+02 -0.16302283860E+01  0.84568341205E+01  0.15397002938E+02  0.51100000000E-03 0. -1.
        -11    1    3    3    0    0  0.96247404210E+01  0.81233794563E+01  0.68539265309E+01  0.14338801593E+02  0.51100000000E-03 0.  1.
        -12    1    3    3    0    0 -0.44834054703E+01  0.19081299403E+01  0.20214134148E+02  0.20793102314E+02  0.00000000000E+00 0.  1.
</event>
<event>
 7    1  0.5487071E-013  0.5052886E+02  0.7816164E-02  0.1300439E+00
        -11   -1    0    0    0    0  0.00000000000E+00  0.00000000000E+00  0.45593999997E+02  0.45594000000E+02  0.51100000000E-03 0. -1.
         11   -1    0    0    0    0 -0.00000000000E+00 -0.00000000000E+00 -0.45593999997E+02  0.45594000000E+02  0.51100000000E-03 0.  1.
    9900012    2    1    2    0    0  0.18380555021E+02 -0.25730538792E+02 -0.25558955064E+02  0.50528860642E+02  0.30000002407E+02 0.  0.
        -12    1    1    2    0    0 -0.18380555021E+02  0.25730538792E+02  0.25558955064E+02  0.40659139358E+02  0.00000000000E+00 0.  1.
         11    1    3    3    0    0  0.88993145648E+01 -0.13727506397E+02  0.34673210100E+01  0.16723173946E+02  0.51100000000E-03 0. -1.
        -11    1    3    3    0    0 -0.58565738995E+00 -0.39099333615E+01 -0.38981439831E+01  0.55521257410E+01  0.51100000000E-03 0.  1.
         12    1    3    3    0    0  0.10066897846E+02 -0.80930990335E+01 -0.25128132091E+02  0.28253560954E+02  0.00000000000E+00 0. -1.
</event>
<event>
 7    1  0.5487071E-013  0.5052887E+02  0.7816164E-02  0.1300439E+00
        -11   -1    0    0    0    0  0.00000000000E+00  0.00000000000E+00  0.45593999997E+02  0.45594000000E+02  0.51100000000E-03 0. -1.
         11   -1    0    0    0    0 -0.00000000000E+00 -0.00000000000E+00 -0.45593999997E+02  0.45594000000E+02  0.51100000000E-03 0.  1.
    9900012    2    1    2    0    0 -0.37954134218E+02  0.11834945440E+02  0.85195470541E+01  0.50528869171E+02  0.30000028331E+02 0.  0.
        -12    1    1    2    0    0  0.37954134218E+02 -0.11834945440E+02 -0.85195470541E+01  0.40659130829E+02  0.00000000000E+00 0.  1.
         11    1    3    3    0    0 -0.23813371733E+02  0.41732922848E+01 -0.63753717464E+00  0.24184695485E+02  0.51100000000E-03 0. -1.
        -11    1    3    3    0    0 -0.18022878291E+01  0.79779738539E+01 -0.32892581776E+01  0.88156410914E+01  0.51100000000E-03 0.  1.
        -12    1    3    3    0    0 -0.12338474656E+02 -0.31632069872E+00  0.12446342406E+02  0.17528532595E+02  0.00000000000E+00 0.  1.
</event>
<event>
 7    1  0.5487071E-013  0.5052895E+02  0.7816164E-02  0.1300438E+00
        -11   -1    0    0    0    0  0.00000000000E+00  0.00000000000E+00  0.45593999997E+02  0.45594000000E+02  0.51100000000E-03 0.  1.
         11   -1    0    0    0    0 -0.00000000000E+00 -0.00000000000E+00 -0.45593999997E+02  0.45594000000E+02  0.51100000000E-03 0. -1.
    9900012    2    1    2    0    0  0.25998299773E+02 -0.23823684819E+02 -0.20240525903E+02  0.50528948877E+02  0.30000270604E+02 0.  0.
        -12    1    1    2    0    0 -0.25998299773E+02  0.23823684819E+02  0.20240525903E+02  0.40659051123E+02  0.00000000000E+00 0.  1.
         11    1    3    3    0    0  0.17202180799E+02 -0.21048039261E+02 -0.26835814287E+02  0.38198113954E+02  0.51100000000E-03 0. -1.
        -11    1    3    3    0    0  0.13310257275E+01 -0.53950630093E+00 -0.75144301451E+00  0.16209143719E+01  0.51100000000E-03 0.  1.
        -12    1    3    3    0    0  0.74650932464E+01 -0.22361392567E+01  0.73467313984E+01  0.10709920550E+02  0.00000000000E+00 0.  1.
</event>
<event>
 7    1  0.5487071E-013  0.5052886E+02  0.7816164E-02  0.1300439E+00
        -11   -1    0    0    0    0  0.00000000000E+00  0.00000000000E+00  0.45593999997E+02  0.45594000000E+02  0.51100000000E-03 0. -1.
         11   -1    0    0    0    0 -0.00000000000E+00 -0.00000000000E+00 -0.45593999997E+02  0.45594000000E+02  0.51100000000E-03 0.  1.
    9900012    2    1    2    0    0 -0.31122465535E+02 -0.23519909756E+01  0.26058125016E+02  0.50528860783E+02  0.30000002835E+02 0.  0.
        -12    1    1    2    0    0  0.31122465535E+02  0.23519909756E+01 -0.26058125016E+02  0.40659139217E+02  0.00000000000E+00 0.  1.
         11    1    3    3    0    0 -0.30771950537E+01 -0.64726381554E+01  0.85252390230E+01  0.11137498586E+02  0.51100000000E-03 0. -1.
        -11    1    3    3    0    0 -0.52803094929E+00 -0.41964267158E+01  0.80979406377E+01  0.91359431203E+01  0.51100000000E-03 0.  1.
         12    1    3    3    0    0 -0.27517239532E+02  0.83170738955E+01  0.94349453558E+01  0.30255419077E+02  0.00000000000E+00 0. -1.
</event>
<event>
 7    1  0.5487071E-013  0.5052886E+02  0.7816164E-02  0.1300439E+00
        -11   -1    0    0    0    0  0.00000000000E+00  0.00000000000E+00  0.45593999997E+02  0.45594000000E+02  0.51100000000E-03 0.  1.
         11   -1    0    0    0    0 -0.00000000000E+00 -0.00000000000E+00 -0.45593999997E+02  0.45594000000E+02  0.51100000000E-03 0. -1.
    9900012    2    1    2    0    0  0.20722633187E+02 -0.27063910018E+02  0.22164908318E+02  0.50528856964E+02  0.29999991229E+02 0.  0.
        -12    1    1    2    0    0 -0.20722633187E+02  0.27063910018E+02 -0.22164908318E+02  0.40659143036E+02  0.00000000000E+00 0.  1.
         11    1    3    3    0    0  0.71120293310E+01 -0.88202979275E+01  0.11435719360E+01  0.11387992526E+02  0.51100000000E-03 0. -1.
        -11    1    3    3    0    0 -0.13463772106E+01 -0.10706969203E+02 -0.16889085927E+01  0.10922652315E+02  0.51100000000E-03 0.  1.
        -12    1    3    3    0    0  0.14956981067E+02 -0.75366428877E+01  0.22710244974E+02  0.28218212123E+02  0.00000000000E+00 0.  1.
</event>
<event>
 7    1  0.5487071E-013  0.5052886E+02  0.7816164E-02  0.1300439E+00
        -11   -1    0    0    0    0  0.00000000000E+00  0.00000000000E+00  0.45593999997E+02  0.45594000000E+02  0.51100000000E-03 0.  1.
         11   -1    0    0    0    0 -0.00000000000E+00 -0.00000000000E+00 -0.45593999997E+02  0.45594000000E+02  0.51100000000E-03 0. -1.
    9900012    2    1    2    0    0  0.26812316435E+02 -0.39340580358E+01 -0.30311531133E+02  0.50528855335E+02  0.29999986276E+02 0.  0.
        -12    1    1    2    0    0 -0.26812316435E+02  0.39340580358E+01  0.30311531133E+02  0.40659144665E+02  0.00000000000E+00 0.  1.
         11    1    3    3    0    0  0.13431655166E+02 -0.10316604331E+02 -0.18362113770E+02  0.24980170291E+02  0.51100000000E-03 0. -1.
        -11    1    3    3    0    0  0.12484006442E+02 -0.29997174389E+01 -0.89758769386E+01  0.15665729751E+02  0.51100000000E-03 0.  1.
        -12    1    3    3    0    0  0.89665482639E+00  0.93822637338E+01 -0.29735404247E+01  0.98829552921E+01  0.00000000000E+00 0.  1.
</event>
<event>
 7    1  0.5487071E-013  0.5052887E+02  0.7816164E-02  0.1300439E+00
        -11   -1    0    0    0    0  0.00000000000E+00  0.00000000000E+00  0.45593999997E+02  0.45594000000E+02  0.51100000000E-03 0.  1.
         11   -1    0    0    0    0 -0.00000000000E+00 -0.00000000000E+00 -0.45593999997E+02  0.45594000000E+02  0.51100000000E-03 0. -1.
    9900012    2    1    2    0    0 -0.39475578068E+02 -0.57705353589E+01 -0.78450352235E+01  0.50528869171E+02  0.30000028332E+02 0.  0.
        -12    1    1    2    0    0  0.39475578068E+02  0.57705353589E+01  0.78450352235E+01  0.40659130829E+02  0.00000000000E+00 0.  1.
         11    1    3    3    0    0  0.33263967832E-01  0.30280883903E+00 -0.48983007908E+00  0.57683052281E+00  0.51100000000E-03 0.  1.
        -11    1    3    3    0    0 -0.29252957878E+02  0.85837836119E+01  0.31522206512E+00  0.30487968954E+02  0.51100000000E-03 0. -1.
        -12    1    3    3    0    0 -0.10255884158E+02 -0.14657127810E+02 -0.76704272095E+01  0.19464069694E+02  0.00000000000E+00 0.  1.
</event>
<event>
 7    1  0.5487071E-013  0.5052886E+02  0.7816164E-02  0.1300439E+00
        -11   -1    0    0    0    0  0.00000000000E+00  0.00000000000E+00  0.45593999997E+02  0.45594000000E+02  0.51100000000E-03 0.  1.
         11   -1    0    0    0    0 -0.00000000000E+00 -0.00000000000E+00 -0.45593999997E+02  0.45594000000E+02  0.51100000000E-03 0. -1.
    9900012    2    1    2    0    0  0.33795826094E+02 -0.79306088757E+01 -0.21168686699E+02  0.50528859391E+02  0.29999998605E+02 0.  0.
        -12    1    1    2    0    0 -0.33795826094E+02  0.79306088757E+01  0.21168686699E+02  0.40659140609E+02  0.00000000000E+00 0.  1.
         11    1    3    3    0    0  0.11966387436E+02 -0.12177657649E+01  0.52125832507E+00  0.12039480563E+02  0.51100000000E-03 0. -1.
        -11    1    3    3    0    0  0.59235344698E+01  0.75871163376E+01 -0.10870546849E+02  0.14519689528E+02  0.51100000000E-03 0.  1.
        -12    1    3    3    0    0  0.15905904188E+02 -0.14299959448E+02 -0.10819398175E+02  0.23969689300E+02  0.00000000000E+00 0.  1.
</event>
<event>
 7    1  0.5487071E-013  0.5052886E+02  0.7816164E-02  0.1300439E+00
        -11   -1    0    0    0    0  0.00000000000E+00  0.00000000000E+00  0.45593999997E+02  0.45594000000E+02  0.51100000000E-03 0. -1.
         11   -1    0    0    0    0 -0.00000000000E+00 -0.00000000000E+00 -0.45593999997E+02  0.45594000000E+02  0.51100000000E-03 0.  1.
    9900012    2    1    2    0    0 -0.31423638446E+02 -0.74670365336E+01 -0.24697447621E+02  0.50528860723E+02  0.30000002653E+02 0.  0.
        -12    1    1    2    0    0  0.31423638446E+02  0.74670365336E+01  0.24697447621E+02  0.40659139277E+02  0.00000000000E+00 0.  1.
         11    1    3    3    0    0 -0.96664301756E+01 -0.98965688144E+01 -0.96472242931E+01  0.16865671746E+02  0.51100000000E-03 0. -1.
        -11    1    3    3    0    0  0.29226667484E+01  0.17084004298E+01 -0.68599258982E+01  0.76497840846E+01  0.51100000000E-03 0.  1.
         12    1    3    3    0    0 -0.24679875019E+02  0.72113185093E+00 -0.81902974296E+01  0.26013404892E+02  0.00000000000E+00 0. -1.
</event>
<event>
 7    1  0.5487071E-013  0.5052885E+02  0.7816164E-02  0.1300439E+00
        -11   -1    0    0    0    0  0.00000000000E+00  0.00000000000E+00  0.45593999997E+02  0.45594000000E+02  0.51100000000E-03 0.  1.
         11   -1    0    0    0    0 -0.00000000000E+00 -0.00000000000E+00 -0.45593999997E+02  0.45594000000E+02  0.51100000000E-03 0. -1.
    9900012    2    1    2    0    0 -0.33294023711E+02 -0.22755982566E+02  0.51806793902E+01  0.50528853472E+02  0.29999980615E+02 0.  0.
        -12    1    1    2    0    0  0.33294023711E+02  0.22755982566E+02 -0.51806793902E+01  0.40659146528E+02  0.00000000000E+00 0.  1.
         11    1    3    3    0    0 -0.95653686492E+01 -0.68318967865E+01 -0.33424980851E+01  0.12220613111E+02  0.51100000000E-03 0. -1.
        -11    1    3    3    0    0 -0.18316686562E+02 -0.13127730201E+02 -0.53455648920E+01  0.23160599541E+02  0.51100000000E-03 0.  1.
        -12    1    3    3    0    0 -0.54119685001E+01 -0.27963555781E+01  0.13868742367E+02  0.15147640820E+02  0.00000000000E+00 0.  1.
</event>
<event>
 7    1  0.5487071E-013  0.5052886E+02  0.7816164E-02  0.1300439E+00
        -11   -1    0    0    0    0  0.00000000000E+00  0.00000000000E+00  0.45593999997E+02  0.45594000000E+02  0.51100000000E-03 0.  1.
         11   -1    0    0    0    0 -0.00000000000E+00 -0.00000000000E+00 -0.45593999997E+02  0.45594000000E+02  0.51100000000E-03 0. -1.
    9900012    2    1    2    0    0  0.35593747947E+02  0.18836069039E+02 -0.56083009306E+01  0.50528862907E+02  0.30000009293E+02 0.  0.
        -12    1    1    2    0    0 -0.35593747947E+02 -0.18836069039E+02  0.56083009306E+01  0.40659137093E+02  0.00000000000E+00 0.  1.
         11    1    3    3    0    0  0.17999792452E+02  0.21876084631E+02 -0.30468783305E+01  0.28492789877E+02  0.51100000000E-03 0. -1.
        -11    1    3    3    0    0  0.82897267939E+01  0.19175458918E+01  0.42231890135E+01  0.94990461769E+01  0.51100000000E-03 0.  1.
        -12    1    3    3    0    0  0.93042287010E+01 -0.49575614838E+01 -0.67846116136E+01  0.12537026854E+02  0.00000000000E+00 0.  1.
</event>
<event>
 7    1  0.5487071E-013  0.5052885E+02  0.7816164E-02  0.1300439E+00
        -11   -1    0    0    0    0  0.00000000000E+00  0.00000000000E+00  0.45593999997E+02  0.45594000000E+02  0.51100000000E-03 0.  1.
         11   -1    0    0    0    0 -0.00000000000E+00 -0.00000000000E+00 -0.45593999997E+02  0.45594000000E+02  0.51100000000E-03 0. -1.
    9900012    2    1    2    0    0 -0.28613467683E+01  0.13007854635E+02 -0.38415819839E+02  0.50528846031E+02  0.29999957996E+02 0.  0.
        -12    1    1    2    0    0  0.28613467683E+01 -0.13007854635E+02  0.38415819839E+02  0.40659153969E+02  0.00000000000E+00 0.  1.
         11    1    3    3    0    0  0.30739441127E+01  0.40231609710E+01 -0.24811919593E+02  0.25323236578E+02  0.51100000000E-03 0. -1.
        -11    1    3    3    0    0  0.42811647477E+01  0.10036488445E+02 -0.77542441307E+01  0.13386103773E+02  0.51100000000E-03 0.  1.
         12    1    3    3    0    0 -0.10216455629E+02 -0.10517947810E+01 -0.58496561155E+01  0.11819505681E+02  0.00000000000E+00 0. -1.
</event>
<event>
 7    1  0.5487071E-013  0.5052883E+02  0.7816164E-02  0.1300439E+00
        -11   -1    0    0    0    0  0.00000000000E+00  0.00000000000E+00  0.45593999997E+02  0.45594000000E+02  0.51100000000E-03 0. -1.
         11   -1    0    0    0    0 -0.00000000000E+00 -0.00000000000E+00 -0.45593999997E+02  0.45594000000E+02  0.51100000000E-03 0.  1.
    9900012    2    1    2    0    0 -0.13154356182E+02 -0.30218638782E+02  0.23811028410E+02  0.50528827722E+02  0.29999902343E+02 0.  0.
        -12    1    1    2    0    0  0.13154356182E+02  0.30218638782E+02 -0.23811028410E+02  0.40659172278E+02  0.00000000000E+00 0.  1.
         11    1    3    3    0    0  0.29988329407E+01 -0.20802450496E+01 -0.17030522252E+01  0.40275061285E+01  0.51100000000E-03 0. -1.
        -11    1    3    3    0    0 -0.11116763128E+01 -0.10261112658E+02 -0.18868627994E+01  0.10492211811E+02  0.51100000000E-03 0.  1.
         12    1    3    3    0    0 -0.15041512810E+02 -0.17877281074E+02  0.27400943435E+02  0.36009109782E+02  0.00000000000E+00 0. -1.
</event>
<event>
 7    1  0.5487071E-013  0.5052886E+02  0.7816164E-02  0.1300439E+00
        -11   -1    0    0    0    0  0.00000000000E+00  0.00000000000E+00  0.45593999997E+02  0.45594000000E+02  0.51100000000E-03 0.  1.
         11   -1    0    0    0    0 -0.00000000000E+00 -0.00000000000E+00 -0.45593999997E+02  0.45594000000E+02  0.51100000000E-03 0. -1.
    9900012    2    1    2    0    0 -0.34132737321E+02 -0.20754101639E+02  0.75755719787E+01  0.50528858560E+02  0.29999996079E+02 0.  0.
        -12    1    1    2    0    0  0.34132737321E+02  0.20754101639E+02 -0.75755719787E+01  0.40659141440E+02  0.00000000000E+00 0.  1.
         11    1    3    3    0    0 -0.22173602278E+02 -0.12628776639E+01  0.11047231797E+01  0.22236994211E+02  0.51100000000E-03 0. -1.
        -11    1    3    3    0    0 -0.12714695554E+02 -0.17527929620E+02  0.17580525925E+00  0.21654623238E+02  0.51100000000E-03 0.  1.
        -12    1    3    3    0    0  0.75556051105E+00 -0.19632943543E+01  0.62950435397E+01  0.66372411117E+01  0.00000000000E+00 0.  1.
</event>
<event>
 7    1  0.5487071E-013  0.5052885E+02  0.7816164E-02  0.1300439E+00
        -11   -1    0    0    0    0  0.00000000000E+00  0.00000000000E+00  0.45593999997E+02  0.45594000000E+02  0.51100000000E-03 0.  1.
         11   -1    0    0    0    0 -0.00000000000E+00 -0.00000000000E+00 -0.45593999997E+02  0.45594000000E+02  0.51100000000E-03 0. -1.
    9900012    2    1    2    0    0 -0.20232937451E+02 -0.34914582527E+02 -0.49766212588E+01  0.50528848631E+02  0.29999965898E+02 0.  0.
        -12    1    1    2    0    0  0.20232937451E+02  0.34914582527E+02  0.49766212588E+01  0.40659151369E+02  0.00000000000E+00 0.  1.
         11    1    3    3    0    0  0.12902739336E+01 -0.14974881606E+02  0.18305763206E+00  0.15031480176E+02  0.51100000000E-03 0. -1.
        -11    1    3    3    0    0 -0.12866544776E+02 -0.61158740991E+01 -0.11181997795E+02  0.18110465632E+02  0.51100000000E-03 0.  1.
         12    1    3    3    0    0 -0.86566666087E+01 -0.13823826821E+02  0.60223189040E+01  0.17386902822E+02  0.00000000000E+00 0. -1.
</event>
<event>
 7    1  0.5487071E-013  0.5052886E+02  0.7816164E-02  0.1300439E+00
        -11   -1    0    0    0    0  0.00000000000E+00  0.00000000000E+00  0.45593999997E+02  0.45594000000E+02  0.51100000000E-03 0. -1.
         11   -1    0    0    0    0 -0.00000000000E+00 -0.00000000000E+00 -0.45593999997E+02  0.45594000000E+02  0.51100000000E-03 0.  1.
    9900012    2    1    2    0    0  0.16928758695E+02  0.21998074181E+02  0.29709718646E+02  0.50528861781E+02  0.30000005871E+02 0.  0.
        -12    1    1    2    0    0 -0.16928758695E+02 -0.21998074181E+02 -0.29709718646E+02  0.40659138219E+02  0.00000000000E+00 0.  1.
         11    1    3    3    0    0  0.15827411927E+02  0.16251490710E+02  0.19520858506E+02  0.29927944060E+02  0.51100000000E-03 0. -1.
        -11    1    3    3    0    0  0.79956643100E+01  0.33015937184E+01  0.10082824990E+02  0.13285124346E+02  0.51100000000E-03 0.  1.
        -12    1    3    3    0    0 -0.68943175421E+01  0.24449897525E+01  0.10603515090E+00  0.73157933755E+01  0.00000000000E+00 0.  1.
</event>
<event>
 7    1  0.5487071E-013  0.5052887E+02  0.7816164E-02  0.1300439E+00
        -11   -1    0    0    0    0  0.00000000000E+00  0.00000000000E+00  0.45593999997E+02  0.45594000000E+02  0.51100000000E-03 0. -1.
         11   -1    0    0    0    0 -0.00000000000E+00 -0.00000000000E+00 -0.45593999997E+02  0.45594000000E+02  0.51100000000E-03 0.  1.
    9900012    2    1    2    0    0  0.16286484853E+02  0.35708601385E+02 -0.10621264063E+02  0.50528867544E+02  0.30000023388E+02 0.  0.
        -12    1    1    2    0    0 -0.16286484853E+02 -0.35708601385E+02  0.10621264063E+02  0.40659132456E+02  0.00000000000E+00 0.  1.
         11    1    3    3    0    0  0.41975055517E+01  0.52744461187E+00 -0.81129858930E+01  0.91497426760E+01  0.51100000000E-03 0. -1.
        -11    1    3    3    0    0 -0.50593859289E+00 -0.19768502913E+01 -0.45627730111E+00  0.20909567596E+01  0.51100000000E-03 0.  1.
         12    1    3    3    0    0  0.12594917894E+02  0.37158007064E+02 -0.20520008693E+01  0.39288168109E+02  0.00000000000E+00 0. -1.
</event>
<event>
 7    1  0.5487071E-013  0.5052886E+02  0.7816164E-02  0.1300439E+00
        -11   -1    0    0    0    0  0.00000000000E+00  0.00000000000E+00  0.45593999997E+02  0.45594000000E+02  0.51100000000E-03 0.  1.
         11   -1    0    0    0    0 -0.00000000000E+00 -0.00000000000E+00 -0.45593999997E+02  0.45594000000E+02  0.51100000000E-03 0. -1.
    9900012    2    1    2    0    0 -0.88204761811E+01  0.31906494345E+02 -0.23608063886E+02  0.50528857586E+02  0.29999993118E+02 0.  0.
        -12    1    1    2    0    0  0.88204761811E+01 -0.31906494345E+02  0.23608063886E+02  0.40659142414E+02  0.00000000000E+00 0.  1.
         11    1    3    3    0    0 -0.14443359854E+01 -0.79092773803E+00 -0.28567935948E+01  0.32974145978E+01  0.51100000000E-03 0. -1.
        -11    1    3    3    0    0  0.10740025925E+01 -0.34659541610E+01  0.15130756282E+01  0.39313760864E+01  0.51100000000E-03 0.  1.
         12    1    3    3    0    0 -0.84501427883E+01  0.36163376244E+02 -0.22264345919E+02  0.43300066902E+02  0.00000000000E+00 0. -1.
</event>
<event>
 7    1  0.5487071E-013  0.5052875E+02  0.7816164E-02  0.1300439E+00
        -11   -1    0    0    0    0  0.00000000000E+00  0.00000000000E+00  0.45593999997E+02  0.45594000000E+02  0.51100000000E-03 0.  1.
         11   -1    0    0    0    0 -0.00000000000E+00 -0.00000000000E+00 -0.45593999997E+02  0.45594000000E+02  0.51100000000E-03 0. -1.
    9900012    2    1    2    0    0  0.32491153929E+02  0.20494617884E+02 -0.13321801061E+02  0.50528747309E+02  0.29999657919E+02 0.  0.
        -12    1    1    2    0    0 -0.32491153929E+02 -0.20494617884E+02  0.13321801061E+02  0.40659252691E+02  0.00000000000E+00 0.  1.
         11    1    3    3    0    0  0.21785201792E+02  0.21689161161E+01 -0.75999461374E+01  0.23174520400E+02  0.51100000000E-03 0. -1.
        -11    1    3    3    0    0 -0.38333907717E+01  0.86832914810E+00 -0.19570390426E-01  0.39305551236E+01  0.51100000000E-03 0.  1.
         12    1    3    3    0    0  0.14539342909E+02  0.17457372620E+02 -0.57022845335E+01  0.23423671786E+02  0.00000000000E+00 0. -1.
</event>
<event>
 7    1  0.5487071E-013  0.5052885E+02  0.7816164E-02  0.1300439E+00
        -11   -1    0    0    0    0  0.00000000000E+00  0.00000000000E+00  0.45593999997E+02  0.45594000000E+02  0.51100000000E-03 0.  1.
         11   -1    0    0    0    0 -0.00000000000E+00 -0.00000000000E+00 -0.45593999997E+02  0.45594000000E+02  0.51100000000E-03 0. -1.
    9900012    2    1    2    0    0 -0.11455919690E+02 -0.84610688827E+01 -0.38083312902E+02  0.50528849687E+02  0.29999969110E+02 0.  0.
        -12    1    1    2    0    0  0.11455919690E+02  0.84610688827E+01  0.38083312902E+02  0.40659150313E+02  0.00000000000E+00 0.  1.
         11    1    3    3    0    0 -0.72896973058E+01  0.36461203129E+01 -0.94227709919E+01  0.12458831951E+02  0.51100000000E-03 0. -1.
        -11    1    3    3    0    0  0.37910721663E+01 -0.36208626259E+00 -0.22124673422E+02  0.22450044742E+02  0.51100000000E-03 0.  1.
        -12    1    3    3    0    0 -0.79572945506E+01 -0.11745102933E+02 -0.65358684879E+01  0.15619972995E+02  0.00000000000E+00 0.  1.
</event>
<event>
 7    1  0.5487071E-013  0.5052888E+02  0.7816164E-02  0.1300439E+00
        -11   -1    0    0    0    0  0.00000000000E+00  0.00000000000E+00  0.45593999997E+02  0.45594000000E+02  0.51100000000E-03 0.  1.
         11   -1    0    0    0    0 -0.00000000000E+00 -0.00000000000E+00 -0.45593999997E+02  0.45594000000E+02  0.51100000000E-03 0. -1.
    9900012    2    1    2    0    0 -0.34999665125E+02  0.13621713653E+01 -0.20647814616E+02  0.50528876569E+02  0.30000050821E+02 0.  0.
        -12    1    1    2    0    0  0.34999665125E+02 -0.13621713653E+01  0.20647814616E+02  0.40659123431E+02  0.00000000000E+00 0.  1.
         11    1    3    3    0    0 -0.86324600150E+01  0.52051839157E+01 -0.10225745150E+02  0.14358940408E+02  0.51100000000E-03 0. -1.
        -11    1    3    3    0    0 -0.23070175386E+02  0.42598496717E+01 -0.13291070141E+02  0.26963528280E+02  0.51100000000E-03 0.  1.
        -12    1    3    3    0    0 -0.32970297248E+01 -0.81028622221E+01  0.28690006757E+01  0.92064078811E+01  0.00000000000E+00 0.  1.
</event>
<event>
 7    1  0.5487071E-013  0.5052886E+02  0.7816164E-02  0.1300439E+00
        -11   -1    0    0    0    0  0.00000000000E+00  0.00000000000E+00  0.45593999997E+02  0.45594000000E+02  0.51100000000E-03 0. -1.
         11   -1    0    0    0    0 -0.00000000000E+00 -0.00000000000E+00 -0.45593999997E+02  0.45594000000E+02  0.51100000000E-03 0.  1.
    9900012    2    1    2    0    0  0.11041052932E+02 -0.26390370920E+02  0.28893064629E+02  0.50528859443E+02  0.29999998764E+02 0.  0.
        -12    1    1    2    0    0 -0.11041052932E+02  0.26390370920E+02 -0.28893064629E+02  0.40659140557E+02  0.00000000000E+00 0.  1.
         11    1    3    3    0    0  0.18809511403E+01  0.26317038229E+01  0.32826468308E+01  0.46086454280E+01  0.51100000000E-03 0. -1.
        -11    1    3    3    0    0 -0.24456404835E+01 -0.13704368992E+02  0.24666976112E-01  0.13920901392E+02  0.51100000000E-03 0.  1.
         12    1    3    3    0    0  0.11605742275E+02 -0.15317705751E+02  0.25585750822E+02  0.31999312623E+02  0.00000000000E+00 0. -1.
</event>
<event>
 7    1  0.6173547E-013  0.5052885E+02  0.7816164E-02  0.1300439E+00
        -11   -1    0    0    0    0  0.00000000000E+00  0.00000000000E+00  0.45593999997E+02  0.45594000000E+02  0.51100000000E-03 0. -1.
         11   -1    0    0    0    0 -0.00000000000E+00 -0.00000000000E+00 -0.45593999997E+02  0.45594000000E+02  0.51100000000E-03 0.  1.
    9900012    2    1    2    0    0  0.18307891478E+02 -0.18777279033E+02  0.31070910519E+02  0.50528848770E+02  0.29999966322E+02 0.  0.
        -12    1    1    2    0    0 -0.18307891478E+02  0.18777279033E+02 -0.31070910519E+02  0.40659151230E+02  0.00000000000E+00 0.  1.
         11    1    3    3    0    0  0.13396761545E+02 -0.12375399754E+02  0.15941196956E+02  0.24222830133E+02  0.51100000000E-03 0. -1.
        -11    1    3    3    0    0  0.25425125321E+01 -0.38655288397E+00 -0.47500135310E+01  0.54015203335E+01  0.51100000000E-03 0.  1.
         12    1    3    3    0    0  0.23686174007E+01 -0.60153263948E+01  0.19879727093E+02  0.20904498304E+02  0.00000000000E+00 0. -1.
</event>
<event>
 7    1  0.5487071E-013  0.5052886E+02  0.7816164E-02  0.1300439E+00
        -11   -1    0    0    0    0  0.00000000000E+00  0.00000000000E+00  0.45593999997E+02  0.45594000000E+02  0.51100000000E-03 0.  1.
         11   -1    0    0    0    0 -0.00000000000E+00 -0.00000000000E+00 -0.45593999997E+02  0.45594000000E+02  0.51100000000E-03 0. -1.
    9900012    2    1    2    0    0  0.65227666764E+01 -0.13588340177E+00 -0.40132293492E+02  0.50528856743E+02  0.29999990557E+02 0.  0.
        -12    1    1    2    0    0 -0.65227666764E+01  0.13588340177E+00  0.40132293492E+02  0.40659143257E+02  0.00000000000E+00 0.  1.
         11    1    3    3    0    0  0.19424450731E+00 -0.33957953378E+01 -0.24716800462E+02  0.24949737118E+02  0.51100000000E-03 0. -1.
        -11    1    3    3    0    0  0.13942284303E+01 -0.50756979428E+01 -0.14985437520E+02  0.15883007286E+02  0.51100000000E-03 0.  1.
        -12    1    3    3    0    0  0.49342937388E+01  0.83356098789E+01 -0.43005550987E+00  0.96961123392E+01  0.00000000000E+00 0.  1.
</event>
<event>
 7    1  0.5487071E-013  0.5052886E+02  0.7816164E-02  0.1300439E+00
        -11   -1    0    0    0    0  0.00000000000E+00  0.00000000000E+00  0.45593999997E+02  0.45594000000E+02  0.51100000000E-03 0. -1.
         11   -1    0    0    0    0 -0.00000000000E+00 -0.00000000000E+00 -0.45593999997E+02  0.45594000000E+02  0.51100000000E-03 0.  1.
    9900012    2    1    2    0    0  0.40299852219E+02  0.84040082961E+00 -0.53273867685E+01  0.50528863115E+02  0.30000009925E+02 0.  0.
        -12    1    1    2    0    0 -0.40299852219E+02 -0.84040082961E+00  0.53273867685E+01  0.40659136885E+02  0.00000000000E+00 0.  1.
         11    1    3    3    0    0  0.17332935605E+02  0.17483168302E+01  0.43482922299E+01  0.17955358921E+02  0.51100000000E-03 0. -1.
        -11    1    3    3    0    0  0.16548991035E+02  0.13686201274E+01 -0.16159666072E+02  0.23170607095E+02  0.51100000000E-03 0.  1.
         12    1    3    3    0    0  0.64179255790E+01 -0.22765361280E+01  0.64839870735E+01  0.94028970987E+01  0.00000000000E+00 0. -1.
</event>
<event>
 7    1  0.5487071E-013  0.5052886E+02  0.7816164E-02  0.1300439E+00
        -11   -1    0    0    0    0  0.00000000000E+00  0.00000000000E+00  0.45593999997E+02  0.45594000000E+02  0.51100000000E-03 0.  1.
         11   -1    0    0    0    0 -0.00000000000E+00 -0.00000000000E+00 -0.45593999997E+02  0.45594000000E+02  0.51100000000E-03 0. -1.
    9900012    2    1    2    0    0 -0.10853732691E+02 -0.93535051706E+01 -0.38050941059E+02  0.50528859726E+02  0.29999999625E+02 0.  0.
        -12    1    1    2    0    0  0.10853732691E+02  0.93535051706E+01  0.38050941059E+02  0.40659140274E+02  0.00000000000E+00 0.  1.
         11    1    3    3    0    0 -0.35223375220E+01 -0.58722636326E+01 -0.85151260586E+01  0.10926926093E+02  0.51100000000E-03 0. -1.
        -11    1    3    3    0    0 -0.39711496783E+01 -0.62371570451E+01 -0.33140718392E+02  0.33955549968E+02  0.51100000000E-03 0.  1.
        -12    1    3    3    0    0 -0.33602454904E+01  0.27559155070E+01  0.36049033919E+01  0.56463836659E+01  0.00000000000E+00 0.  1.
</event>
<event>
 7    1  0.5487071E-013  0.5052886E+02  0.7816164E-02  0.1300439E+00
        -11   -1    0    0    0    0  0.00000000000E+00  0.00000000000E+00  0.45593999997E+02  0.45594000000E+02  0.51100000000E-03 0. -1.
         11   -1    0    0    0    0 -0.00000000000E+00 -0.00000000000E+00 -0.45593999997E+02  0.45594000000E+02  0.51100000000E-03 0.  1.
    9900012    2    1    2    0    0 -0.30337583274E+02  0.23468169531E-02  0.27070219584E+02  0.50528858927E+02  0.29999997195E+02 0.  0.
        -12    1    1    2    0    0  0.30337583274E+02 -0.23468169531E-02 -0.27070219584E+02  0.40659141073E+02  0.00000000000E+00 0.  1.
         11    1    3    3    0    0 -0.61281300580E+01 -0.33848331318E+01  0.94863155768E+01  0.11789879424E+02  0.51100000000E-03 0. -1.
        -11    1    3    3    0    0 -0.74453776887E+01 -0.11041633760E+01  0.19856807382E+02  0.21235480342E+02  0.51100000000E-03 0.  1.
         12    1    3    3    0    0 -0.16764075528E+02  0.44913433248E+01 -0.22729033745E+01  0.17503499162E+02  0.00000000000E+00 0. -1.
</event>
<event>
 7    1  0.5487071E-013  0.5052889E+02  0.7816164E-02  0.1300439E+00
        -11   -1    0    0    0    0  0.00000000000E+00  0.00000000000E+00  0.45593999997E+02  0.45594000000E+02  0.51100000000E-03 0.  1.
         11   -1    0    0    0    0 -0.00000000000E+00 -0.00000000000E+00 -0.45593999997E+02  0.45594000000E+02  0.51100000000E-03 0. -1.
    9900012    2    1    2    0    0 -0.88460501704E+01  0.13230368535E+01 -0.39663086371E+02  0.50528887238E+02  0.30000083247E+02 0.  0.
        -12    1    1    2    0    0  0.88460501704E+01 -0.13230368535E+01  0.39663086371E+02  0.40659112762E+02  0.00000000000E+00 0.  1.
         11    1    3    3    0    0  0.14979446898E+01  0.26070998642E+01 -0.12154032346E+01  0.32431486675E+01  0.51100000000E-03 0. -1.
        -11    1    3    3    0    0 -0.57886997276E+00 -0.25759324336E+00  0.38303878950E+01  0.38824369167E+01  0.51100000000E-03 0.  1.
         12    1    3    3    0    0 -0.97651248875E+01 -0.10264697673E+01 -0.42278071032E+02  0.43403301653E+02  0.00000000000E+00 0. -1.
</event>
<event>
 7    1  0.5487071E-013  0.5052887E+02  0.7816164E-02  0.1300439E+00
        -11   -1    0    0    0    0  0.00000000000E+00  0.00000000000E+00  0.45593999997E+02  0.45594000000E+02  0.51100000000E-03 0. -1.
         11   -1    0    0    0    0 -0.00000000000E+00 -0.00000000000E+00 -0.45593999997E+02  0.45594000000E+02  0.51100000000E-03 0.  1.
    9900012    2    1    2    0    0  0.90036280892E+01  0.41927465116E+01  0.39427411811E+02  0.50528865182E+02  0.30000016206E+02 0.  0.
        -12    1    1    2    0    0 -0.90036280892E+01 -0.41927465116E+01 -0.39427411811E+02  0.40659134818E+02  0.00000000000E+00 0.  1.
         11    1    3    3    0    0 -0.24275553297E+01 -0.37623424426E+01  0.20418522585E+02  0.20903691309E+02  0.51100000000E-03 0. -1.
        -11    1    3    3    0    0  0.16239426936E+02  0.49897005338E+01  0.15337090344E+02  0.22887604486E+02  0.51100000000E-03 0.  1.
         12    1    3    3    0    0 -0.48082435174E+01  0.29653884204E+01  0.36717988820E+01  0.67375693864E+01  0.00000000000E+00 0. -1.
</event>
<event>
 7    1  0.5487071E-013  0.5052885E+02  0.7816164E-02  0.1300439E+00
        -11   -1    0    0    0    0  0.00000000000E+00  0.00000000000E+00  0.45593999997E+02  0.45594000000E+02  0.51100000000E-03 0. -1.
         11   -1    0    0    0    0 -0.00000000000E+00 -0.00000000000E+00 -0.45593999997E+02  0.45594000000E+02  0.51100000000E-03 0.  1.
    9900012    2    1    2    0    0  0.37026995831E+02 -0.12754869100E+02  0.10930750101E+02  0.50528850921E+02  0.29999972861E+02 0.  0.
        -12    1    1    2    0    0 -0.37026995831E+02  0.12754869100E+02 -0.10930750101E+02  0.40659149079E+02  0.00000000000E+00 0.  1.
         11    1    3    3    0    0  0.83798495214E+01  0.45580971629E+01  0.21186992682E+01  0.97717457293E+01  0.51100000000E-03 0. -1.
        -11    1    3    3    0    0  0.81124210439E+00  0.11646551898E+01  0.71669586229E+01  0.73061502603E+01  0.51100000000E-03 0.  1.
        -12    1    3    3    0    0  0.27835904205E+02 -0.18477621453E+02  0.16450922095E+01  0.33450954932E+02  0.00000000000E+00 0.  1.
</event>
<event>
 7    1  0.5487071E-013  0.5052895E+02  0.7816164E-02  0.1300438E+00
        -11   -1    0    0    0    0  0.00000000000E+00  0.00000000000E+00  0.45593999997E+02  0.45594000000E+02  0.51100000000E-03 0. -1.
         11   -1    0    0    0    0 -0.00000000000E+00 -0.00000000000E+00 -0.45593999997E+02  0.45594000000E+02  0.51100000000E-03 0.  1.
    9900012    2    1    2    0    0 -0.64071764398E+01  0.13860145704E+02  0.37682925569E+02  0.50528948999E+02  0.30000270976E+02 0.  0.
        -12    1    1    2    0    0  0.64071764398E+01 -0.13860145704E+02 -0.37682925569E+02  0.40659051001E+02  0.00000000000E+00 0.  1.
         11    1    3    3    0    0 -0.64165726136E+00  0.12661338452E+02  0.34464345637E+02  0.36722096017E+02  0.51100000000E-03 0. -1.
        -11    1    3    3    0    0 -0.46450764730E+01  0.43954265106E+01  0.64803089923E+01  0.91044447687E+01  0.51100000000E-03 0.  1.
        -12    1    3    3    0    0 -0.11204427054E+01 -0.31966192588E+01 -0.32617290600E+01  0.47024082131E+01  0.00000000000E+00 0.  1.
</event>
<event>
 7    1  0.5487071E-013  0.5052887E+02  0.7816164E-02  0.1300439E+00
        -11   -1    0    0    0    0  0.00000000000E+00  0.00000000000E+00  0.45593999997E+02  0.45594000000E+02  0.51100000000E-03 0.  1.
         11   -1    0    0    0    0 -0.00000000000E+00 -0.00000000000E+00 -0.45593999997E+02  0.45594000000E+02  0.51100000000E-03 0. -1.
    9900012    2    1    2    0    0 -0.28733369965E+02 -0.15021515860E+02 -0.24533904079E+02  0.50528868951E+02  0.30000027664E+02 0.  0.
        -12    1    1    2    0    0  0.28733369965E+02  0.15021515860E+02  0.24533904079E+02  0.40659131049E+02  0.00000000000E+00 0.  1.
         11    1    3    3    0    0 -0.22976235344E+02 -0.87420023876E+01 -0.14234805223E+02  0.28407035683E+02  0.51100000000E-03 0.  1.
        -11    1    3    3    0    0 -0.93610194210E+01  0.24131644933E+01 -0.77013203369E+01  0.12359708033E+02  0.51100000000E-03 0. -1.
        -12    1    3    3    0    0  0.36038847994E+01 -0.86926779658E+01 -0.25977785186E+01  0.97621252346E+01  0.00000000000E+00 0.  1.
</event>
<event>
 7    1  0.5487071E-013  0.5052886E+02  0.7816164E-02  0.1300439E+00
        -11   -1    0    0    0    0  0.00000000000E+00  0.00000000000E+00  0.45593999997E+02  0.45594000000E+02  0.51100000000E-03 0.  1.
         11   -1    0    0    0    0 -0.00000000000E+00 -0.00000000000E+00 -0.45593999997E+02  0.45594000000E+02  0.51100000000E-03 0. -1.
    9900012    2    1    2    0    0 -0.18107028558E+02 -0.91657177200E+01 -0.35231960052E+02  0.50528857441E+02  0.29999992677E+02 0.  0.
        -12    1    1    2    0    0  0.18107028558E+02  0.91657177200E+01  0.35231960052E+02  0.40659142559E+02  0.00000000000E+00 0.  1.
         11    1    3    3    0    0 -0.15857011394E+02 -0.97258006737E+00 -0.10190720455E+02  0.18874361075E+02  0.51100000000E-03 0. -1.
        -11    1    3    3    0    0 -0.31702604589E+01  0.47132838803E+01 -0.39790428924E+01  0.69352994826E+01  0.51100000000E-03 0.  1.
         12    1    3    3    0    0  0.92024329490E+00 -0.12906421533E+02 -0.21062196705E+02  0.24719196883E+02  0.00000000000E+00 0. -1.
</event>
<event>
 7    1  0.5487071E-013  0.5052885E+02  0.7816164E-02  0.1300439E+00
        -11   -1    0    0    0    0  0.00000000000E+00  0.00000000000E+00  0.45593999997E+02  0.45594000000E+02  0.51100000000E-03 0.  1.
         11   -1    0    0    0    0 -0.00000000000E+00 -0.00000000000E+00 -0.45593999997E+02  0.45594000000E+02  0.51100000000E-03 0. -1.
    9900012    2    1    2    0    0 -0.19406655794E+02  0.33531195323E+02  0.12337213973E+02  0.50528853458E+02  0.29999980570E+02 0.  0.
        -12    1    1    2    0    0  0.19406655794E+02 -0.33531195323E+02 -0.12337213973E+02  0.40659146542E+02  0.00000000000E+00 0.  1.
         11    1    3    3    0    0 -0.51438983794E+01  0.47543265138E+01  0.11648557875E+01  0.71007183020E+01  0.51100000000E-03 0. -1.
        -11    1    3    3    0    0 -0.67381398276E+01  0.29187750421E+02  0.43100260251E-02  0.29955422243E+02  0.51100000000E-03 0.  1.
         12    1    3    3    0    0 -0.75246175875E+01 -0.41088161108E+00  0.11168048159E+02  0.13472712912E+02  0.00000000000E+00 0. -1.
</event>
<event>
 7    1  0.5487071E-013  0.5052884E+02  0.7816164E-02  0.1300439E+00
        -11   -1    0    0    0    0  0.00000000000E+00  0.00000000000E+00  0.45593999997E+02  0.45594000000E+02  0.51100000000E-03 0. -1.
         11   -1    0    0    0    0 -0.00000000000E+00 -0.00000000000E+00 -0.45593999997E+02  0.45594000000E+02  0.51100000000E-03 0.  1.
    9900012    2    1    2    0    0  0.30803160364E+02  0.16984887826E+02  0.20392302860E+02  0.50528842128E+02  0.29999946133E+02 0.  0.
        -12    1    1    2    0    0 -0.30803160364E+02 -0.16984887826E+02 -0.20392302860E+02  0.40659157872E+02  0.00000000000E+00 0.  1.
         11    1    3    3    0    0  0.20437067021E+02 -0.36012511698E+00  0.29531102164E+01  0.20652463745E+02  0.51100000000E-03 0. -1.
        -11    1    3    3    0    0  0.41956954493E+00 -0.69001084426E+00 -0.16230138163E+01  0.18128231236E+01  0.51100000000E-03 0.  1.
         12    1    3    3    0    0  0.99465237980E+01  0.18035023787E+02  0.19062206460E+02  0.28063555260E+02  0.00000000000E+00 0. -1.
</event>
<event>
 7    1  0.5487071E-013  0.5052886E+02  0.7816164E-02  0.1300439E+00
        -11   -1    0    0    0    0  0.00000000000E+00  0.00000000000E+00  0.45593999997E+02  0.45594000000E+02  0.51100000000E-03 0. -1.
         11   -1    0    0    0    0 -0.00000000000E+00 -0.00000000000E+00 -0.45593999997E+02  0.45594000000E+02  0.51100000000E-03 0.  1.
    9900012    2    1    2    0    0  0.61903461278E+01 -0.34074477947E+02 -0.21302002118E+02  0.50528859247E+02  0.29999998168E+02 0.  0.
        -12    1    1    2    0    0 -0.61903461278E+01  0.34074477947E+02  0.21302002118E+02  0.40659140753E+02  0.00000000000E+00 0.  1.
         11    1    3    3    0    0  0.67080566789E+01 -0.23133900585E+01 -0.20581007441E+01  0.73882052560E+01  0.51100000000E-03 0. -1.
        -11    1    3    3    0    0 -0.34001905737E+01 -0.60390363335E+01 -0.15512181232E+02  0.16989968293E+02  0.51100000000E-03 0.  1.
         12    1    3    3    0    0  0.28824800226E+01 -0.25722051555E+02 -0.37317201426E+01  0.26150685698E+02  0.00000000000E+00 0. -1.
</event>
<event>
 7    1  0.5487071E-013  0.5052890E+02  0.7816164E-02  0.1300439E+00
        -11   -1    0    0    0    0  0.00000000000E+00  0.00000000000E+00  0.45593999997E+02  0.45594000000E+02  0.51100000000E-03 0.  1.
         11   -1    0    0    0    0 -0.00000000000E+00 -0.00000000000E+00 -0.45593999997E+02  0.45594000000E+02  0.51100000000E-03 0. -1.
    9900012    2    1    2    0    0  0.52205551206E+01  0.15940376400E+02 -0.37037988623E+02  0.50528900197E+02  0.30000122638E+02 0.  0.
        -12    1    1    2    0    0 -0.52205551206E+01 -0.15940376400E+02  0.37037988623E+02  0.40659099803E+02  0.00000000000E+00 0.  1.
         11    1    3    3    0    0  0.76752447896E+01  0.71126622207E+01 -0.11171354645E+02  0.15306812578E+02  0.51100000000E-03 0. -1.
        -11    1    3    3    0    0  0.82756626954E+01 -0.21162262345E+01 -0.10215148362E+02  0.13315940179E+02  0.51100000000E-03 0.  1.
        -12    1    3    3    0    0 -0.10730352364E+02  0.10943940414E+02 -0.15651485617E+02  0.21906147440E+02  0.00000000000E+00 0.  1.
</event>
<event>
 7    1  0.5487071E-013  0.5052885E+02  0.7816164E-02  0.1300439E+00
        -11   -1    0    0    0    0  0.00000000000E+00  0.00000000000E+00  0.45593999997E+02  0.45594000000E+02  0.51100000000E-03 0.  1.
         11   -1    0    0    0    0 -0.00000000000E+00 -0.00000000000E+00 -0.45593999997E+02  0.45594000000E+02  0.51100000000E-03 0. -1.
    9900012    2    1    2    0    0 -0.37360365030E+02  0.14966154604E+02  0.57779025075E+01  0.50528845850E+02  0.29999957446E+02 0.  0.
        -12    1    1    2    0    0  0.37360365030E+02 -0.14966154604E+02 -0.57779025075E+01  0.40659154150E+02  0.00000000000E+00 0.  1.
         11    1    3    3    0    0 -0.23465105066E+02 -0.14289927750E+01 -0.30608583236E+01  0.23707003818E+02  0.51100000000E-03 0.  1.
        -11    1    3    3    0    0  0.25436342308E+01  0.24572945075E+01  0.24448741847E-01  0.35368021430E+01  0.51100000000E-03 0. -1.
        -12    1    3    3    0    0 -0.16438894195E+02  0.13937852872E+02  0.88143120893E+01  0.23285039889E+02  0.00000000000E+00 0.  1.
</event>
<event>
 7    1  0.5487071E-013  0.5052884E+02  0.7816164E-02  0.1300439E+00
        -11   -1    0    0    0    0  0.00000000000E+00  0.00000000000E+00  0.45593999997E+02  0.45594000000E+02  0.51100000000E-03 0.  1.
         11   -1    0    0    0    0 -0.00000000000E+00 -0.00000000000E+00 -0.45593999997E+02  0.45594000000E+02  0.51100000000E-03 0. -1.
    9900012    2    1    2    0    0 -0.13239979475E+02  0.38044588827E+02  0.55208000818E+01  0.50528843233E+02  0.29999949490E+02 0.  0.
        -12    1    1    2    0    0  0.13239979475E+02 -0.38044588827E+02 -0.55208000818E+01  0.40659156767E+02  0.00000000000E+00 0.  1.
         11    1    3    3    0    0 -0.91256322863E+00  0.19781861273E+02 -0.56447893567E+01  0.20591708385E+02  0.51100000000E-03 0. -1.
        -11    1    3    3    0    0  0.38270550682E+00 -0.29147067166E+01  0.21591914722E+01  0.36474767749E+01  0.51100000000E-03 0.  1.
        -12    1    3    3    0    0 -0.12710121754E+02  0.21177434271E+02  0.90063979663E+01  0.26289658073E+02  0.00000000000E+00 0.  1.
</event>
<event>
 7    1  0.5487071E-013  0.5052886E+02  0.7816164E-02  0.1300439E+00
        -11   -1    0    0    0    0  0.00000000000E+00  0.00000000000E+00  0.45593999997E+02  0.45594000000E+02  0.51100000000E-03 0. -1.
         11   -1    0    0    0    0 -0.00000000000E+00 -0.00000000000E+00 -0.45593999997E+02  0.45594000000E+02  0.51100000000E-03 0.  1.
    9900012    2    1    2    0    0 -0.36052556322E+02 -0.14553962109E+02  0.11897953280E+02  0.50528856838E+02  0.29999990846E+02 0.  0.
        -12    1    1    2    0    0  0.36052556322E+02  0.14553962109E+02 -0.11897953280E+02  0.40659143162E+02  0.00000000000E+00 0.  1.
         11    1    3    3    0    0 -0.35792909196E+02 -0.12560155791E+02  0.18244614689E+02  0.42092230015E+02  0.51100000000E-03 0. -1.
        -11    1    3    3    0    0  0.96050884616E-02  0.68081790406E+00  0.65000268150E+00  0.94133364079E+00  0.51100000000E-03 0.  1.
         12    1    3    3    0    0 -0.26925221385E+00 -0.26746242216E+01 -0.69966640912E+01  0.74952931822E+01  0.00000000000E+00 0. -1.
</event>
<event>
 7    1  0.5487071E-013  0.5052873E+02  0.7816164E-02  0.1300439E+00
        -11   -1    0    0    0    0  0.00000000000E+00  0.00000000000E+00  0.45593999997E+02  0.45594000000E+02  0.51100000000E-03 0.  1.
         11   -1    0    0    0    0 -0.00000000000E+00 -0.00000000000E+00 -0.45593999997E+02  0.45594000000E+02  0.51100000000E-03 0. -1.
    9900012    2    1    2    0    0  0.94187271323E+01 -0.20827612492E+02 -0.33625501987E+02  0.50528729878E+02  0.29999604936E+02 0.  0.
        -12    1    1    2    0    0 -0.94187271323E+01  0.20827612492E+02  0.33625501987E+02  0.40659270122E+02  0.00000000000E+00 0.  1.
         11    1    3    3    0    0  0.21305206380E+01 -0.66507101987E+01 -0.14156214988E+02  0.15785103338E+02  0.51100000000E-03 0. -1.
        -11    1    3    3    0    0 -0.12130820106E+01 -0.14944932369E+02 -0.21266187589E+02  0.26020632320E+02  0.51100000000E-03 0.  1.
        -12    1    3    3    0    0  0.85012885049E+01  0.76803007506E+00  0.17969005905E+01  0.87229942206E+01  0.00000000000E+00 0.  1.
</event>
<event>
 7    1  0.5487071E-013  0.5052885E+02  0.7816164E-02  0.1300439E+00
        -11   -1    0    0    0    0  0.00000000000E+00  0.00000000000E+00  0.45593999997E+02  0.45594000000E+02  0.51100000000E-03 0.  1.
         11   -1    0    0    0    0 -0.00000000000E+00 -0.00000000000E+00 -0.45593999997E+02  0.45594000000E+02  0.51100000000E-03 0. -1.
    9900012    2    1    2    0    0  0.15218780466E+02 -0.23829774056E+02 -0.29218098913E+02  0.50528847101E+02  0.29999961247E+02 0.  0.
        -12    1    1    2    0    0 -0.15218780466E+02  0.23829774056E+02  0.29218098913E+02  0.40659152899E+02  0.00000000000E+00 0.  1.
         11    1    3    3    0    0  0.73622109089E+01 -0.20661264936E+01 -0.40160478752E-01  0.76467405658E+01  0.51100000000E-03 0. -1.
        -11    1    3    3    0    0  0.18782782403E+01 -0.69209790103E+01  0.23328896874E+01  0.75412369121E+01  0.51100000000E-03 0.  1.
        -12    1    3    3    0    0  0.59782913167E+01 -0.14842668552E+02 -0.31510828121E+02  0.35340869623E+02  0.00000000000E+00 0.  1.
</event>
<event>
 7    1  0.5487071E-013  0.5052889E+02  0.7816164E-02  0.1300439E+00
        -11   -1    0    0    0    0  0.00000000000E+00  0.00000000000E+00  0.45593999997E+02  0.45594000000E+02  0.51100000000E-03 0.  1.
         11   -1    0    0    0    0 -0.00000000000E+00 -0.00000000000E+00 -0.45593999997E+02  0.45594000000E+02  0.51100000000E-03 0. -1.
    9900012    2    1    2    0    0 -0.34808244635E+02  0.14720436983E+02  0.14995265446E+02  0.50528890992E+02  0.30000094659E+02 0.  0.
        -12    1    1    2    0    0  0.34808244635E+02 -0.14720436983E+02 -0.14995265446E+02  0.40659109008E+02  0.00000000000E+00 0.  1.
         11    1    3    3    0    0 -0.11189865680E+02  0.83633582306E+01  0.18447257549E+01  0.14091198253E+02  0.51100000000E-03 0. -1.
        -11    1    3    3    0    0 -0.24681127874E+02  0.37330458196E+01  0.21223424749E+01  0.25051906954E+02  0.51100000000E-03 0.  1.
        -12    1    3    3    0    0  0.10627489189E+01  0.26240329328E+01  0.11028197216E+02  0.11385785784E+02  0.00000000000E+00 0.  1.
</event>
<event>
 7    1  0.5487071E-013  0.5052887E+02  0.7816164E-02  0.1300439E+00
        -11   -1    0    0    0    0  0.00000000000E+00  0.00000000000E+00  0.45593999997E+02  0.45594000000E+02  0.51100000000E-03 0.  1.
         11   -1    0    0    0    0 -0.00000000000E+00 -0.00000000000E+00 -0.45593999997E+02  0.45594000000E+02  0.51100000000E-03 0. -1.
    9900012    2    1    2    0    0 -0.35349874391E+02  0.19464690835E+02 -0.49675724286E+01  0.50528873293E+02  0.30000040860E+02 0.  0.
        -12    1    1    2    0    0  0.35349874391E+02 -0.19464690835E+02  0.49675724286E+01  0.40659126707E+02  0.00000000000E+00 0.  1.
         11    1    3    3    0    0 -0.18023547823E+02  0.14065661892E+02  0.10550328254E+01  0.22886769434E+02  0.51100000000E-03 0. -1.
        -11    1    3    3    0    0 -0.12408228452E+02  0.12410431820E+02 -0.70989954233E+00  0.17563795401E+02  0.51100000000E-03 0.  1.
        -12    1    3    3    0    0 -0.49180981158E+01 -0.70114028771E+01 -0.53127057117E+01  0.10078308457E+02  0.00000000000E+00 0.  1.
</event>
<event>
 7    1  0.5487071E-013  0.5052884E+02  0.7816164E-02  0.1300439E+00
        -11   -1    0    0    0    0  0.00000000000E+00  0.00000000000E+00  0.45593999997E+02  0.45594000000E+02  0.51100000000E-03 0.  1.
         11   -1    0    0    0    0 -0.00000000000E+00 -0.00000000000E+00 -0.45593999997E+02  0.45594000000E+02  0.51100000000E-03 0. -1.
    9900012    2    1    2    0    0 -0.10541673127E+02  0.13493657994E+02 -0.36877655249E+02  0.50528841929E+02  0.29999945527E+02 0.  0.
        -12    1    1    2    0    0  0.10541673127E+02 -0.13493657994E+02  0.36877655249E+02  0.40659158071E+02  0.00000000000E+00 0.  1.
         11    1    3    3    0    0  0.16938532749E+01  0.70300189244E+01 -0.38692692730E+01  0.82013139169E+01  0.51100000000E-03 0. -1.
        -11    1    3    3    0    0 -0.60400525163E+01  0.10588786159E+02 -0.32677213819E+02  0.34876997146E+02  0.51100000000E-03 0.  1.
        -12    1    3    3    0    0 -0.61954738859E+01 -0.41251470900E+01 -0.33117215741E+00  0.74505308658E+01  0.00000000000E+00 0.  1.
</event>
<event>
 7    1  0.5487071E-013  0.5052883E+02  0.7816164E-02  0.1300439E+00
        -11   -1    0    0    0    0  0.00000000000E+00  0.00000000000E+00  0.45593999997E+02  0.45594000000E+02  0.51100000000E-03 0.  1.
         11   -1    0    0    0    0 -0.00000000000E+00 -0.00000000000E+00 -0.45593999997E+02  0.45594000000E+02  0.51100000000E-03 0. -1.
    9900012    2    1    2    0    0 -0.38326167990E+02 -0.17228440701E+01 -0.13464936480E+02  0.50528833027E+02  0.29999918469E+02 0.  0.
        -12    1    1    2    0    0  0.38326167990E+02  0.17228440701E+01  0.13464936480E+02  0.40659166973E+02  0.00000000000E+00 0.  1.
         11    1    3    3    0    0 -0.24263989091E+02 -0.12608889422E+01 -0.21248234108E+02  0.32277212713E+02  0.51100000000E-03 0. -1.
        -11    1    3    3    0    0  0.27671919288E+00  0.13720594088E+01  0.24915454921E+01  0.28577823104E+01  0.51100000000E-03 0.  1.
        -12    1    3    3    0    0 -0.14338898092E+02 -0.18340145367E+01  0.52917521358E+01  0.15393838004E+02  0.00000000000E+00 0.  1.
</event>
<event>
 7    1  0.5487071E-013  0.5052885E+02  0.7816164E-02  0.1300439E+00
        -11   -1    0    0    0    0  0.00000000000E+00  0.00000000000E+00  0.45593999997E+02  0.45594000000E+02  0.51100000000E-03 0. -1.
         11   -1    0    0    0    0 -0.00000000000E+00 -0.00000000000E+00 -0.45593999997E+02  0.45594000000E+02  0.51100000000E-03 0.  1.
    9900012    2    1    2    0    0 -0.11526271726E+02  0.13534047859E+02  0.36566944896E+02  0.50528845430E+02  0.29999956168E+02 0.  0.
        -12    1    1    2    0    0  0.11526271726E+02 -0.13534047859E+02 -0.36566944896E+02  0.40659154570E+02  0.00000000000E+00 0.  1.
         11    1    3    3    0    0 -0.44698349153E+00 -0.62808064403E+01  0.90130538713E+01  0.10994701639E+02  0.51100000000E-03 0. -1.
        -11    1    3    3    0    0 -0.38201836753E+01  0.63256988337E+00 -0.13430100419E+01  0.40984904787E+01  0.51100000000E-03 0.  1.
        -12    1    3    3    0    0 -0.72591045592E+01  0.19182284416E+02  0.28896901066E+02  0.35435653312E+02  0.00000000000E+00 0.  1.
</event>
<event>
 7    1  0.5487071E-013  0.5052885E+02  0.7816164E-02  0.1300439E+00
        -11   -1    0    0    0    0  0.00000000000E+00  0.00000000000E+00  0.45593999997E+02  0.45594000000E+02  0.51100000000E-03 0.  1.
         11   -1    0    0    0    0 -0.00000000000E+00 -0.00000000000E+00 -0.45593999997E+02  0.45594000000E+02  0.51100000000E-03 0. -1.
    9900012    2    1    2    0    0 -0.14685142514E+01 -0.17673872355E+01 -0.40594168541E+02  0.50528847140E+02  0.29999961368E+02 0.  0.
        -12    1    1    2    0    0  0.14685142514E+01  0.17673872355E+01  0.40594168541E+02  0.40659152860E+02  0.00000000000E+00 0.  1.
         11    1    3    3    0    0 -0.57721888947E+00 -0.31980345402E+01 -0.36343912027E+02  0.36488909935E+02  0.51100000000E-03 0. -1.
        -11    1    3    3    0    0  0.20270927196E+00  0.39181717371E+01 -0.82898269509E+01  0.91713898591E+01  0.51100000000E-03 0.  1.
        -12    1    3    3    0    0 -0.10940046339E+01 -0.24875244325E+01  0.40395704375E+01  0.48685473460E+01  0.00000000000E+00 0.  1.
</event>
<event>
 7    1  0.5487071E-013  0.5052886E+02  0.7816164E-02  0.1300439E+00
        -11   -1    0    0    0    0  0.00000000000E+00  0.00000000000E+00  0.45593999997E+02  0.45594000000E+02  0.51100000000E-03 0. -1.
         11   -1    0    0    0    0 -0.00000000000E+00 -0.00000000000E+00 -0.45593999997E+02  0.45594000000E+02  0.51100000000E-03 0.  1.
    9900012    2    1    2    0    0  0.30208348768E+02  0.20317870713E+02  0.18105388220E+02  0.50528864640E+02  0.30000014560E+02 0.  0.
        -12    1    1    2    0    0 -0.30208348768E+02 -0.20317870713E+02 -0.18105388220E+02  0.40659135360E+02  0.00000000000E+00 0.  1.
         11    1    3    3    0    0  0.73059232752E+01 -0.28420043790E+01  0.23336785529E+01  0.81792150995E+01  0.51100000000E-03 0.  1.
        -11    1    3    3    0    0  0.86977335219E+01  0.10944315278E+01  0.13383467283E+02  0.15998923263E+02  0.51100000000E-03 0. -1.
         12    1    3    3    0    0  0.14204691971E+02  0.22065443564E+02  0.23882423837E+01  0.26350726278E+02  0.00000000000E+00 0. -1.
</event>
<event>
 7    1  0.5487071E-013  0.5052886E+02  0.7816164E-02  0.1300439E+00
        -11   -1    0    0    0    0  0.00000000000E+00  0.00000000000E+00  0.45593999997E+02  0.45594000000E+02  0.51100000000E-03 0. -1.
         11   -1    0    0    0    0 -0.00000000000E+00 -0.00000000000E+00 -0.45593999997E+02  0.45594000000E+02  0.51100000000E-03 0.  1.
    9900012    2    1    2    0    0 -0.31578554123E+02  0.21199179572E+02  0.14372040470E+02  0.50528857826E+02  0.29999993848E+02 0.  0.
        -12    1    1    2    0    0  0.31578554123E+02 -0.21199179572E+02 -0.14372040470E+02  0.40659142174E+02  0.00000000000E+00 0.  1.
         11    1    3    3    0    0 -0.10082875525E+02  0.11859737891E+02  0.17357896952E+02  0.23315538778E+02  0.51100000000E-03 0. -1.
        -11    1    3    3    0    0 -0.26029488183E-01 -0.18343411587E+01  0.17677527573E+01  0.25476332335E+01  0.51100000000E-03 0.  1.
        -12    1    3    3    0    0 -0.21469649111E+02  0.11173782840E+02 -0.47536092393E+01  0.24665685814E+02  0.00000000000E+00 0.  1.
</event>
<event>
 7    1  0.5487071E-013  0.5052886E+02  0.7816164E-02  0.1300439E+00
        -11   -1    0    0    0    0  0.00000000000E+00  0.00000000000E+00  0.45593999997E+02  0.45594000000E+02  0.51100000000E-03 0.  1.
         11   -1    0    0    0    0 -0.00000000000E+00 -0.00000000000E+00 -0.45593999997E+02  0.45594000000E+02  0.51100000000E-03 0. -1.
    9900012    2    1    2    0    0  0.47291758527E+01 -0.39369261306E+02 -0.89923358024E+01  0.50528856586E+02  0.29999990078E+02 0.  0.
        -12    1    1    2    0    0 -0.47291758527E+01  0.39369261306E+02  0.89923358024E+01  0.40659143414E+02  0.00000000000E+00 0.  1.
         11    1    3    3    0    0  0.62048782915E+01 -0.31954021250E+02 -0.12786992536E+02  0.34972377200E+02  0.51100000000E-03 0.  1.
        -11    1    3    3    0    0 -0.32846660993E+00 -0.79184198447E+01 -0.31288859157E+01  0.85205158580E+01  0.51100000000E-03 0. -1.
        -12    1    3    3    0    0 -0.11472358288E+01  0.50317978884E+00  0.69235426494E+01  0.70359635278E+01  0.00000000000E+00 0.  1.
</event>
<event>
 7    1  0.5487071E-013  0.5052886E+02  0.7816164E-02  0.1300439E+00
        -11   -1    0    0    0    0  0.00000000000E+00  0.00000000000E+00  0.45593999997E+02  0.45594000000E+02  0.51100000000E-03 0.  1.
         11   -1    0    0    0    0 -0.00000000000E+00 -0.00000000000E+00 -0.45593999997E+02  0.45594000000E+02  0.51100000000E-03 0. -1.
    9900012    2    1    2    0    0 -0.10604033384E+02 -0.32752414601E+02 -0.21633298684E+02  0.50528858369E+02  0.29999995498E+02 0.  0.
        -12    1    1    2    0    0  0.10604033384E+02  0.32752414601E+02  0.21633298684E+02  0.40659141631E+02  0.00000000000E+00 0.  1.
         11    1    3    3    0    0 -0.12202071319E+02 -0.16115408947E+02 -0.81243028674E+01  0.21785344783E+02  0.51100000000E-03 0. -1.
        -11    1    3    3    0    0 -0.27176444369E+01  0.73323721188E+00  0.31973159175E+01  0.42598189435E+01  0.51100000000E-03 0.  1.
         12    1    3    3    0    0  0.43156823710E+01 -0.17370242866E+02 -0.16706311734E+02  0.24483694642E+02  0.00000000000E+00 0. -1.
</event>
<event>
 7    1  0.5487071E-013  0.5052886E+02  0.7816164E-02  0.1300439E+00
        -11   -1    0    0    0    0  0.00000000000E+00  0.00000000000E+00  0.45593999997E+02  0.45594000000E+02  0.51100000000E-03 0. -1.
         11   -1    0    0    0    0 -0.00000000000E+00 -0.00000000000E+00 -0.45593999997E+02  0.45594000000E+02  0.51100000000E-03 0.  1.
    9900012    2    1    2    0    0  0.95010184589E+01 -0.17714870631E+02  0.35342322397E+02  0.50528859015E+02  0.29999997461E+02 0.  0.
        -12    1    1    2    0    0 -0.95010184589E+01  0.17714870631E+02 -0.35342322397E+02  0.40659140985E+02  0.00000000000E+00 0.  1.
         11    1    3    3    0    0  0.26407993773E+01 -0.64002447820E+01  0.18852649495E+02  0.20083808101E+02  0.51100000000E-03 0. -1.
        -11    1    3    3    0    0  0.39341671003E+01  0.61453003684E+01  0.79454814172E+01  0.10787634708E+02  0.51100000000E-03 0.  1.
        -12    1    3    3    0    0  0.29260519813E+01 -0.17459926218E+02  0.85441914851E+01  0.19657416205E+02  0.00000000000E+00 0.  1.
</event>
<event>
 7    1  0.5487071E-013  0.5052887E+02  0.7816164E-02  0.1300439E+00
        -11   -1    0    0    0    0  0.00000000000E+00  0.00000000000E+00  0.45593999997E+02  0.45594000000E+02  0.51100000000E-03 0.  1.
         11   -1    0    0    0    0 -0.00000000000E+00 -0.00000000000E+00 -0.45593999997E+02  0.45594000000E+02  0.51100000000E-03 0. -1.
    9900012    2    1    2    0    0  0.32381174129E+01  0.14746129441E+02 -0.37752234916E+02  0.50528868443E+02  0.30000026118E+02 0.  0.
        -12    1    1    2    0    0 -0.32381174129E+01 -0.14746129441E+02  0.37752234916E+02  0.40659131557E+02  0.00000000000E+00 0.  1.
         11    1    3    3    0    0 -0.71574490593E+00 -0.28991630942E+01  0.11079281914E+01  0.31851126441E+01  0.51100000000E-03 0.  1.
        -11    1    3    3    0    0  0.11312572976E+02  0.53042345086E+01 -0.20813355312E+02  0.24275604434E+02  0.51100000000E-03 0. -1.
         12    1    3    3    0    0 -0.73587106572E+01  0.12341058026E+02 -0.18046807796E+02  0.23068151364E+02  0.00000000000E+00 0. -1.
</event>
<event>
 7    1  0.5487071E-013  0.5052887E+02  0.7816164E-02  0.1300439E+00
        -11   -1    0    0    0    0  0.00000000000E+00  0.00000000000E+00  0.45593999997E+02  0.45594000000E+02  0.51100000000E-03 0.  1.
         11   -1    0    0    0    0 -0.00000000000E+00 -0.00000000000E+00 -0.45593999997E+02  0.45594000000E+02  0.51100000000E-03 0. -1.
    9900012    2    1    2    0    0  0.56888626288E+01  0.39174117846E+02 -0.92838766445E+01  0.50528867784E+02  0.30000024117E+02 0.  0.
        -12    1    1    2    0    0 -0.56888626288E+01 -0.39174117846E+02  0.92838766445E+01  0.40659132216E+02  0.00000000000E+00 0.  1.
         11    1    3    3    0    0  0.10688898661E+02  0.15511980580E+02 -0.39300833773E+01  0.19243691219E+02  0.51100000000E-03 0. -1.
        -11    1    3    3    0    0  0.65740681775E+01  0.10604977263E+02  0.14411998123E+01  0.12560293480E+02  0.51100000000E-03 0.  1.
        -12    1    3    3    0    0 -0.11574104210E+02  0.13057160003E+02 -0.67949930795E+01  0.18724883085E+02  0.00000000000E+00 0.  1.
</event>
<event>
 7    1  0.5487071E-013  0.5052888E+02  0.7816164E-02  0.1300439E+00
        -11   -1    0    0    0    0  0.00000000000E+00  0.00000000000E+00  0.45593999997E+02  0.45594000000E+02  0.51100000000E-03 0.  1.
         11   -1    0    0    0    0 -0.00000000000E+00 -0.00000000000E+00 -0.45593999997E+02  0.45594000000E+02  0.51100000000E-03 0. -1.
    9900012    2    1    2    0    0 -0.93981269337E+01  0.53143522099E+01 -0.39199454821E+02  0.50528875716E+02  0.30000048226E+02 0.  0.
        -12    1    1    2    0    0  0.93981269337E+01 -0.53143522099E+01  0.39199454821E+02  0.40659124284E+02  0.00000000000E+00 0.  1.
         11    1    3    3    0    0  0.53369653258E+00  0.60977706418E+01 -0.14087782636E+02  0.15360119097E+02  0.51100000000E-03 0. -1.
        -11    1    3    3    0    0  0.24861856925E+01 -0.89619084730E+01 -0.13036697860E+02  0.16014131701E+02  0.51100000000E-03 0.  1.
        -12    1    3    3    0    0 -0.12418009159E+02  0.81784900411E+01 -0.12074974325E+02  0.19154624919E+02  0.00000000000E+00 0.  1.
</event>
<event>
 7    1  0.5487071E-013  0.5052886E+02  0.7816164E-02  0.1300439E+00
        -11   -1    0    0    0    0  0.00000000000E+00  0.00000000000E+00  0.45593999997E+02  0.45594000000E+02  0.51100000000E-03 0.  1.
         11   -1    0    0    0    0 -0.00000000000E+00 -0.00000000000E+00 -0.45593999997E+02  0.45594000000E+02  0.51100000000E-03 0. -1.
    9900012    2    1    2    0    0 -0.29176331248E+02  0.28301806647E+02 -0.95666704543E+00  0.50528858636E+02  0.29999996311E+02 0.  0.
        -12    1    1    2    0    0  0.29176331248E+02 -0.28301806647E+02  0.95666704543E+00  0.40659141364E+02  0.00000000000E+00 0.  1.
         11    1    3    3    0    0 -0.58137124978E+01  0.15105034067E+02  0.65088786322E+01  0.17444965133E+02  0.51100000000E-03 0. -1.
        -11    1    3    3    0    0  0.43143923970E+00 -0.32585463800E+01 -0.47140566686E+00  0.33206155893E+01  0.51100000000E-03 0.  1.
         12    1    3    3    0    0 -0.23794057990E+02  0.16455318960E+02 -0.69941400108E+01  0.29763277914E+02  0.00000000000E+00 0. -1.
</event>
<event>
 7    1  0.5487071E-013  0.5052887E+02  0.7816164E-02  0.1300439E+00
        -11   -1    0    0    0    0  0.00000000000E+00  0.00000000000E+00  0.45593999997E+02  0.45594000000E+02  0.51100000000E-03 0.  1.
         11   -1    0    0    0    0 -0.00000000000E+00 -0.00000000000E+00 -0.45593999997E+02  0.45594000000E+02  0.51100000000E-03 0. -1.
    9900012    2    1    2    0    0 -0.22515853026E+02  0.23335764128E+02 -0.24528411878E+02  0.50528874159E+02  0.30000043493E+02 0.  0.
        -12    1    1    2    0    0  0.22515853026E+02 -0.23335764128E+02  0.24528411878E+02  0.40659125841E+02  0.00000000000E+00 0.  1.
         11    1    3    3    0    0 -0.18028061300E+02  0.17922655533E+02 -0.23979950532E+02  0.34946682294E+02  0.51100000000E-03 0. -1.
        -11    1    3    3    0    0 -0.69960142904E+00  0.11446864330E+01 -0.69081943730E+01  0.70372508087E+01  0.51100000000E-03 0.  1.
        -12    1    3    3    0    0 -0.37881902966E+01  0.42684221622E+01  0.63597330268E+01  0.85449410560E+01  0.00000000000E+00 0.  1.
</event>
<event>
 7    1  0.5487071E-013  0.5052895E+02  0.7816164E-02  0.1300438E+00
        -11   -1    0    0    0    0  0.00000000000E+00  0.00000000000E+00  0.45593999997E+02  0.45594000000E+02  0.51100000000E-03 0.  1.
         11   -1    0    0    0    0 -0.00000000000E+00 -0.00000000000E+00 -0.45593999997E+02  0.45594000000E+02  0.51100000000E-03 0. -1.
    9900012    2    1    2    0    0  0.17605132244E+02 -0.73316530722E+01 -0.35909119131E+02  0.50528946213E+02  0.30000262508E+02 0.  0.
        -12    1    1    2    0    0 -0.17605132244E+02  0.73316530722E+01  0.35909119131E+02  0.40659053787E+02  0.00000000000E+00 0.  1.
         11    1    3    3    0    0  0.14791100852E+02  0.14990479800E+01 -0.31169394114E+02  0.34533388756E+02  0.51100000000E-03 0. -1.
        -11    1    3    3    0    0 -0.82047670416E-01  0.24435793684E+01  0.14184880772E+01  0.28266447665E+01  0.51100000000E-03 0.  1.
        -12    1    3    3    0    0  0.28960790622E+01 -0.11274280421E+02 -0.61582130937E+01  0.13168912690E+02  0.00000000000E+00 0.  1.
</event>
<event>
 7    1  0.5487071E-013  0.5052886E+02  0.7816164E-02  0.1300439E+00
        -11   -1    0    0    0    0  0.00000000000E+00  0.00000000000E+00  0.45593999997E+02  0.45594000000E+02  0.51100000000E-03 0.  1.
         11   -1    0    0    0    0 -0.00000000000E+00 -0.00000000000E+00 -0.45593999997E+02  0.45594000000E+02  0.51100000000E-03 0. -1.
    9900012    2    1    2    0    0  0.21894543798E+02  0.30467152102E+02 -0.15669951114E+02  0.50528858675E+02  0.29999996429E+02 0.  0.
        -12    1    1    2    0    0 -0.21894543798E+02 -0.30467152102E+02  0.15669951114E+02  0.40659141325E+02  0.00000000000E+00 0.  1.
         11    1    3    3    0    0 -0.56826735260E+00 -0.12909376840E+01  0.23142808492E+01  0.27102295102E+01  0.51100000000E-03 0. -1.
        -11    1    3    3    0    0  0.24822040866E+02  0.20992342987E+02 -0.93751160967E+01  0.33833489015E+02  0.51100000000E-03 0.  1.
         12    1    3    3    0    0 -0.23592297156E+01  0.10765746799E+02 -0.86091158669E+01  0.13985140150E+02  0.00000000000E+00 0. -1.
</event>
<event>
 7    1  0.5487071E-013  0.5052896E+02  0.7816164E-02  0.1300438E+00
        -11   -1    0    0    0    0  0.00000000000E+00  0.00000000000E+00  0.45593999997E+02  0.45594000000E+02  0.51100000000E-03 0.  1.
         11   -1    0    0    0    0 -0.00000000000E+00 -0.00000000000E+00 -0.45593999997E+02  0.45594000000E+02  0.51100000000E-03 0. -1.
    9900012    2    1    2    0    0 -0.32783818178E+02 -0.11843593489E+02 -0.20931023947E+02  0.50528964048E+02  0.30000316720E+02 0.  0.
        -12    1    1    2    0    0  0.32783818178E+02  0.11843593489E+02  0.20931023947E+02  0.40659035952E+02  0.00000000000E+00 0.  1.
         11    1    3    3    0    0 -0.28987632177E+01 -0.83408902335E+01  0.27280899607E-01  0.88302900626E+01  0.51100000000E-03 0. -1.
        -11    1    3    3    0    0 -0.10949416461E+01 -0.56999791592E+01 -0.84042269006E+01  0.10213701077E+02  0.51100000000E-03 0.  1.
         12    1    3    3    0    0 -0.28790113314E+02  0.21972759038E+01 -0.12554077946E+02  0.31484972909E+02  0.00000000000E+00 0. -1.
</event>
<event>
 7    1  0.5487071E-013  0.5052888E+02  0.7816164E-02  0.1300439E+00
        -11   -1    0    0    0    0  0.00000000000E+00  0.00000000000E+00  0.45593999997E+02  0.45594000000E+02  0.51100000000E-03 0. -1.
         11   -1    0    0    0    0 -0.00000000000E+00 -0.00000000000E+00 -0.45593999997E+02  0.45594000000E+02  0.51100000000E-03 0.  1.
    9900012    2    1    2    0    0  0.47745244748E+01 -0.35422947679E+02  0.19379961857E+02  0.50528877680E+02  0.30000054197E+02 0.  0.
        -12    1    1    2    0    0 -0.47745244748E+01  0.35422947679E+02 -0.19379961857E+02  0.40659122320E+02  0.00000000000E+00 0.  1.
         11    1    3    3    0    0  0.14825909995E+01 -0.76067498891E+01  0.32104523480E+01  0.83885472215E+01  0.51100000000E-03 0. -1.
        -11    1    3    3    0    0  0.47750969034E+01 -0.31815087308E+02  0.18669936035E+02  0.37196341791E+02  0.51100000000E-03 0.  1.
        -12    1    3    3    0    0 -0.14831634282E+01  0.39988895182E+01 -0.25004265256E+01  0.49439886674E+01  0.00000000000E+00 0.  1.
</event>
<event>
 7    1  0.5487071E-013  0.5052886E+02  0.7816164E-02  0.1300439E+00
        -11   -1    0    0    0    0  0.00000000000E+00  0.00000000000E+00  0.45593999997E+02  0.45594000000E+02  0.51100000000E-03 0.  1.
         11   -1    0    0    0    0 -0.00000000000E+00 -0.00000000000E+00 -0.45593999997E+02  0.45594000000E+02  0.51100000000E-03 0. -1.
    9900012    2    1    2    0    0 -0.14250459260E+02  0.22000000512E+02 -0.31081986710E+02  0.50528861920E+02  0.30000006291E+02 0.  0.
        -12    1    1    2    0    0  0.14250459260E+02 -0.22000000512E+02  0.31081986710E+02  0.40659138080E+02  0.00000000000E+00 0.  1.
         11    1    3    3    0    0  0.66214770889E+00 -0.57473220564E+00 -0.11968857988E+01  0.14836753598E+01  0.51100000000E-03 0. -1.
        -11    1    3    3    0    0  0.50449433233E+01  0.16534313316E+02 -0.88266099454E+01  0.19409894728E+02  0.51100000000E-03 0.  1.
         12    1    3    3    0    0 -0.19957550292E+02  0.60404194010E+01 -0.21058490966E+02  0.29635291831E+02  0.00000000000E+00 0. -1.
</event>
<event>
 7    1  0.5487071E-013  0.5052886E+02  0.7816164E-02  0.1300439E+00
        -11   -1    0    0    0    0  0.00000000000E+00  0.00000000000E+00  0.45593999997E+02  0.45594000000E+02  0.51100000000E-03 0.  1.
         11   -1    0    0    0    0 -0.00000000000E+00 -0.00000000000E+00 -0.45593999997E+02  0.45594000000E+02  0.51100000000E-03 0. -1.
    9900012    2    1    2    0    0 -0.48349465528E+01 -0.13521990813E+02 -0.38038726407E+02  0.50528860186E+02  0.30000001022E+02 0.  0.
        -12    1    1    2    0    0  0.48349465528E+01  0.13521990813E+02  0.38038726407E+02  0.40659139814E+02  0.00000000000E+00 0.  1.
         11    1    3    3    0    0 -0.89487725809E+01  0.17135884474E+01 -0.27371366733E+02  0.28848026504E+02  0.51100000000E-03 0.  1.
        -11    1    3    3    0    0  0.42770854062E+01 -0.12067144473E+02 -0.12602371864E+02  0.17964665656E+02  0.51100000000E-03 0. -1.
        -12    1    3    3    0    0 -0.16325937807E+00 -0.31684347875E+01  0.19350121890E+01  0.37161680261E+01  0.00000000000E+00 0.  1.
</event>
<event>
 7    1  0.5487071E-013  0.5052886E+02  0.7816164E-02  0.1300439E+00
        -11   -1    0    0    0    0  0.00000000000E+00  0.00000000000E+00  0.45593999997E+02  0.45594000000E+02  0.51100000000E-03 0.  1.
         11   -1    0    0    0    0 -0.00000000000E+00 -0.00000000000E+00 -0.45593999997E+02  0.45594000000E+02  0.51100000000E-03 0. -1.
    9900012    2    1    2    0    0  0.33442240485E+01  0.29777591080E+02 -0.27482303489E+02  0.50528858715E+02  0.29999996550E+02 0.  0.
        -12    1    1    2    0    0 -0.33442240485E+01 -0.29777591080E+02  0.27482303489E+02  0.40659141285E+02  0.00000000000E+00 0.  1.
         11    1    3    3    0    0  0.90146726904E+01  0.13518267062E+02 -0.10520608167E+02  0.19356938408E+02  0.51100000000E-03 0. -1.
        -11    1    3    3    0    0  0.31465975721E+01  0.16808580447E+02 -0.92316915086E+01  0.19433311125E+02  0.51100000000E-03 0.  1.
        -12    1    3    3    0    0 -0.88170462141E+01 -0.54925642907E+00 -0.77300038127E+01  0.11738609181E+02  0.00000000000E+00 0.  1.
</event>
<event>
 7    1  0.5487071E-013  0.5052886E+02  0.7816164E-02  0.1300439E+00
        -11   -1    0    0    0    0  0.00000000000E+00  0.00000000000E+00  0.45593999997E+02  0.45594000000E+02  0.51100000000E-03 0.  1.
         11   -1    0    0    0    0 -0.00000000000E+00 -0.00000000000E+00 -0.45593999997E+02  0.45594000000E+02  0.51100000000E-03 0. -1.
    9900012    2    1    2    0    0 -0.80991144034E+00  0.40054980823E+02 -0.69359834751E+01  0.50528864347E+02  0.30000013669E+02 0.  0.
        -12    1    1    2    0    0  0.80991144034E+00 -0.40054980823E+02  0.69359834751E+01  0.40659135653E+02  0.00000000000E+00 0.  1.
         11    1    3    3    0    0  0.18113925387E+01  0.19506195824E+02 -0.56873241280E+01  0.20398982192E+02  0.51100000000E-03 0. -1.
        -11    1    3    3    0    0  0.11519701706E+01  0.22864558640E+02 -0.59683274345E+01  0.23658740662E+02  0.51100000000E-03 0.  1.
        -12    1    3    3    0    0 -0.37732741496E+01 -0.23157736412E+01  0.47196680875E+01  0.64711414929E+01  0.00000000000E+00 0.  1.
</event>
<event>
 7    1  0.5487071E-013  0.5052886E+02  0.7816164E-02  0.1300439E+00
        -11   -1    0    0    0    0  0.00000000000E+00  0.00000000000E+00  0.45593999997E+02  0.45594000000E+02  0.51100000000E-03 0. -1.
         11   -1    0    0    0    0 -0.00000000000E+00 -0.00000000000E+00 -0.45593999997E+02  0.45594000000E+02  0.51100000000E-03 0.  1.
    9900012    2    1    2    0    0  0.17647898902E+02  0.35511600530E+02 -0.89801779149E+01  0.50528859536E+02  0.29999999046E+02 0.  0.
        -12    1    1    2    0    0 -0.17647898902E+02 -0.35511600530E+02  0.89801779149E+01  0.40659140464E+02  0.00000000000E+00 0.  1.
         11    1    3    3    0    0  0.13072316945E+02  0.23761473260E+02 -0.43916586826E+01  0.27473255141E+02  0.51100000000E-03 0. -1.
        -11    1    3    3    0    0  0.35966340807E+01  0.16322765111E+02 -0.65932689919E+01  0.17967738696E+02  0.51100000000E-03 0.  1.
        -12    1    3    3    0    0  0.97894787660E+00 -0.45726378414E+01  0.20047497596E+01  0.50878656991E+01  0.00000000000E+00 0.  1.
</event>
<event>
 7    1  0.5487071E-013  0.5052882E+02  0.7816164E-02  0.1300439E+00
        -11   -1    0    0    0    0  0.00000000000E+00  0.00000000000E+00  0.45593999997E+02  0.45594000000E+02  0.51100000000E-03 0.  1.
         11   -1    0    0    0    0 -0.00000000000E+00 -0.00000000000E+00 -0.45593999997E+02  0.45594000000E+02  0.51100000000E-03 0. -1.
    9900012    2    1    2    0    0  0.37089236596E+02 -0.10362738470E+02 -0.13044954258E+02  0.50528823282E+02  0.29999888847E+02 0.  0.
        -12    1    1    2    0    0 -0.37089236596E+02  0.10362738470E+02  0.13044954258E+02  0.40659176718E+02  0.00000000000E+00 0.  1.
         11    1    3    3    0    0  0.52763081775E+00 -0.10847620683E+01 -0.35136558551E+01  0.37149536677E+01  0.51100000000E-03 0. -1.
        -11    1    3    3    0    0  0.22929089802E+02 -0.55876213797E+00 -0.17429389009E+02  0.28806925830E+02  0.51100000000E-03 0.  1.
         12    1    3    3    0    0  0.13632515976E+02 -0.87192142635E+01  0.78980906067E+01  0.18006943784E+02  0.00000000000E+00 0. -1.
</event>
<event>
 7    1  0.5487071E-013  0.5052886E+02  0.7816164E-02  0.1300439E+00
        -11   -1    0    0    0    0  0.00000000000E+00  0.00000000000E+00  0.45593999997E+02  0.45594000000E+02  0.51100000000E-03 0.  1.
         11   -1    0    0    0    0 -0.00000000000E+00 -0.00000000000E+00 -0.45593999997E+02  0.45594000000E+02  0.51100000000E-03 0. -1.
    9900012    2    1    2    0    0  0.14619578039E+02  0.16418808102E+02 -0.34203164745E+02  0.50528858345E+02  0.29999995426E+02 0.  0.
        -12    1    1    2    0    0 -0.14619578039E+02 -0.16418808102E+02  0.34203164745E+02  0.40659141655E+02  0.00000000000E+00 0.  1.
         11    1    3    3    0    0  0.67966188705E+01  0.27557419848E+01 -0.28824413112E+02  0.29742813140E+02  0.51100000000E-03 0. -1.
        -11    1    3    3    0    0  0.39408330832E+00 -0.19107776473E+01 -0.26897815626E+01  0.33228448635E+01  0.51100000000E-03 0.  1.
         12    1    3    3    0    0  0.74288758604E+01  0.15573843764E+02 -0.26889700709E+01  0.17463200342E+02  0.00000000000E+00 0. -1.
</event>
<event>
 7    1  0.5487071E-013  0.5052886E+02  0.7816164E-02  0.1300439E+00
        -11   -1    0    0    0    0  0.00000000000E+00  0.00000000000E+00  0.45593999997E+02  0.45594000000E+02  0.51100000000E-03 0. -1.
         11   -1    0    0    0    0 -0.00000000000E+00 -0.00000000000E+00 -0.45593999997E+02  0.45594000000E+02  0.51100000000E-03 0.  1.
    9900012    2    1    2    0    0  0.59229710202E+01 -0.40195167357E+02 -0.15595708459E+01  0.50528864178E+02  0.30000013155E+02 0.  0.
        -12    1    1    2    0    0 -0.59229710202E+01  0.40195167357E+02  0.15595708459E+01  0.40659135822E+02  0.00000000000E+00 0.  1.
         11    1    3    3    0    0  0.35278263847E+01 -0.12678489520E+01  0.84513163756E-01  0.37496856804E+01  0.51100000000E-03 0. -1.
        -11    1    3    3    0    0  0.12258313350E+02 -0.12193084699E+02 -0.52186160456E+01  0.18060219112E+02  0.51100000000E-03 0.  1.
         12    1    3    3    0    0 -0.98631687144E+01 -0.26734233706E+02  0.35745320359E+01  0.28718959386E+02  0.00000000000E+00 0. -1.
</event>
<event>
 7    1  0.5487071E-013  0.5052886E+02  0.7816164E-02  0.1300439E+00
        -11   -1    0    0    0    0  0.00000000000E+00  0.00000000000E+00  0.45593999997E+02  0.45594000000E+02  0.51100000000E-03 0.  1.
         11   -1    0    0    0    0 -0.00000000000E+00 -0.00000000000E+00 -0.45593999997E+02  0.45594000000E+02  0.51100000000E-03 0. -1.
    9900012    2    1    2    0    0  0.94715479859E+01 -0.39469917404E+02 -0.23624979408E+01  0.50528855916E+02  0.29999988043E+02 0.  0.
        -12    1    1    2    0    0 -0.94715479859E+01  0.39469917404E+02  0.23624979408E+01  0.40659144084E+02  0.00000000000E+00 0.  1.
         11    1    3    3    0    0  0.45854491767E+01 -0.24017758315E+02 -0.22675345212E+01  0.24556481256E+02  0.51100000000E-03 0. -1.
        -11    1    3    3    0    0 -0.57384713731E+01 -0.13647188173E+02  0.21624475642E+01  0.14961683677E+02  0.51100000000E-03 0.  1.
         12    1    3    3    0    0  0.10624570182E+02 -0.18049709161E+01 -0.22574109838E+01  0.11010690983E+02  0.00000000000E+00 0. -1.
</event>
<event>
 7    1  0.5487071E-013  0.5052887E+02  0.7816164E-02  0.1300439E+00
        -11   -1    0    0    0    0  0.00000000000E+00  0.00000000000E+00  0.45593999997E+02  0.45594000000E+02  0.51100000000E-03 0.  1.
         11   -1    0    0    0    0 -0.00000000000E+00 -0.00000000000E+00 -0.45593999997E+02  0.45594000000E+02  0.51100000000E-03 0. -1.
    9900012    2    1    2    0    0  0.10131779972E+02  0.98750302245E+01 -0.38118182572E+02  0.50528867816E+02  0.30000024214E+02 0.  0.
        -12    1    1    2    0    0 -0.10131779972E+02 -0.98750302245E+01  0.38118182572E+02  0.40659132184E+02  0.00000000000E+00 0.  1.
         11    1    3    3    0    0  0.13175723504E+01  0.50916953238E+01 -0.14077627498E+02  0.15028005670E+02  0.51100000000E-03 0. -1.
        -11    1    3    3    0    0  0.81151174702E+01  0.71287004630E+01 -0.28464524537E+02  0.30445076108E+02  0.51100000000E-03 0.  1.
        -12    1    3    3    0    0  0.69909015107E+00 -0.23453655622E+01  0.44239694627E+01  0.50557860385E+01  0.00000000000E+00 0.  1.
</event>
<event>
 7    1  0.5487071E-013  0.5052886E+02  0.7816164E-02  0.1300439E+00
        -11   -1    0    0    0    0  0.00000000000E+00  0.00000000000E+00  0.45593999997E+02  0.45594000000E+02  0.51100000000E-03 0.  1.
         11   -1    0    0    0    0 -0.00000000000E+00 -0.00000000000E+00 -0.45593999997E+02  0.45594000000E+02  0.51100000000E-03 0. -1.
    9900012    2    1    2    0    0  0.33973174816E+02 -0.13427617360E+02 -0.17851849607E+02  0.50528855279E+02  0.29999986107E+02 0.  0.
        -12    1    1    2    0    0 -0.33973174816E+02  0.13427617360E+02  0.17851849607E+02  0.40659144721E+02  0.00000000000E+00 0.  1.
         11    1    3    3    0    0  0.16308175041E+02 -0.31358853093E+01 -0.14842359783E+02  0.22272987990E+02  0.51100000000E-03 0. -1.
        -11    1    3    3    0    0  0.21158229438E+02 -0.52731679537E+01 -0.10335851256E+01  0.21829916896E+02  0.51100000000E-03 0.  1.
        -12    1    3    3    0    0 -0.34932296632E+01 -0.50185640968E+01 -0.19759046983E+01  0.64259503928E+01  0.00000000000E+00 0.  1.
</event>
<event>
 7    1  0.5487071E-013  0.5052886E+02  0.7816164E-02  0.1300439E+00
        -11   -1    0    0    0    0  0.00000000000E+00  0.00000000000E+00  0.45593999997E+02  0.45594000000E+02  0.51100000000E-03 0.  1.
         11   -1    0    0    0    0 -0.00000000000E+00 -0.00000000000E+00 -0.45593999997E+02  0.45594000000E+02  0.51100000000E-03 0. -1.
    9900012    2    1    2    0    0 -0.35881124538E+02 -0.18524663893E+02 -0.47484491235E+01  0.50528855401E+02  0.29999986477E+02 0.  0.
        -12    1    1    2    0    0  0.35881124538E+02  0.18524663893E+02  0.47484491235E+01  0.40659144599E+02  0.00000000000E+00 0.  1.
         11    1    3    3    0    0 -0.25944174400E+02 -0.13135950205E+02 -0.11233182473E+01  0.29101807800E+02  0.51100000000E-03 0. -1.
        -11    1    3    3    0    0 -0.36703920261E+01 -0.63794249546E+01  0.62727485017E+01  0.96703781934E+01  0.51100000000E-03 0.  1.
        -12    1    3    3    0    0 -0.62665581119E+01  0.99071126642E+00 -0.98978793779E+01  0.11756669408E+02  0.00000000000E+00 0.  1.
</event>
<event>
 7    1  0.5487071E-013  0.5052886E+02  0.7816164E-02  0.1300439E+00
        -11   -1    0    0    0    0  0.00000000000E+00  0.00000000000E+00  0.45593999997E+02  0.45594000000E+02  0.51100000000E-03 0. -1.
         11   -1    0    0    0    0 -0.00000000000E+00 -0.00000000000E+00 -0.45593999997E+02  0.45594000000E+02  0.51100000000E-03 0.  1.
    9900012    2    1    2    0    0 -0.16510583084E+02  0.37085660719E+02 -0.22848071587E+01  0.50528856766E+02  0.29999990627E+02 0.  0.
        -12    1    1    2    0    0  0.16510583084E+02 -0.37085660719E+02  0.22848071587E+01  0.40659143234E+02  0.00000000000E+00 0.  1.
         11    1    3    3    0    0 -0.93089331889E+01  0.55923933969E+01 -0.65064911224E+01  0.12659602206E+02  0.51100000000E-03 0.  1.
        -11    1    3    3    0    0 -0.23260363966E+01  0.32272747840E+02  0.18974958459E+01  0.32412053147E+02  0.51100000000E-03 0. -1.
         12    1    3    3    0    0 -0.48756134986E+01 -0.77948051752E+00  0.23241881177E+01  0.54572014139E+01  0.00000000000E+00 0. -1.
</event>
<event>
 7    1  0.5487071E-013  0.5052886E+02  0.7816164E-02  0.1300439E+00
        -11   -1    0    0    0    0  0.00000000000E+00  0.00000000000E+00  0.45593999997E+02  0.45594000000E+02  0.51100000000E-03 0. -1.
         11   -1    0    0    0    0 -0.00000000000E+00 -0.00000000000E+00 -0.45593999997E+02  0.45594000000E+02  0.51100000000E-03 0.  1.
    9900012    2    1    2    0    0 -0.27363029969E+02 -0.54983381599E+01  0.29566846783E+02  0.50528861294E+02  0.30000004390E+02 0.  0.
        -12    1    1    2    0    0  0.27363029969E+02  0.54983381599E+01 -0.29566846783E+02  0.40659138706E+02  0.00000000000E+00 0.  1.
         11    1    3    3    0    0 -0.15029329607E+02 -0.79067194609E+00  0.13247574984E+02  0.20050041241E+02  0.51100000000E-03 0. -1.
        -11    1    3    3    0    0 -0.11612393014E+02 -0.12874189400E+02  0.12831637306E+02  0.21569500236E+02  0.51100000000E-03 0.  1.
         12    1    3    3    0    0 -0.72130734849E+00  0.81665231864E+01  0.34876344931E+01  0.89093198170E+01  0.00000000000E+00 0. -1.
</event>
<event>
 7    1  0.5487071E-013  0.5052885E+02  0.7816164E-02  0.1300439E+00
        -11   -1    0    0    0    0  0.00000000000E+00  0.00000000000E+00  0.45593999997E+02  0.45594000000E+02  0.51100000000E-03 0.  1.
         11   -1    0    0    0    0 -0.00000000000E+00 -0.00000000000E+00 -0.45593999997E+02  0.45594000000E+02  0.51100000000E-03 0. -1.
    9900012    2    1    2    0    0  0.24403627019E+02  0.27166777914E+02 -0.17877226844E+02  0.50528854983E+02  0.29999985205E+02 0.  0.
        -12    1    1    2    0    0 -0.24403627019E+02 -0.27166777914E+02  0.17877226844E+02  0.40659145017E+02  0.00000000000E+00 0.  1.
         11    1    3    3    0    0 -0.15625217514E+01  0.47552781567E+01 -0.14009363165E+01  0.51977656157E+01  0.51100000000E-03 0.  1.
        -11    1    3    3    0    0  0.22267449239E+02  0.27559052835E+02 -0.11429234106E+02  0.37228592255E+02  0.51100000000E-03 0. -1.
         12    1    3    3    0    0  0.36986995317E+01 -0.51475530785E+01 -0.50470564215E+01  0.81024971116E+01  0.00000000000E+00 0. -1.
</event>
<event>
 7    1  0.5487071E-013  0.5052887E+02  0.7816164E-02  0.1300439E+00
        -11   -1    0    0    0    0  0.00000000000E+00  0.00000000000E+00  0.45593999997E+02  0.45594000000E+02  0.51100000000E-03 0.  1.
         11   -1    0    0    0    0 -0.00000000000E+00 -0.00000000000E+00 -0.45593999997E+02  0.45594000000E+02  0.51100000000E-03 0. -1.
    9900012    2    1    2    0    0 -0.98798728297E+01 -0.19314567714E+02 -0.34387505652E+02  0.50528868699E+02  0.30000026899E+02 0.  0.
        -12    1    1    2    0    0  0.98798728297E+01  0.19314567714E+02  0.34387505652E+02  0.40659131301E+02  0.00000000000E+00 0.  1.
         11    1    3    3    0    0 -0.15378997423E+01 -0.83109620906E-01  0.83571630821E+00  0.17522741896E+01  0.51100000000E-03 0.  1.
        -11    1    3    3    0    0 -0.40154776470E+01  0.63194462457E+01 -0.10980849074E+02  0.13290542060E+02  0.51100000000E-03 0. -1.
         12    1    3    3    0    0 -0.43264954404E+01 -0.25550904339E+02 -0.24242372886E+02  0.35486052450E+02  0.00000000000E+00 0. -1.
</event>
<event>
 7    1  0.5487071E-013  0.5052887E+02  0.7816164E-02  0.1300439E+00
        -11   -1    0    0    0    0  0.00000000000E+00  0.00000000000E+00  0.45593999997E+02  0.45594000000E+02  0.51100000000E-03 0.  1.
         11   -1    0    0    0    0 -0.00000000000E+00 -0.00000000000E+00 -0.45593999997E+02  0.45594000000E+02  0.51100000000E-03 0. -1.
    9900012    2    1    2    0    0 -0.18521097023E+02 -0.43421977338E+01 -0.35934371137E+02  0.50528871319E+02  0.30000034862E+02 0.  0.
        -12    1    1    2    0    0  0.18521097023E+02  0.43421977338E+01  0.35934371137E+02  0.40659128681E+02  0.00000000000E+00 0.  1.
         11    1    3    3    0    0 -0.13615706877E+02 -0.91812262452E+01 -0.15556269102E+02  0.22620342565E+02  0.51100000000E-03 0.  1.
        -11    1    3    3    0    0 -0.10971748541E+02  0.58730020517E+01 -0.16374903721E+02  0.20567179955E+02  0.51100000000E-03 0. -1.
         12    1    3    3    0    0  0.60663583951E+01 -0.10339735403E+01 -0.40031983138E+01  0.73413487998E+01  0.00000000000E+00 0. -1.
</event>
<event>
 7    1  0.5487071E-013  0.5052886E+02  0.7816164E-02  0.1300439E+00
        -11   -1    0    0    0    0  0.00000000000E+00  0.00000000000E+00  0.45593999997E+02  0.45594000000E+02  0.51100000000E-03 0.  1.
         11   -1    0    0    0    0 -0.00000000000E+00 -0.00000000000E+00 -0.45593999997E+02  0.45594000000E+02  0.51100000000E-03 0. -1.
    9900012    2    1    2    0    0  0.48822933956E+01 -0.37991847021E+02 -0.13636296553E+02  0.50528858192E+02  0.29999994961E+02 0.  0.
        -12    1    1    2    0    0 -0.48822933956E+01  0.37991847021E+02  0.13636296553E+02  0.40659141808E+02  0.00000000000E+00 0.  1.
         11    1    3    3    0    0  0.23051794165E+01 -0.68670151898E+01  0.89745658700E+00  0.72989847476E+01  0.51100000000E-03 0. -1.
        -11    1    3    3    0    0  0.29034755360E+01 -0.12747558174E+02  0.70716265085E+01  0.14863993788E+02  0.51100000000E-03 0.  1.
        -12    1    3    3    0    0 -0.32636155697E+00 -0.18377273657E+02 -0.21605379648E+02  0.28365879656E+02  0.00000000000E+00 0.  1.
</event>
<event>
 7    1  0.5487071E-013  0.5052888E+02  0.7816164E-02  0.1300439E+00
        -11   -1    0    0    0    0  0.00000000000E+00  0.00000000000E+00  0.45593999997E+02  0.45594000000E+02  0.51100000000E-03 0. -1.
         11   -1    0    0    0    0 -0.00000000000E+00 -0.00000000000E+00 -0.45593999997E+02  0.45594000000E+02  0.51100000000E-03 0.  1.
    9900012    2    1    2    0    0  0.16533730007E+02  0.34957595202E+02 -0.12560495714E+02  0.50528883644E+02  0.30000072325E+02 0.  0.
        -12    1    1    2    0    0 -0.16533730007E+02 -0.34957595202E+02  0.12560495714E+02  0.40659116356E+02  0.00000000000E+00 0.  1.
         11    1    3    3    0    0  0.11170447088E+02  0.27881972596E+02 -0.12899625531E+02  0.32689197346E+02  0.51100000000E-03 0. -1.
        -11    1    3    3    0    0  0.76847427920E+01  0.72597446466E+01  0.56888459683E+01  0.12005087789E+02  0.51100000000E-03 0.  1.
        -12    1    3    3    0    0 -0.23214598729E+01 -0.18412204097E+00 -0.53497161515E+01  0.58345985096E+01  0.00000000000E+00 0.  1.
</event>
<event>
 7    1  0.5487071E-013  0.5052886E+02  0.7816164E-02  0.1300439E+00
        -11   -1    0    0    0    0  0.00000000000E+00  0.00000000000E+00  0.45593999997E+02  0.45594000000E+02  0.51100000000E-03 0. -1.
         11   -1    0    0    0    0 -0.00000000000E+00 -0.00000000000E+00 -0.45593999997E+02  0.45594000000E+02  0.51100000000E-03 0.  1.
    9900012    2    1    2    0    0  0.30336556671E+02 -0.24521375175E+02  0.11470000102E+02  0.50528863100E+02  0.30000009877E+02 0.  0.
        -12    1    1    2    0    0 -0.30336556671E+02  0.24521375175E+02 -0.11470000102E+02  0.40659136900E+02  0.00000000000E+00 0.  1.
         11    1    3    3    0    0  0.23595484014E+02 -0.16411474977E+02  0.10974070187E+02  0.30765461049E+02  0.51100000000E-03 0. -1.
        -11    1    3    3    0    0  0.21881996066E+01 -0.12071780564E+02 -0.32094911271E+01  0.12681361798E+02  0.51100000000E-03 0.  1.
         12    1    3    3    0    0  0.45528730504E+01  0.39618803659E+01  0.37054210414E+01  0.70820402527E+01  0.00000000000E+00 0. -1.
</event>
<event>
 7    1  0.5487071E-013  0.5052886E+02  0.7816164E-02  0.1300439E+00
        -11   -1    0    0    0    0  0.00000000000E+00  0.00000000000E+00  0.45593999997E+02  0.45594000000E+02  0.51100000000E-03 0.  1.
         11   -1    0    0    0    0 -0.00000000000E+00 -0.00000000000E+00 -0.45593999997E+02  0.45594000000E+02  0.51100000000E-03 0. -1.
    9900012    2    1    2    0    0 -0.18982516101E+02  0.92406715728E+01 -0.34748231520E+02  0.50528861760E+02  0.30000005806E+02 0.  0.
        -12    1    1    2    0    0  0.18982516101E+02 -0.92406715728E+01  0.34748231520E+02  0.40659138240E+02  0.00000000000E+00 0.  1.
         11    1    3    3    0    0 -0.14657535355E+02  0.20592418698E+01 -0.68638192401E+01  0.16315509020E+02  0.51100000000E-03 0. -1.
        -11    1    3    3    0    0 -0.31966334385E+01 -0.33440238165E+01 -0.26373677384E+00  0.46336290284E+01  0.51100000000E-03 0.  1.
         12    1    3    3    0    0 -0.11283473073E+01  0.10525453519E+02 -0.27620675506E+02  0.29579723712E+02  0.00000000000E+00 0. -1.
</event>
<event>
 7    1  0.5487071E-013  0.5052885E+02  0.7816164E-02  0.1300439E+00
        -11   -1    0    0    0    0  0.00000000000E+00  0.00000000000E+00  0.45593999997E+02  0.45594000000E+02  0.51100000000E-03 0.  1.
         11   -1    0    0    0    0 -0.00000000000E+00 -0.00000000000E+00 -0.45593999997E+02  0.45594000000E+02  0.51100000000E-03 0. -1.
    9900012    2    1    2    0    0 -0.32131659994E+02  0.14664524765E+02 -0.20141365909E+02  0.50528849969E+02  0.29999969965E+02 0.  0.
        -12    1    1    2    0    0  0.32131659994E+02 -0.14664524765E+02  0.20141365909E+02  0.40659150031E+02  0.00000000000E+00 0.  1.
         11    1    3    3    0    0  0.25835281129E+01  0.58545275685E+01  0.55171989749E+00  0.64229670455E+01  0.51100000000E-03 0. -1.
        -11    1    3    3    0    0  0.10143673634E+01  0.11914811200E+01  0.76031375273E+00  0.17397257459E+01  0.51100000000E-03 0.  1.
         12    1    3    3    0    0 -0.35729555470E+02  0.76185160764E+01 -0.21453399560E+02  0.42366157177E+02  0.00000000000E+00 0. -1.
</event>
<event>
 7    1  0.5487071E-013  0.5052885E+02  0.7816164E-02  0.1300439E+00
        -11   -1    0    0    0    0  0.00000000000E+00  0.00000000000E+00  0.45593999997E+02  0.45594000000E+02  0.51100000000E-03 0.  1.
         11   -1    0    0    0    0 -0.00000000000E+00 -0.00000000000E+00 -0.45593999997E+02  0.45594000000E+02  0.51100000000E-03 0. -1.
    9900012    2    1    2    0    0 -0.24268954259E+01  0.22772434273E+01 -0.40522721788E+02  0.50528848015E+02  0.29999964026E+02 0.  0.
        -12    1    1    2    0    0  0.24268954259E+01 -0.22772434273E+01  0.40522721788E+02  0.40659151985E+02  0.00000000000E+00 0.  1.
         11    1    3    3    0    0  0.56998699903E+01 -0.13926661014E+01 -0.37744216169E+02  0.38197563943E+02  0.51100000000E-03 0. -1.
        -11    1    3    3    0    0 -0.35872752271E+00  0.40880830001E+01 -0.10406378961E+00  0.41051111538E+01  0.51100000000E-03 0.  1.
        -12    1    3    3    0    0 -0.77680378935E+01 -0.41817347139E+00 -0.26744418300E+01  0.82261729176E+01  0.00000000000E+00 0.  1.
</event>
<event>
 7    1  0.5487071E-013  0.5052885E+02  0.7816164E-02  0.1300439E+00
        -11   -1    0    0    0    0  0.00000000000E+00  0.00000000000E+00  0.45593999997E+02  0.45594000000E+02  0.51100000000E-03 0. -1.
         11   -1    0    0    0    0 -0.00000000000E+00 -0.00000000000E+00 -0.45593999997E+02  0.45594000000E+02  0.51100000000E-03 0.  1.
    9900012    2    1    2    0    0  0.25152038332E+02  0.11683474584E+02  0.29732769438E+02  0.50528853562E+02  0.29999980888E+02 0.  0.
        -12    1    1    2    0    0 -0.25152038332E+02 -0.11683474584E+02 -0.29732769438E+02  0.40659146438E+02  0.00000000000E+00 0.  1.
         11    1    3    3    0    0  0.75265149868E+00  0.25906001017E+01  0.69758870731E+00  0.27864535580E+01  0.51100000000E-03 0.  1.
        -11    1    3    3    0    0  0.86930263440E+00 -0.62035746432E+01 -0.13195624916E+01  0.64016615698E+01  0.51100000000E-03 0. -1.
         12    1    3    3    0    0  0.23530084199E+02  0.15296449126E+02  0.30354743222E+02  0.41340738435E+02  0.00000000000E+00 0. -1.
</event>
<event>
 7    1  0.5487071E-013  0.5052884E+02  0.7816164E-02  0.1300439E+00
        -11   -1    0    0    0    0  0.00000000000E+00  0.00000000000E+00  0.45593999997E+02  0.45594000000E+02  0.51100000000E-03 0.  1.
         11   -1    0    0    0    0 -0.00000000000E+00 -0.00000000000E+00 -0.45593999997E+02  0.45594000000E+02  0.51100000000E-03 0. -1.
    9900012    2    1    2    0    0  0.22160450646E+02 -0.34043212884E+00 -0.34087623565E+02  0.50528836861E+02  0.29999930122E+02 0.  0.
        -12    1    1    2    0    0 -0.22160450646E+02  0.34043212884E+00  0.34087623565E+02  0.40659163139E+02  0.00000000000E+00 0.  1.
         11    1    3    3    0    0  0.41072440773E+01 -0.41879438059E+01 -0.12535365710E+02  0.13839932116E+02  0.51100000000E-03 0. -1.
        -11    1    3    3    0    0  0.33313654115E+01 -0.90442435972E+01 -0.41205436734E+01  0.10482138054E+02  0.51100000000E-03 0.  1.
        -12    1    3    3    0    0  0.14721841157E+02  0.12891755274E+02 -0.17431714182E+02  0.26206766692E+02  0.00000000000E+00 0.  1.
</event>
<event>
 7    1  0.5487071E-013  0.5052886E+02  0.7816164E-02  0.1300439E+00
        -11   -1    0    0    0    0  0.00000000000E+00  0.00000000000E+00  0.45593999997E+02  0.45594000000E+02  0.51100000000E-03 0.  1.
         11   -1    0    0    0    0 -0.00000000000E+00 -0.00000000000E+00 -0.45593999997E+02  0.45594000000E+02  0.51100000000E-03 0. -1.
    9900012    2    1    2    0    0 -0.11484863315E+02  0.10529682663E+02 -0.37555153334E+02  0.50528857802E+02  0.29999993775E+02 0.  0.
        -12    1    1    2    0    0  0.11484863315E+02 -0.10529682663E+02  0.37555153334E+02  0.40659142198E+02  0.00000000000E+00 0.  1.
         11    1    3    3    0    0 -0.26811518125E+01  0.11195477473E+02 -0.31470248393E+02  0.33509757162E+02  0.51100000000E-03 0. -1.
        -11    1    3    3    0    0  0.14646635352E+01  0.16855201008E+01 -0.60883845631E+01  0.64849552143E+01  0.51100000000E-03 0.  1.
        -12    1    3    3    0    0 -0.10268375038E+02 -0.23513149111E+01  0.34796226721E-02  0.10534145425E+02  0.00000000000E+00 0.  1.
</event>
<event>
 7    1  0.5487071E-013  0.5052886E+02  0.7816164E-02  0.1300439E+00
        -11   -1    0    0    0    0  0.00000000000E+00  0.00000000000E+00  0.45593999997E+02  0.45594000000E+02  0.51100000000E-03 0.  1.
         11   -1    0    0    0    0 -0.00000000000E+00 -0.00000000000E+00 -0.45593999997E+02  0.45594000000E+02  0.51100000000E-03 0. -1.
    9900012    2    1    2    0    0  0.42637315003E+01  0.29919325412E+02 -0.27199634770E+02  0.50528861162E+02  0.30000003989E+02 0.  0.
        -12    1    1    2    0    0 -0.42637315003E+01 -0.29919325412E+02  0.27199634770E+02  0.40659138838E+02  0.00000000000E+00 0.  1.
         11    1    3    3    0    0  0.16561782134E+01  0.85079368581E+01 -0.22024743782E+02  0.23668909033E+02  0.51100000000E-03 0. -1.
        -11    1    3    3    0    0  0.68266990028E+01  0.14260349443E+02 -0.84593068546E+01  0.17931013865E+02  0.51100000000E-03 0.  1.
        -12    1    3    3    0    0 -0.42191457159E+01  0.71510391109E+01  0.32844158673E+01  0.89289382643E+01  0.00000000000E+00 0.  1.
</event>
<event>
 7    1  0.5487071E-013  0.5052887E+02  0.7816164E-02  0.1300439E+00
        -11   -1    0    0    0    0  0.00000000000E+00  0.00000000000E+00  0.45593999997E+02  0.45594000000E+02  0.51100000000E-03 0.  1.
         11   -1    0    0    0    0 -0.00000000000E+00 -0.00000000000E+00 -0.45593999997E+02  0.45594000000E+02  0.51100000000E-03 0. -1.
    9900012    2    1    2    0    0 -0.37737198365E+02 -0.14095595744E+02 -0.55120894115E+01  0.50528867084E+02  0.30000021988E+02 0.  0.
        -12    1    1    2    0    0  0.37737198365E+02  0.14095595744E+02  0.55120894115E+01  0.40659132916E+02  0.00000000000E+00 0.  1.
         11    1    3    3    0    0 -0.82045418755E+01 -0.83794033835E+01 -0.53402107758E+01  0.12885913233E+02  0.51100000000E-03 0. -1.
        -11    1    3    3    0    0 -0.22344000970E+01  0.73678734121E+00 -0.81476161196E+01  0.84805098946E+01  0.51100000000E-03 0.  1.
         12    1    3    3    0    0 -0.27298256393E+02 -0.64529797013E+01  0.79757374839E+01  0.29162443956E+02  0.00000000000E+00 0. -1.
</event>
<event>
 7    1  0.5487071E-013  0.5052886E+02  0.7816164E-02  0.1300439E+00
        -11   -1    0    0    0    0  0.00000000000E+00  0.00000000000E+00  0.45593999997E+02  0.45594000000E+02  0.51100000000E-03 0.  1.
         11   -1    0    0    0    0 -0.00000000000E+00 -0.00000000000E+00 -0.45593999997E+02  0.45594000000E+02  0.51100000000E-03 0. -1.
    9900012    2    1    2    0    0 -0.12975461038E+02  0.26957548256E+02 -0.27533496768E+02  0.50528862756E+02  0.30000008835E+02 0.  0.
        -12    1    1    2    0    0  0.12975461038E+02 -0.26957548256E+02  0.27533496768E+02  0.40659137244E+02  0.00000000000E+00 0.  1.
         11    1    3    3    0    0 -0.81241688588E+01  0.56323422828E+01 -0.94224655014E+01  0.13656802540E+02  0.51100000000E-03 0. -1.
        -11    1    3    3    0    0 -0.13997591729E+02  0.94833802794E+01 -0.11878603389E+02  0.20663211137E+02  0.51100000000E-03 0.  1.
        -12    1    3    3    0    0  0.91462995507E+01  0.11841825694E+02 -0.62324278781E+01  0.16208849080E+02  0.00000000000E+00 0.  1.
</event>
<event>
 7    1  0.5487071E-013  0.5052886E+02  0.7816164E-02  0.1300439E+00
        -11   -1    0    0    0    0  0.00000000000E+00  0.00000000000E+00  0.45593999997E+02  0.45594000000E+02  0.51100000000E-03 0.  1.
         11   -1    0    0    0    0 -0.00000000000E+00 -0.00000000000E+00 -0.45593999997E+02  0.45594000000E+02  0.51100000000E-03 0. -1.
    9900012    2    1    2    0    0 -0.30492639498E+02  0.26844136160E+02  0.16603973735E+01  0.50528860447E+02  0.30000001815E+02 0.  0.
        -12    1    1    2    0    0  0.30492639498E+02 -0.26844136160E+02 -0.16603973735E+01  0.40659139553E+02  0.00000000000E+00 0.  1.
         11    1    3    3    0    0 -0.11498709842E+01  0.88999411597E+01  0.80901067330E+01  0.12082259025E+02  0.51100000000E-03 0.  1.
        -11    1    3    3    0    0 -0.59410710476E+01 -0.18395102699E+01 -0.46237055236E+01  0.77497597547E+01  0.51100000000E-03 0. -1.
         12    1    3    3    0    0 -0.23401697466E+02  0.19783705271E+02 -0.18060038359E+01  0.30696841668E+02  0.00000000000E+00 0. -1.
</event>
<event>
 7    1  0.5487071E-013  0.5052886E+02  0.7816164E-02  0.1300439E+00
        -11   -1    0    0    0    0  0.00000000000E+00  0.00000000000E+00  0.45593999997E+02  0.45594000000E+02  0.51100000000E-03 0.  1.
         11   -1    0    0    0    0 -0.00000000000E+00 -0.00000000000E+00 -0.45593999997E+02  0.45594000000E+02  0.51100000000E-03 0. -1.
    9900012    2    1    2    0    0 -0.30690718064E+02  0.24737021503E+02 -0.99662185912E+01  0.50528856857E+02  0.29999990902E+02 0.  0.
        -12    1    1    2    0    0  0.30690718064E+02 -0.24737021503E+02  0.99662185912E+01  0.40659143143E+02  0.00000000000E+00 0.  1.
         11    1    3    3    0    0 -0.14748557275E+02  0.24060076901E+02 -0.11773632024E+02  0.30578189179E+02  0.51100000000E-03 0. -1.
        -11    1    3    3    0    0 -0.68511519768E+01  0.61764566416E+01  0.12791177787E+01  0.93125207441E+01  0.51100000000E-03 0.  1.
        -12    1    3    3    0    0 -0.90910088117E+01 -0.54995120395E+01  0.52829565367E+00  0.10638146934E+02  0.00000000000E+00 0.  1.
</event>
<event>
 7    1  0.5487071E-013  0.5052886E+02  0.7816164E-02  0.1300439E+00
        -11   -1    0    0    0    0  0.00000000000E+00  0.00000000000E+00  0.45593999997E+02  0.45594000000E+02  0.51100000000E-03 0.  1.
         11   -1    0    0    0    0 -0.00000000000E+00 -0.00000000000E+00 -0.45593999997E+02  0.45594000000E+02  0.51100000000E-03 0. -1.
    9900012    2    1    2    0    0  0.19919940628E+02  0.16872197988E+02 -0.31171948826E+02  0.50528862119E+02  0.30000006898E+02 0.  0.
        -12    1    1    2    0    0 -0.19919940628E+02 -0.16872197988E+02  0.31171948826E+02  0.40659137881E+02  0.00000000000E+00 0.  1.
         11    1    3    3    0    0  0.21596062555E+02  0.15434768586E+02 -0.13942611116E+02  0.29983635606E+02  0.51100000000E-03 0. -1.
        -11    1    3    3    0    0 -0.93101764308E+00  0.18566224361E+01  0.99348638720E+00  0.23023588306E+01  0.51100000000E-03 0.  1.
         12    1    3    3    0    0 -0.74510428381E+00 -0.41919303415E+00 -0.18222824097E+02  0.18242867682E+02  0.00000000000E+00 0. -1.
</event>
<event>
 7    1  0.5487071E-013  0.5052885E+02  0.7816164E-02  0.1300439E+00
        -11   -1    0    0    0    0  0.00000000000E+00  0.00000000000E+00  0.45593999997E+02  0.45594000000E+02  0.51100000000E-03 0. -1.
         11   -1    0    0    0    0 -0.00000000000E+00 -0.00000000000E+00 -0.45593999997E+02  0.45594000000E+02  0.51100000000E-03 0.  1.
    9900012    2    1    2    0    0 -0.88077986783E+01 -0.19955559012E+02  0.34312749690E+02  0.50528850423E+02  0.29999971345E+02 0.  0.
        -12    1    1    2    0    0  0.88077986783E+01  0.19955559012E+02 -0.34312749690E+02  0.40659149577E+02  0.00000000000E+00 0.  1.
         11    1    3    3    0    0 -0.11625991293E+02 -0.10613358789E+02  0.20200632175E+02  0.25610009740E+02  0.51100000000E-03 0. -1.
        -11    1    3    3    0    0 -0.94123433684E+00  0.13528258223E+01 -0.35600837958E+01  0.39230417633E+01  0.51100000000E-03 0.  1.
        -12    1    3    3    0    0  0.37594269510E+01 -0.10695026045E+02  0.17672201311E+02  0.20995798920E+02  0.00000000000E+00 0.  1.
</event>
<event>
 7    1  0.5487071E-013  0.5052885E+02  0.7816164E-02  0.1300439E+00
        -11   -1    0    0    0    0  0.00000000000E+00  0.00000000000E+00  0.45593999997E+02  0.45594000000E+02  0.51100000000E-03 0.  1.
         11   -1    0    0    0    0 -0.00000000000E+00 -0.00000000000E+00 -0.45593999997E+02  0.45594000000E+02  0.51100000000E-03 0. -1.
    9900012    2    1    2    0    0 -0.18262184306E+02  0.36324394161E+02  0.44394879457E+00  0.50528854936E+02  0.29999985065E+02 0.  0.
        -12    1    1    2    0    0  0.18262184306E+02 -0.36324394161E+02 -0.44394879457E+00  0.40659145064E+02  0.00000000000E+00 0.  1.
         11    1    3    3    0    0 -0.66640304923E+01  0.34072108094E+01  0.35748735332E+01  0.82944625469E+01  0.51100000000E-03 0. -1.
        -11    1    3    3    0    0 -0.45755898968E+01  0.41667290184E+01 -0.10085289560E+02  0.11832612534E+02  0.51100000000E-03 0.  1.
         12    1    3    3    0    0 -0.70225639164E+01  0.28750454333E+02  0.69543648211E+01  0.30401779856E+02  0.00000000000E+00 0. -1.
</event>
<event>
 7    1  0.5487071E-013  0.5052887E+02  0.7816164E-02  0.1300439E+00
        -11   -1    0    0    0    0  0.00000000000E+00  0.00000000000E+00  0.45593999997E+02  0.45594000000E+02  0.51100000000E-03 0.  1.
         11   -1    0    0    0    0 -0.00000000000E+00 -0.00000000000E+00 -0.45593999997E+02  0.45594000000E+02  0.51100000000E-03 0. -1.
    9900012    2    1    2    0    0 -0.40341653609E+02  0.29783010632E+00 -0.50623549861E+01  0.50528866258E+02  0.30000019478E+02 0.  0.
        -12    1    1    2    0    0  0.40341653609E+02 -0.29783010632E+00  0.50623549861E+01  0.40659133742E+02  0.00000000000E+00 0.  1.
         11    1    3    3    0    0 -0.37242884671E+01  0.55542921673E+01  0.38709504611E+01  0.77268844821E+01  0.51100000000E-03 0.  1.
        -11    1    3    3    0    0 -0.26789922147E+01 -0.19851857250E+01 -0.80295451992E+01  0.86943405740E+01  0.51100000000E-03 0. -1.
        -12    1    3    3    0    0 -0.33938372927E+02 -0.32712763359E+01 -0.90376024812E+00  0.34107641202E+02  0.00000000000E+00 0.  1.
</event>
<event>
 7    1  0.5487071E-013  0.5052886E+02  0.7816164E-02  0.1300439E+00
        -11   -1    0    0    0    0  0.00000000000E+00  0.00000000000E+00  0.45593999997E+02  0.45594000000E+02  0.51100000000E-03 0. -1.
         11   -1    0    0    0    0 -0.00000000000E+00 -0.00000000000E+00 -0.45593999997E+02  0.45594000000E+02  0.51100000000E-03 0.  1.
    9900012    2    1    2    0    0 -0.16039062405E+02  0.31335317067E+02  0.20347291581E+02  0.50528857201E+02  0.29999991947E+02 0.  0.
        -12    1    1    2    0    0  0.16039062405E+02 -0.31335317067E+02 -0.20347291581E+02  0.40659142799E+02  0.00000000000E+00 0.  1.
         11    1    3    3    0    0 -0.17533643470E+02  0.22470739364E+02  0.22043964342E+02  0.36031918420E+02  0.51100000000E-03 0. -1.
        -11    1    3    3    0    0  0.25157894795E+01  0.75718435995E+01  0.37430698906E+01  0.88132051302E+01  0.51100000000E-03 0.  1.
        -12    1    3    3    0    0 -0.10212084149E+01  0.12927341033E+01 -0.54397426516E+01  0.56837336500E+01  0.00000000000E+00 0.  1.
</event>
<event>
 7    1  0.5487071E-013  0.5052890E+02  0.7816164E-02  0.1300439E+00
        -11   -1    0    0    0    0  0.00000000000E+00  0.00000000000E+00  0.45593999997E+02  0.45594000000E+02  0.51100000000E-03 0.  1.
         11   -1    0    0    0    0 -0.00000000000E+00 -0.00000000000E+00 -0.45593999997E+02  0.45594000000E+02  0.51100000000E-03 0. -1.
    9900012    2    1    2    0    0 -0.19419747546E+02  0.13754532861E+02 -0.32967386175E+02  0.50528901139E+02  0.30000125503E+02 0.  0.
        -12    1    1    2    0    0  0.19419747546E+02 -0.13754532861E+02  0.32967386175E+02  0.40659098861E+02  0.00000000000E+00 0.  1.
         11    1    3    3    0    0 -0.12710262259E+02  0.13767038250E+02 -0.28911890993E+02  0.34452569570E+02  0.51100000000E-03 0. -1.
        -11    1    3    3    0    0 -0.41561275444E+00  0.55669290580E+01  0.17570527441E+01  0.58524070010E+01  0.51100000000E-03 0.  1.
        -12    1    3    3    0    0 -0.62938725325E+01 -0.55794344468E+01 -0.58125479254E+01  0.10223924569E+02  0.00000000000E+00 0.  1.
</event>
<event>
 7    1  0.5487071E-013  0.5052885E+02  0.7816164E-02  0.1300439E+00
        -11   -1    0    0    0    0  0.00000000000E+00  0.00000000000E+00  0.45593999997E+02  0.45594000000E+02  0.51100000000E-03 0.  1.
         11   -1    0    0    0    0 -0.00000000000E+00 -0.00000000000E+00 -0.45593999997E+02  0.45594000000E+02  0.51100000000E-03 0. -1.
    9900012    2    1    2    0    0 -0.19414483583E+02 -0.76954901778E+01 -0.34885864096E+02  0.50528852744E+02  0.29999978399E+02 0.  0.
        -12    1    1    2    0    0  0.19414483583E+02  0.76954901778E+01  0.34885864096E+02  0.40659147256E+02  0.00000000000E+00 0.  1.
         11    1    3    3    0    0 -0.95047530232E+01 -0.43737059193E+00 -0.10688528542E+02  0.14310005791E+02  0.51100000000E-03 0. -1.
        -11    1    3    3    0    0 -0.72633221117E+01  0.55566761159E+01 -0.20767081857E+02  0.22691500318E+02  0.51100000000E-03 0.  1.
        -12    1    3    3    0    0 -0.26464084484E+01 -0.12814795702E+02 -0.34302536965E+01  0.13527346635E+02  0.00000000000E+00 0.  1.
</event>
<event>
 7    1  0.5487071E-013  0.5052886E+02  0.7816164E-02  0.1300439E+00
        -11   -1    0    0    0    0  0.00000000000E+00  0.00000000000E+00  0.45593999997E+02  0.45594000000E+02  0.51100000000E-03 0. -1.
         11   -1    0    0    0    0 -0.00000000000E+00 -0.00000000000E+00 -0.45593999997E+02  0.45594000000E+02  0.51100000000E-03 0.  1.
    9900012    2    1    2    0    0  0.74716777908E+01 -0.21067121968E+02  0.33963453755E+02  0.50528858494E+02  0.29999995879E+02 0.  0.
        -12    1    1    2    0    0 -0.74716777908E+01  0.21067121968E+02 -0.33963453755E+02  0.40659141506E+02  0.00000000000E+00 0.  1.
         11    1    3    3    0    0  0.82880520201E+01 -0.61663919823E+01  0.68162108544E+01  0.12376466662E+02  0.51100000000E-03 0. -1.
        -11    1    3    3    0    0  0.85859291528E+01 -0.13695230626E+02  0.22195916636E+02  0.27457899354E+02  0.51100000000E-03 0.  1.
        -12    1    3    3    0    0 -0.94023033821E+01 -0.12054993595E+01  0.49513262642E+01  0.10694492478E+02  0.00000000000E+00 0.  1.
</event>
<event>
 7    1  0.5487071E-013  0.5052884E+02  0.7816164E-02  0.1300439E+00
        -11   -1    0    0    0    0  0.00000000000E+00  0.00000000000E+00  0.45593999997E+02  0.45594000000E+02  0.51100000000E-03 0.  1.
         11   -1    0    0    0    0 -0.00000000000E+00 -0.00000000000E+00 -0.45593999997E+02  0.45594000000E+02  0.51100000000E-03 0. -1.
    9900012    2    1    2    0    0  0.27077407268E+02 -0.13704557787E+02 -0.27058570524E+02  0.50528842025E+02  0.29999945818E+02 0.  0.
        -12    1    1    2    0    0 -0.27077407268E+02  0.13704557787E+02  0.27058570524E+02  0.40659157975E+02  0.00000000000E+00 0.  1.
         11    1    3    3    0    0  0.24412833583E+02 -0.84505187197E+01 -0.20129090840E+02  0.32750236770E+02  0.51100000000E-03 0. -1.
        -11    1    3    3    0    0  0.20568171394E+01 -0.10592169826E+02 -0.32574333992E+01  0.11270999555E+02  0.51100000000E-03 0.  1.
        -12    1    3    3    0    0  0.60775654529E+00  0.53381307590E+01 -0.36720462848E+01  0.65076056992E+01  0.00000000000E+00 0.  1.
</event>
<event>
 7    1  0.5487071E-013  0.5052886E+02  0.7816164E-02  0.1300439E+00
        -11   -1    0    0    0    0  0.00000000000E+00  0.00000000000E+00  0.45593999997E+02  0.45594000000E+02  0.51100000000E-03 0.  1.
         11   -1    0    0    0    0 -0.00000000000E+00 -0.00000000000E+00 -0.45593999997E+02  0.45594000000E+02  0.51100000000E-03 0. -1.
    9900012    2    1    2    0    0  0.74886183752E+00  0.13960878476E+02 -0.38179818702E+02  0.50528862306E+02  0.30000007465E+02 0.  0.
        -12    1    1    2    0    0 -0.74886183752E+00 -0.13960878476E+02  0.38179818702E+02  0.40659137694E+02  0.00000000000E+00 0.  1.
         11    1    3    3    0    0  0.60279613270E+01  0.78142068459E+01 -0.30665284309E+02  0.32214248531E+02  0.51100000000E-03 0. -1.
        -11    1    3    3    0    0  0.14911208111E+01 -0.39975786256E+01 -0.63934672553E+00  0.43142601495E+01  0.51100000000E-03 0.  1.
        -12    1    3    3    0    0 -0.67702203005E+01  0.10144250256E+02 -0.68751876673E+01  0.14000353625E+02  0.00000000000E+00 0.  1.
</event>
<event>
 7    1  0.5487071E-013  0.5052886E+02  0.7816164E-02  0.1300439E+00
        -11   -1    0    0    0    0  0.00000000000E+00  0.00000000000E+00  0.45593999997E+02  0.45594000000E+02  0.51100000000E-03 0.  1.
         11   -1    0    0    0    0 -0.00000000000E+00 -0.00000000000E+00 -0.45593999997E+02  0.45594000000E+02  0.51100000000E-03 0. -1.
    9900012    2    1    2    0    0 -0.31474387767E+02  0.24641460772E+02  0.74382250554E+01  0.50528857531E+02  0.29999992953E+02 0.  0.
        -12    1    1    2    0    0  0.31474387767E+02 -0.24641460772E+02 -0.74382250554E+01  0.40659142469E+02  0.00000000000E+00 0.  1.
         11    1    3    3    0    0 -0.17601101559E+01  0.12166131440E+02 -0.35743960341E+01  0.12801915843E+02  0.51100000000E-03 0. -1.
        -11    1    3    3    0    0 -0.21358545881E+01 -0.57409271181E+00  0.65238642466E+01  0.68885602438E+01  0.51100000000E-03 0.  1.
        -12    1    3    3    0    0 -0.27578423023E+02  0.13049422043E+02  0.44887568429E+01  0.30838381444E+02  0.00000000000E+00 0.  1.
</event>
<event>
 7    1  0.5487071E-013  0.5052886E+02  0.7816164E-02  0.1300439E+00
        -11   -1    0    0    0    0  0.00000000000E+00  0.00000000000E+00  0.45593999997E+02  0.45594000000E+02  0.51100000000E-03 0.  1.
         11   -1    0    0    0    0 -0.00000000000E+00 -0.00000000000E+00 -0.45593999997E+02  0.45594000000E+02  0.51100000000E-03 0. -1.
    9900012    2    1    2    0    0 -0.17885741072E+02 -0.31342692463E+02 -0.18732370516E+02  0.50528858227E+02  0.29999995067E+02 0.  0.
        -12    1    1    2    0    0  0.17885741072E+02  0.31342692463E+02  0.18732370516E+02  0.40659141773E+02  0.00000000000E+00 0.  1.
         11    1    3    3    0    0 -0.23462742151E+01 -0.51021549006E+01 -0.74750965407E+01  0.93495484316E+01  0.51100000000E-03 0. -1.
        -11    1    3    3    0    0 -0.86197730345E+01 -0.29613231195E+01 -0.14035382146E+02  0.16735049269E+02  0.51100000000E-03 0.  1.
         12    1    3    3    0    0 -0.69196938223E+01 -0.23279214443E+02  0.27781081704E+01  0.24444260527E+02  0.00000000000E+00 0. -1.
</event>
<event>
 7    1  0.5487071E-013  0.5052887E+02  0.7816164E-02  0.1300439E+00
        -11   -1    0    0    0    0  0.00000000000E+00  0.00000000000E+00  0.45593999997E+02  0.45594000000E+02  0.51100000000E-03 0. -1.
         11   -1    0    0    0    0 -0.00000000000E+00 -0.00000000000E+00 -0.45593999997E+02  0.45594000000E+02  0.51100000000E-03 0.  1.
    9900012    2    1    2    0    0  0.12701919638E+02 -0.38339610278E+02  0.46798183583E+01  0.50528865988E+02  0.30000018657E+02 0.  0.
        -12    1    1    2    0    0 -0.12701919638E+02  0.38339610278E+02 -0.46798183583E+01  0.40659134012E+02  0.00000000000E+00 0.  1.
         11    1    3    3    0    0 -0.15987760631E+01 -0.53329057356E+01  0.38564915277E+01  0.67726284151E+01  0.51100000000E-03 0. -1.
        -11    1    3    3    0    0  0.22069750188E+01 -0.30920604381E+02 -0.23255626942E+01  0.31086375732E+02  0.51100000000E-03 0.  1.
        -12    1    3    3    0    0  0.12093720682E+02 -0.20861001609E+01  0.31488895248E+01  0.12669861841E+02  0.00000000000E+00 0.  1.
</event>
<event>
 7    1  0.5487071E-013  0.5052886E+02  0.7816164E-02  0.1300439E+00
        -11   -1    0    0    0    0  0.00000000000E+00  0.00000000000E+00  0.45593999997E+02  0.45594000000E+02  0.51100000000E-03 0.  1.
         11   -1    0    0    0    0 -0.00000000000E+00 -0.00000000000E+00 -0.45593999997E+02  0.45594000000E+02  0.51100000000E-03 0. -1.
    9900012    2    1    2    0    0 -0.98138430675E+01 -0.39279340437E+02  0.37399819691E+01  0.50528861223E+02  0.30000004175E+02 0.  0.
        -12    1    1    2    0    0  0.98138430675E+01  0.39279340437E+02 -0.37399819691E+01  0.40659138777E+02  0.00000000000E+00 0.  1.
         11    1    3    3    0    0  0.32432277519E+01 -0.20495008755E+01  0.55205096824E+00  0.38760470356E+01  0.51100000000E-03 0. -1.
        -11    1    3    3    0    0  0.64773706127E+01 -0.31337776973E+01 -0.30734320576E+00  0.72021769499E+01  0.51100000000E-03 0.  1.
         12    1    3    3    0    0 -0.19534441432E+02 -0.34096061864E+02  0.34952742066E+01  0.39450637238E+02  0.00000000000E+00 0. -1.
</event>
<event>
 7    1  0.5487071E-013  0.5052886E+02  0.7816164E-02  0.1300439E+00
        -11   -1    0    0    0    0  0.00000000000E+00  0.00000000000E+00  0.45593999997E+02  0.45594000000E+02  0.51100000000E-03 0. -1.
         11   -1    0    0    0    0 -0.00000000000E+00 -0.00000000000E+00 -0.45593999997E+02  0.45594000000E+02  0.51100000000E-03 0.  1.
    9900012    2    1    2    0    0  0.24008752004E+02  0.32551180115E+02 -0.41432406164E+01  0.50528856594E+02  0.29999990105E+02 0.  0.
        -12    1    1    2    0    0 -0.24008752004E+02 -0.32551180115E+02  0.41432406164E+01  0.40659143406E+02  0.00000000000E+00 0.  1.
         11    1    3    3    0    0  0.18586047007E+02  0.98657614437E+01 -0.93685753389E+01  0.23033553706E+02  0.51100000000E-03 0. -1.
        -11    1    3    3    0    0  0.28198620646E+00  0.38001844097E+01 -0.42853088698E+01  0.57345261477E+01  0.51100000000E-03 0.  1.
        -12    1    3    3    0    0  0.51407187903E+01  0.18885234262E+02  0.95106435923E+01  0.21760776740E+02  0.00000000000E+00 0.  1.
</event>
<event>
 7    1  0.5487071E-013  0.5052886E+02  0.7816164E-02  0.1300439E+00
        -11   -1    0    0    0    0  0.00000000000E+00  0.00000000000E+00  0.45593999997E+02  0.45594000000E+02  0.51100000000E-03 0.  1.
         11   -1    0    0    0    0 -0.00000000000E+00 -0.00000000000E+00 -0.45593999997E+02  0.45594000000E+02  0.51100000000E-03 0. -1.
    9900012    2    1    2    0    0  0.17723831076E+02  0.14050638918E+02 -0.33787733484E+02  0.50528861101E+02  0.30000003804E+02 0.  0.
        -12    1    1    2    0    0 -0.17723831076E+02 -0.14050638918E+02  0.33787733484E+02  0.40659138899E+02  0.00000000000E+00 0.  1.
         11    1    3    3    0    0  0.23605753178E+01 -0.24454417942E+01 -0.24944140341E+01  0.42159937185E+01  0.51100000000E-03 0. -1.
        -11    1    3    3    0    0  0.17513437717E+02  0.22454138867E+01 -0.24952251042E+02  0.30567584408E+02  0.51100000000E-03 0.  1.
         12    1    3    3    0    0 -0.21501819584E+01  0.14250666826E+02 -0.63410684074E+01  0.15745282975E+02  0.00000000000E+00 0. -1.
</event>
<event>
 7    1  0.5487071E-013  0.5052887E+02  0.7816164E-02  0.1300439E+00
        -11   -1    0    0    0    0  0.00000000000E+00  0.00000000000E+00  0.45593999997E+02  0.45594000000E+02  0.51100000000E-03 0. -1.
         11   -1    0    0    0    0 -0.00000000000E+00 -0.00000000000E+00 -0.45593999997E+02  0.45594000000E+02  0.51100000000E-03 0.  1.
    9900012    2    1    2    0    0 -0.51590639561E+01  0.38148510115E+02 -0.13085871683E+02  0.50528870612E+02  0.30000032712E+02 0.  0.
        -12    1    1    2    0    0  0.51590639561E+01 -0.38148510115E+02  0.13085871683E+02  0.40659129388E+02  0.00000000000E+00 0.  1.
         11    1    3    3    0    0 -0.20999731937E+01  0.17697902499E+01 -0.89230015506E+00  0.28876019066E+01  0.51100000000E-03 0.  1.
        -11    1    3    3    0    0 -0.30160446437E+01 -0.91142708132E+00  0.55214289660E+01  0.63571536638E+01  0.51100000000E-03 0. -1.
         12    1    3    3    0    0 -0.43046118718E-01  0.37290146946E+02 -0.17715000494E+02  0.41284115041E+02  0.00000000000E+00 0. -1.
</event>
<event>
 7    1  0.5487071E-013  0.5052885E+02  0.7816164E-02  0.1300439E+00
        -11   -1    0    0    0    0  0.00000000000E+00  0.00000000000E+00  0.45593999997E+02  0.45594000000E+02  0.51100000000E-03 0. -1.
         11   -1    0    0    0    0 -0.00000000000E+00 -0.00000000000E+00 -0.45593999997E+02  0.45594000000E+02  0.51100000000E-03 0.  1.
    9900012    2    1    2    0    0  0.81657682689E+01 -0.34456491925E+02  0.19980918752E+02  0.50528847016E+02  0.29999960991E+02 0.  0.
        -12    1    1    2    0    0 -0.81657682689E+01  0.34456491925E+02 -0.19980918752E+02  0.40659152984E+02  0.00000000000E+00 0.  1.
         11    1    3    3    0    0  0.53506685778E+01 -0.78072850750E+01  0.24457541073E+01  0.97757387387E+01  0.51100000000E-03 0. -1.
        -11    1    3    3    0    0 -0.72254312865E+00 -0.23989330172E+02  0.14210998859E+01  0.24042245233E+02  0.51100000000E-03 0.  1.
        -12    1    3    3    0    0  0.35376428197E+01 -0.26598766775E+01  0.16114064758E+02  0.16710863045E+02  0.00000000000E+00 0.  1.
</event>
<event>
 7    1  0.5487071E-013  0.5052885E+02  0.7816164E-02  0.1300439E+00
        -11   -1    0    0    0    0  0.00000000000E+00  0.00000000000E+00  0.45593999997E+02  0.45594000000E+02  0.51100000000E-03 0. -1.
         11   -1    0    0    0    0 -0.00000000000E+00 -0.00000000000E+00 -0.45593999997E+02  0.45594000000E+02  0.51100000000E-03 0.  1.
    9900012    2    1    2    0    0  0.10277772687E+02  0.26659892184E+02  0.28927218340E+02  0.50528850678E+02  0.29999972122E+02 0.  0.
        -12    1    1    2    0    0 -0.10277772687E+02 -0.26659892184E+02 -0.28927218340E+02  0.40659149322E+02  0.00000000000E+00 0.  1.
         11    1    3    3    0    0  0.19033145597E+01  0.11333973802E+02  0.53163690772E+01  0.12662754395E+02  0.51100000000E-03 0. -1.
        -11    1    3    3    0    0 -0.21227521247E+00  0.68104250709E+01 -0.38742572753E+01  0.78381643329E+01  0.51100000000E-03 0.  1.
         12    1    3    3    0    0  0.85867333393E+01  0.85154933112E+01  0.27485106538E+02  0.30027931950E+02  0.00000000000E+00 0. -1.
</event>
<event>
 7    1  0.5487071E-013  0.5052886E+02  0.7816164E-02  0.1300439E+00
        -11   -1    0    0    0    0  0.00000000000E+00  0.00000000000E+00  0.45593999997E+02  0.45594000000E+02  0.51100000000E-03 0.  1.
         11   -1    0    0    0    0 -0.00000000000E+00 -0.00000000000E+00 -0.45593999997E+02  0.45594000000E+02  0.51100000000E-03 0. -1.
    9900012    2    1    2    0    0 -0.15769743027E+02  0.34911719715E+02 -0.13625437577E+02  0.50528861817E+02  0.30000005980E+02 0.  0.
        -12    1    1    2    0    0  0.15769743027E+02 -0.34911719715E+02  0.13625437577E+02  0.40659138183E+02  0.00000000000E+00 0.  1.
         11    1    3    3    0    0 -0.84892226806E+01  0.18960725842E+02  0.19785585388E+01  0.20868414418E+02  0.51100000000E-03 0. -1.
        -11    1    3    3    0    0 -0.43534922919E+01  0.38349956369E+01  0.35545616340E+01  0.68040425735E+01  0.51100000000E-03 0.  1.
         12    1    3    3    0    0 -0.29270280541E+01  0.12115998237E+02 -0.19158557750E+02  0.22856404826E+02  0.00000000000E+00 0. -1.
</event>
<event>
 7    1  0.5487071E-013  0.5052887E+02  0.7816164E-02  0.1300439E+00
        -11   -1    0    0    0    0  0.00000000000E+00  0.00000000000E+00  0.45593999997E+02  0.45594000000E+02  0.51100000000E-03 0.  1.
         11   -1    0    0    0    0 -0.00000000000E+00 -0.00000000000E+00 -0.45593999997E+02  0.45594000000E+02  0.51100000000E-03 0. -1.
    9900012    2    1    2    0    0 -0.20026386011E+02 -0.76407848655E+01 -0.34550360311E+02  0.50528866615E+02  0.30000020563E+02 0.  0.
        -12    1    1    2    0    0  0.20026386011E+02  0.76407848655E+01  0.34550360311E+02  0.40659133385E+02  0.00000000000E+00 0.  1.
         11    1    3    3    0    0 -0.72178934056E+01 -0.14196610265E+02 -0.18255405437E+02  0.24226051188E+02  0.51100000000E-03 0. -1.
        -11    1    3    3    0    0 -0.50447276457E+01 -0.45513224958E+01 -0.76355602923E+01  0.10220841194E+02  0.51100000000E-03 0.  1.
        -12    1    3    3    0    0 -0.77637649596E+01  0.11107147895E+02 -0.86593945815E+01  0.16081974233E+02  0.00000000000E+00 0.  1.
</event>
<event>
 7    1  0.5487071E-013  0.5052886E+02  0.7816164E-02  0.1300439E+00
        -11   -1    0    0    0    0  0.00000000000E+00  0.00000000000E+00  0.45593999997E+02  0.45594000000E+02  0.51100000000E-03 0. -1.
         11   -1    0    0    0    0 -0.00000000000E+00 -0.00000000000E+00 -0.45593999997E+02  0.45594000000E+02  0.51100000000E-03 0.  1.
    9900012    2    1    2    0    0  0.38876226568E+02 -0.59335766647E+01 -0.10324601036E+02  0.50528859444E+02  0.29999998765E+02 0.  0.
        -12    1    1    2    0    0 -0.38876226568E+02  0.59335766647E+01  0.10324601036E+02  0.40659140556E+02  0.00000000000E+00 0.  1.
         11    1    3    3    0    0  0.44569308397E+01  0.41119981157E+01  0.17386360210E+01  0.63083766920E+01  0.51100000000E-03 0. -1.
        -11    1    3    3    0    0  0.96820614855E+01  0.15346163770E+01 -0.13713643569E+02  0.16857087003E+02  0.51100000000E-03 0.  1.
         12    1    3    3    0    0  0.24737234243E+02 -0.11580191157E+02  0.16504065119E+01  0.27363395749E+02  0.00000000000E+00 0. -1.
</event>
<event>
 7    1  0.5487071E-013  0.5052895E+02  0.7816164E-02  0.1300438E+00
        -11   -1    0    0    0    0  0.00000000000E+00  0.00000000000E+00  0.45593999997E+02  0.45594000000E+02  0.51100000000E-03 0.  1.
         11   -1    0    0    0    0 -0.00000000000E+00 -0.00000000000E+00 -0.45593999997E+02  0.45594000000E+02  0.51100000000E-03 0. -1.
    9900012    2    1    2    0    0  0.26733091827E+02  0.18507648097E+02 -0.24412439531E+02  0.50528948848E+02  0.30000270517E+02 0.  0.
        -12    1    1    2    0    0 -0.26733091827E+02 -0.18507648097E+02  0.24412439531E+02  0.40659051152E+02  0.00000000000E+00 0.  1.
         11    1    3    3    0    0  0.68415048320E+01  0.89572954166E+01 -0.19192966019E+02  0.22257791319E+02  0.51100000000E-03 0.  1.
        -11    1    3    3    0    0  0.17037583081E+02  0.14046875054E+02 -0.60154052408E+01  0.22886219358E+02  0.51100000000E-03 0. -1.
        -12    1    3    3    0    0  0.28540039136E+01 -0.44965223730E+01  0.79593172863E+00  0.53849381711E+01  0.00000000000E+00 0.  1.
</event>
<event>
 7    1  0.5487071E-013  0.5052886E+02  0.7816164E-02  0.1300439E+00
        -11   -1    0    0    0    0  0.00000000000E+00  0.00000000000E+00  0.45593999997E+02  0.45594000000E+02  0.51100000000E-03 0. -1.
         11   -1    0    0    0    0 -0.00000000000E+00 -0.00000000000E+00 -0.45593999997E+02  0.45594000000E+02  0.51100000000E-03 0.  1.
    9900012    2    1    2    0    0  0.91617185184E+01  0.38362531400E+02 -0.98764827780E+01  0.50528858178E+02  0.29999994918E+02 0.  0.
        -12    1    1    2    0    0 -0.91617185184E+01 -0.38362531400E+02  0.98764827780E+01  0.40659141822E+02  0.00000000000E+00 0.  1.
         11    1    3    3    0    0 -0.11313871042E+01 -0.31820281426E+01 -0.42127264114E+01  0.53992966170E+01  0.51100000000E-03 0. -1.
        -11    1    3    3    0    0  0.45228431711E+01  0.53865771581E+01 -0.47786741097E+01  0.85033552401E+01  0.51100000000E-03 0.  1.
         12    1    3    3    0    0  0.57702624515E+01  0.36157982384E+02 -0.88508225688E+00  0.36626206321E+02  0.00000000000E+00 0. -1.
</event>
<event>
 7    1  0.5487071E-013  0.5052886E+02  0.7816164E-02  0.1300439E+00
        -11   -1    0    0    0    0  0.00000000000E+00  0.00000000000E+00  0.45593999997E+02  0.45594000000E+02  0.51100000000E-03 0. -1.
         11   -1    0    0    0    0 -0.00000000000E+00 -0.00000000000E+00 -0.45593999997E+02  0.45594000000E+02  0.51100000000E-03 0.  1.
    9900012    2    1    2    0    0  0.37482596505E+02  0.60708498868E+01  0.14538407813E+02  0.50528861288E+02  0.30000004371E+02 0.  0.
        -12    1    1    2    0    0 -0.37482596505E+02 -0.60708498868E+01 -0.14538407813E+02  0.40659138712E+02  0.00000000000E+00 0.  1.
         11    1    3    3    0    0  0.11985644199E+02  0.64307131207E+01  0.48002365853E+00  0.13610296142E+02  0.51100000000E-03 0. -1.
        -11    1    3    3    0    0  0.91613148853E+01  0.90901044994E+01 -0.75383926373E+00  0.12927798116E+02  0.51100000000E-03 0.  1.
        -12    1    3    3    0    0  0.16335637421E+02 -0.94499677333E+01  0.14812223418E+02  0.23990767030E+02  0.00000000000E+00 0.  1.
</event>
<event>
 7    1  0.5487071E-013  0.5052891E+02  0.7816164E-02  0.1300439E+00
        -11   -1    0    0    0    0  0.00000000000E+00  0.00000000000E+00  0.45593999997E+02  0.45594000000E+02  0.51100000000E-03 0. -1.
         11   -1    0    0    0    0 -0.00000000000E+00 -0.00000000000E+00 -0.45593999997E+02  0.45594000000E+02  0.51100000000E-03 0.  1.
    9900012    2    1    2    0    0  0.37236584058E+02 -0.10863147524E+02 -0.12189757486E+02  0.50528913020E+02  0.30000161617E+02 0.  0.
        -12    1    1    2    0    0 -0.37236584058E+02  0.10863147524E+02  0.12189757486E+02  0.40659086980E+02  0.00000000000E+00 0.  1.
         11    1    3    3    0    0 -0.21564232919E+00 -0.69087528989E+01  0.16910916539E+01  0.71159791649E+01  0.51100000000E-03 0. -1.
        -11    1    3    3    0    0  0.10739943214E+02  0.81004582299E+00 -0.12131577437E+02  0.16222753338E+02  0.51100000000E-03 0.  1.
         12    1    3    3    0    0  0.26712283173E+02 -0.47644404485E+01 -0.17492717025E+01  0.27190180518E+02  0.00000000000E+00 0. -1.
</event>
<event>
 7    1  0.5487071E-013  0.5052885E+02  0.7816164E-02  0.1300439E+00
        -11   -1    0    0    0    0  0.00000000000E+00  0.00000000000E+00  0.45593999997E+02  0.45594000000E+02  0.51100000000E-03 0.  1.
         11   -1    0    0    0    0 -0.00000000000E+00 -0.00000000000E+00 -0.45593999997E+02  0.45594000000E+02  0.51100000000E-03 0. -1.
    9900012    2    1    2    0    0 -0.40291589740E+02 -0.45792861236E+01  0.29638055979E+01  0.50528853320E+02  0.29999980151E+02 0.  0.
        -12    1    1    2    0    0  0.40291589740E+02  0.45792861236E+01 -0.29638055979E+01  0.40659146680E+02  0.00000000000E+00 0.  1.
         11    1    3    3    0    0 -0.21299429287E+01  0.42075657984E+01 -0.31194729633E+01  0.56543238904E+01  0.51100000000E-03 0. -1.
        -11    1    3    3    0    0 -0.43923270630E+01  0.58748969981E+01 -0.94135284788E+00  0.73954781598E+01  0.51100000000E-03 0.  1.
         12    1    3    3    0    0 -0.33769319748E+02 -0.14661748920E+02  0.70246314091E+01  0.37479051270E+02  0.00000000000E+00 0. -1.
</event>
<event>
 7    1  0.5487071E-013  0.5052885E+02  0.7816164E-02  0.1300439E+00
        -11   -1    0    0    0    0  0.00000000000E+00  0.00000000000E+00  0.45593999997E+02  0.45594000000E+02  0.51100000000E-03 0.  1.
         11   -1    0    0    0    0 -0.00000000000E+00 -0.00000000000E+00 -0.45593999997E+02  0.45594000000E+02  0.51100000000E-03 0. -1.
    9900012    2    1    2    0    0  0.33493732105E+02 -0.21419462686E+02 -0.85171999547E+01  0.50528853832E+02  0.29999981707E+02 0.  0.
        -12    1    1    2    0    0 -0.33493732105E+02  0.21419462686E+02  0.85171999547E+01  0.40659146168E+02  0.00000000000E+00 0.  1.
         11    1    3    3    0    0  0.22713936931E+02 -0.25063828296E+02 -0.79360855502E+01  0.34743342871E+02  0.51100000000E-03 0. -1.
        -11    1    3    3    0    0  0.65778327072E+01  0.34006242286E+00  0.48388167187E+01  0.81729843431E+01  0.51100000000E-03 0.  1.
        -12    1    3    3    0    0  0.42019624667E+01  0.33043031867E+01 -0.54199311232E+01  0.76125266175E+01  0.00000000000E+00 0.  1.
</event>
<event>
 7    1  0.5487071E-013  0.5052884E+02  0.7816164E-02  0.1300439E+00
        -11   -1    0    0    0    0  0.00000000000E+00  0.00000000000E+00  0.45593999997E+02  0.45594000000E+02  0.51100000000E-03 0.  1.
         11   -1    0    0    0    0 -0.00000000000E+00 -0.00000000000E+00 -0.45593999997E+02  0.45594000000E+02  0.51100000000E-03 0. -1.
    9900012    2    1    2    0    0 -0.18685732760E+02  0.34633453803E+02 -0.10224197189E+02  0.50528844337E+02  0.29999952847E+02 0.  0.
        -12    1    1    2    0    0  0.18685732760E+02 -0.34633453803E+02  0.10224197189E+02  0.40659155663E+02  0.00000000000E+00 0.  1.
         11    1    3    3    0    0 -0.11000533506E+02  0.25713197765E+02 -0.11513206917E+02  0.30244573240E+02  0.51100000000E-03 0.  1.
        -11    1    3    3    0    0 -0.10032112106E+02  0.97532622332E+01 -0.39029675586E+01  0.14525926942E+02  0.51100000000E-03 0. -1.
        -12    1    3    3    0    0  0.23469128521E+01 -0.83300619558E+00  0.51919772866E+01  0.57583441545E+01  0.00000000000E+00 0.  1.
</event>
<event>
 7    1  0.5487071E-013  0.5052887E+02  0.7816164E-02  0.1300439E+00
        -11   -1    0    0    0    0  0.00000000000E+00  0.00000000000E+00  0.45593999997E+02  0.45594000000E+02  0.51100000000E-03 0. -1.
         11   -1    0    0    0    0 -0.00000000000E+00 -0.00000000000E+00 -0.45593999997E+02  0.45594000000E+02  0.51100000000E-03 0.  1.
    9900012    2    1    2    0    0 -0.15599676247E+02  0.14131390225E+02  0.34786755573E+02  0.50528874924E+02  0.30000045819E+02 0.  0.
        -12    1    1    2    0    0  0.15599676247E+02 -0.14131390225E+02 -0.34786755573E+02  0.40659125076E+02  0.00000000000E+00 0.  1.
         11    1    3    3    0    0 -0.15132806112E+02  0.79769641599E+01  0.14533116994E+02  0.22446497898E+02  0.51100000000E-03 0. -1.
        -11    1    3    3    0    0 -0.85461978241E+01  0.59530647183E+00  0.14118480785E+02  0.16514338829E+02  0.51100000000E-03 0.  1.
         12    1    3    3    0    0  0.80793276901E+01  0.55591195928E+01  0.61351577938E+01  0.11568038197E+02  0.00000000000E+00 0. -1.
</event>
<event>
 7    1  0.5487071E-013  0.5052886E+02  0.7816164E-02  0.1300439E+00
        -11   -1    0    0    0    0  0.00000000000E+00  0.00000000000E+00  0.45593999997E+02  0.45594000000E+02  0.51100000000E-03 0.  1.
         11   -1    0    0    0    0 -0.00000000000E+00 -0.00000000000E+00 -0.45593999997E+02  0.45594000000E+02  0.51100000000E-03 0. -1.
    9900012    2    1    2    0    0  0.23792621001E+02 -0.32927103882E+02 -0.16977823049E+01  0.50528862664E+02  0.30000008555E+02 0.  0.
        -12    1    1    2    0    0 -0.23792621001E+02  0.32927103882E+02  0.16977823049E+01  0.40659137336E+02  0.00000000000E+00 0.  1.
         11    1    3    3    0    0  0.15563269390E+02 -0.15177650312E+02  0.45507725443E+01  0.22210041741E+02  0.51100000000E-03 0. -1.
        -11    1    3    3    0    0  0.85643890392E+01 -0.16071704738E+02  0.33947505432E+01  0.18524923328E+02  0.51100000000E-03 0.  1.
         12    1    3    3    0    0 -0.33503742898E+00 -0.16777488315E+01 -0.96433053924E+01  0.97938975955E+01  0.00000000000E+00 0. -1.
</event>
<event>
 7    1  0.5487071E-013  0.5052886E+02  0.7816164E-02  0.1300439E+00
        -11   -1    0    0    0    0  0.00000000000E+00  0.00000000000E+00  0.45593999997E+02  0.45594000000E+02  0.51100000000E-03 0. -1.
         11   -1    0    0    0    0 -0.00000000000E+00 -0.00000000000E+00 -0.45593999997E+02  0.45594000000E+02  0.51100000000E-03 0.  1.
    9900012    2    1    2    0    0  0.40299120315E+02  0.35129519758E+01 -0.40994815609E+01  0.50528859836E+02  0.29999999959E+02 0.  0.
        -12    1    1    2    0    0 -0.40299120315E+02 -0.35129519758E+01  0.40994815609E+01  0.40659140164E+02  0.00000000000E+00 0.  1.
         11    1    3    3    0    0  0.18884551379E+02 -0.58517001138E+00 -0.66047087921E+01  0.20014766630E+02  0.51100000000E-03 0. -1.
        -11    1    3    3    0    0  0.20495960749E+02 -0.21803977788E+01 -0.44634255431E+01  0.21089350614E+02  0.51100000000E-03 0.  1.
        -12    1    3    3    0    0  0.91860818742E+00  0.62785197660E+01  0.69686527743E+01  0.94247425929E+01  0.00000000000E+00 0.  1.
</event>
<event>
 7    1  0.5487071E-013  0.5052887E+02  0.7816164E-02  0.1300439E+00
        -11   -1    0    0    0    0  0.00000000000E+00  0.00000000000E+00  0.45593999997E+02  0.45594000000E+02  0.51100000000E-03 0. -1.
         11   -1    0    0    0    0 -0.00000000000E+00 -0.00000000000E+00 -0.45593999997E+02  0.45594000000E+02  0.51100000000E-03 0.  1.
    9900012    2    1    2    0    0  0.22912370096E+02 -0.10528650663E+02  0.31895700110E+02  0.50528869737E+02  0.30000030054E+02 0.  0.
        -12    1    1    2    0    0 -0.22912370096E+02  0.10528650663E+02 -0.31895700110E+02  0.40659130263E+02  0.00000000000E+00 0.  1.
         11    1    3    3    0    0  0.66894809662E+01 -0.11351881372E+02  0.83707483444E+01  0.15610374576E+02  0.51100000000E-03 0. -1.
        -11    1    3    3    0    0 -0.10283903914E+01  0.52878623116E+01 -0.24361973009E-01  0.53869906618E+01  0.51100000000E-03 0.  1.
         12    1    3    3    0    0  0.17251279521E+02 -0.44646316022E+01  0.23549313739E+02  0.29531504500E+02  0.00000000000E+00 0. -1.
</event>
<event>
 7    1  0.5487071E-013  0.5052886E+02  0.7816164E-02  0.1300439E+00
        -11   -1    0    0    0    0  0.00000000000E+00  0.00000000000E+00  0.45593999997E+02  0.45594000000E+02  0.51100000000E-03 0.  1.
         11   -1    0    0    0    0 -0.00000000000E+00 -0.00000000000E+00 -0.45593999997E+02  0.45594000000E+02  0.51100000000E-03 0. -1.
    9900012    2    1    2    0    0 -0.34050675244E+02 -0.15668174237E+02 -0.15755174043E+02  0.50528859852E+02  0.30000000006E+02 0.  0.
        -12    1    1    2    0    0  0.34050675244E+02  0.15668174237E+02  0.15755174043E+02  0.40659140148E+02  0.00000000000E+00 0.  1.
         11    1    3    3    0    0 -0.96725391001E+01 -0.13985411554E+02  0.23826557278E+01  0.17170521179E+02  0.51100000000E-03 0. -1.
        -11    1    3    3    0    0 -0.26199992653E+01 -0.36224279571E+01  0.68524310793E+00  0.45228242098E+01  0.51100000000E-03 0.  1.
        -12    1    3    3    0    0 -0.21758136878E+02  0.19396652737E+01 -0.18823072878E+02  0.28835514463E+02  0.00000000000E+00 0.  1.
</event>
<event>
 7    1  0.5487071E-013  0.5052882E+02  0.7816164E-02  0.1300439E+00
        -11   -1    0    0    0    0  0.00000000000E+00  0.00000000000E+00  0.45593999997E+02  0.45594000000E+02  0.51100000000E-03 0.  1.
         11   -1    0    0    0    0 -0.00000000000E+00 -0.00000000000E+00 -0.45593999997E+02  0.45594000000E+02  0.51100000000E-03 0. -1.
    9900012    2    1    2    0    0 -0.22009201211E+02 -0.21288654128E+02 -0.26749904695E+02  0.50528817350E+02  0.29999870817E+02 0.  0.
        -12    1    1    2    0    0  0.22009201211E+02  0.21288654128E+02  0.26749904695E+02  0.40659182650E+02  0.00000000000E+00 0.  1.
         11    1    3    3    0    0 -0.13354156847E+02 -0.20758555038E+02 -0.21714519236E+02  0.32875088719E+02  0.51100000000E-03 0. -1.
        -11    1    3    3    0    0 -0.28881869146E+01 -0.68649914134E+01 -0.52033947110E+01  0.90854305093E+01  0.51100000000E-03 0.  1.
        -12    1    3    3    0    0 -0.57668574494E+01  0.63348923236E+01  0.16800925190E+00  0.85682981217E+01  0.00000000000E+00 0.  1.
</event>
<event>
 7    1  0.5487071E-013  0.5052886E+02  0.7816164E-02  0.1300439E+00
        -11   -1    0    0    0    0  0.00000000000E+00  0.00000000000E+00  0.45593999997E+02  0.45594000000E+02  0.51100000000E-03 0.  1.
         11   -1    0    0    0    0 -0.00000000000E+00 -0.00000000000E+00 -0.45593999997E+02  0.45594000000E+02  0.51100000000E-03 0. -1.
    9900012    2    1    2    0    0 -0.34196237114E+02 -0.23278278158E+01 -0.21871546225E+02  0.50528856509E+02  0.29999989846E+02 0.  0.
        -12    1    1    2    0    0  0.34196237114E+02  0.23278278158E+01  0.21871546225E+02  0.40659143491E+02  0.00000000000E+00 0.  1.
         11    1    3    3    0    0 -0.28267356195E+01 -0.29115554010E+01  0.23289389611E+01  0.46788402475E+01  0.51100000000E-03 0. -1.
        -11    1    3    3    0    0 -0.10962444242E+01  0.18616022162E+01  0.39429286272E+01  0.44959983395E+01  0.51100000000E-03 0.  1.
         12    1    3    3    0    0 -0.30273257071E+02 -0.12778746310E+01 -0.28143413813E+02  0.41354017922E+02  0.00000000000E+00 0. -1.
</event>
<event>
 7    1  0.5487071E-013  0.5052886E+02  0.7816164E-02  0.1300439E+00
        -11   -1    0    0    0    0  0.00000000000E+00  0.00000000000E+00  0.45593999997E+02  0.45594000000E+02  0.51100000000E-03 0.  1.
         11   -1    0    0    0    0 -0.00000000000E+00 -0.00000000000E+00 -0.45593999997E+02  0.45594000000E+02  0.51100000000E-03 0. -1.
    9900012    2    1    2    0    0  0.25898551016E+02 -0.15762249183E+02 -0.27092109097E+02  0.50528858108E+02  0.29999994706E+02 0.  0.
        -12    1    1    2    0    0 -0.25898551016E+02  0.15762249183E+02  0.27092109097E+02  0.40659141892E+02  0.00000000000E+00 0.  1.
         11    1    3    3    0    0  0.42289520068E+01 -0.56280580053E+01  0.20886880223E+01  0.73431389680E+01  0.51100000000E-03 0. -1.
        -11    1    3    3    0    0 -0.33051702472E-01 -0.87616292205E+01 -0.32536571198E+01  0.93463107121E+01  0.51100000000E-03 0.  1.
         12    1    3    3    0    0  0.21702650712E+02 -0.13725619574E+01 -0.25927139999E+02  0.33839408428E+02  0.00000000000E+00 0. -1.
</event>
<event>
 7    1  0.5487071E-013  0.5052889E+02  0.7816164E-02  0.1300439E+00
        -11   -1    0    0    0    0  0.00000000000E+00  0.00000000000E+00  0.45593999997E+02  0.45594000000E+02  0.51100000000E-03 0. -1.
         11   -1    0    0    0    0 -0.00000000000E+00 -0.00000000000E+00 -0.45593999997E+02  0.45594000000E+02  0.51100000000E-03 0.  1.
    9900012    2    1    2    0    0  0.36530815420E+02 -0.17363354213E+02 -0.41445194648E+01  0.50528885569E+02  0.30000078175E+02 0.  0.
        -12    1    1    2    0    0 -0.36530815420E+02  0.17363354213E+02  0.41445194648E+01  0.40659114431E+02  0.00000000000E+00 0.  1.
         11    1    3    3    0    0  0.12245842683E+02 -0.99468367246E+01 -0.14033851150E+02  0.21115141539E+02  0.51100000000E-03 0.  1.
        -11    1    3    3    0    0  0.24392691271E+01 -0.30114903629E+01  0.54549353470E+01  0.66914443868E+01  0.51100000000E-03 0. -1.
         12    1    3    3    0    0  0.21845703610E+02 -0.44050271255E+01  0.44343963386E+01  0.22722299643E+02  0.00000000000E+00 0. -1.
</event>
<event>
 7    1  0.5487071E-013  0.5052886E+02  0.7816164E-02  0.1300439E+00
        -11   -1    0    0    0    0  0.00000000000E+00  0.00000000000E+00  0.45593999997E+02  0.45594000000E+02  0.51100000000E-03 0. -1.
         11   -1    0    0    0    0 -0.00000000000E+00 -0.00000000000E+00 -0.45593999997E+02  0.45594000000E+02  0.51100000000E-03 0.  1.
    9900012    2    1    2    0    0  0.15730233639E+02  0.14899629464E+02  0.34405326410E+02  0.50528859652E+02  0.29999999397E+02 0.  0.
        -12    1    1    2    0    0 -0.15730233639E+02 -0.14899629464E+02 -0.34405326410E+02  0.40659140348E+02  0.00000000000E+00 0.  1.
         11    1    3    3    0    0 -0.16403286510E+01 -0.10946826746E+01  0.57289377106E+01  0.60588559807E+01  0.51100000000E-03 0. -1.
        -11    1    3    3    0    0 -0.22207909292E+01  0.12588324533E+02  0.17461540651E+02  0.21640314902E+02  0.51100000000E-03 0.  1.
         12    1    3    3    0    0  0.19591353219E+02  0.34059876055E+01  0.11214848048E+02  0.22829688769E+02  0.00000000000E+00 0. -1.
</event>
<event>
 7    1  0.5487071E-013  0.5052886E+02  0.7816164E-02  0.1300439E+00
        -11   -1    0    0    0    0  0.00000000000E+00  0.00000000000E+00  0.45593999997E+02  0.45594000000E+02  0.51100000000E-03 0. -1.
         11   -1    0    0    0    0 -0.00000000000E+00 -0.00000000000E+00 -0.45593999997E+02  0.45594000000E+02  0.51100000000E-03 0.  1.
    9900012    2    1    2    0    0 -0.21082231738E+02  0.19551316641E+02 -0.28748062417E+02  0.50528861173E+02  0.30000004021E+02 0.  0.
        -12    1    1    2    0    0  0.21082231738E+02 -0.19551316641E+02  0.28748062417E+02  0.40659138827E+02  0.00000000000E+00 0.  1.
         11    1    3    3    0    0 -0.13984323366E+02 -0.25550558054E+01 -0.14643075101E+02  0.20408558471E+02  0.51100000000E-03 0. -1.
        -11    1    3    3    0    0 -0.32333637599E+00 -0.17634294946E+01 -0.76666810612E+00  0.19498744166E+01  0.51100000000E-03 0.  1.
        -12    1    3    3    0    0 -0.67745719953E+01  0.23869801941E+02 -0.13338319210E+02  0.28170428285E+02  0.00000000000E+00 0.  1.
</event>
<event>
 7    1  0.5487071E-013  0.5052886E+02  0.7816164E-02  0.1300439E+00
        -11   -1    0    0    0    0  0.00000000000E+00  0.00000000000E+00  0.45593999997E+02  0.45594000000E+02  0.51100000000E-03 0.  1.
         11   -1    0    0    0    0 -0.00000000000E+00 -0.00000000000E+00 -0.45593999997E+02  0.45594000000E+02  0.51100000000E-03 0. -1.
    9900012    2    1    2    0    0  0.24866694495E+02 -0.22455929716E+02 -0.23033550749E+02  0.50528859151E+02  0.29999997875E+02 0.  0.
        -12    1    1    2    0    0 -0.24866694495E+02  0.22455929716E+02  0.23033550749E+02  0.40659140849E+02  0.00000000000E+00 0.  1.
         11    1    3    3    0    0  0.87935625817E+00 -0.17147353559E+01  0.55605600863E+00  0.20056877412E+01  0.51100000000E-03 0. -1.
        -11    1    3    3    0    0  0.16542294443E+02 -0.16036989994E+02  0.32126251928E+00  0.23042043386E+02  0.51100000000E-03 0.  1.
         12    1    3    3    0    0  0.74450437935E+01 -0.47042043657E+01 -0.23910869277E+02  0.25481128024E+02  0.00000000000E+00 0. -1.
</event>
<event>
 7    1  0.5487071E-013  0.5052886E+02  0.7816164E-02  0.1300439E+00
        -11   -1    0    0    0    0  0.00000000000E+00  0.00000000000E+00  0.45593999997E+02  0.45594000000E+02  0.51100000000E-03 0. -1.
         11   -1    0    0    0    0 -0.00000000000E+00 -0.00000000000E+00 -0.45593999997E+02  0.45594000000E+02  0.51100000000E-03 0.  1.
    9900012    2    1    2    0    0  0.71172920262E+01  0.33559412858E+02 -0.21823749327E+02  0.50528855004E+02  0.29999985270E+02 0.  0.
        -12    1    1    2    0    0 -0.71172920262E+01 -0.33559412858E+02  0.21823749327E+02  0.40659144996E+02  0.00000000000E+00 0.  1.
         11    1    3    3    0    0  0.10332966580E+02  0.44396429917E-01 -0.59953082744E+01  0.11946375641E+02  0.51100000000E-03 0. -1.
        -11    1    3    3    0    0  0.19004529367E+01  0.11557801895E+01 -0.62740654325E-01  0.22251934437E+01  0.51100000000E-03 0.  1.
         12    1    3    3    0    0 -0.51161274903E+01  0.32359236238E+02 -0.15765700398E+02  0.36357285920E+02  0.00000000000E+00 0. -1.
</event>
<event>
 7    1  0.5487071E-013  0.5052889E+02  0.7816164E-02  0.1300439E+00
        -11   -1    0    0    0    0  0.00000000000E+00  0.00000000000E+00  0.45593999997E+02  0.45594000000E+02  0.51100000000E-03 0.  1.
         11   -1    0    0    0    0 -0.00000000000E+00 -0.00000000000E+00 -0.45593999997E+02  0.45594000000E+02  0.51100000000E-03 0. -1.
    9900012    2    1    2    0    0 -0.19027963289E+02 -0.21610024190E+02 -0.28707260203E+02  0.50528888835E+02  0.30000088101E+02 0.  0.
        -12    1    1    2    0    0  0.19027963289E+02  0.21610024190E+02  0.28707260203E+02  0.40659111165E+02  0.00000000000E+00 0.  1.
         11    1    3    3    0    0 -0.15607582807E+02 -0.97817309700E+01 -0.20002194153E+02  0.27191297744E+02  0.51100000000E-03 0. -1.
        -11    1    3    3    0    0 -0.66707211992E+01 -0.96519405874E+01 -0.13011231809E+02  0.17520006617E+02  0.51100000000E-03 0.  1.
        -12    1    3    3    0    0  0.32503407169E+01 -0.21763526324E+01  0.43061657588E+01  0.58175844729E+01  0.00000000000E+00 0.  1.
</event>
<event>
 7    1  0.5487071E-013  0.5052886E+02  0.7816164E-02  0.1300439E+00
        -11   -1    0    0    0    0  0.00000000000E+00  0.00000000000E+00  0.45593999997E+02  0.45594000000E+02  0.51100000000E-03 0.  1.
         11   -1    0    0    0    0 -0.00000000000E+00 -0.00000000000E+00 -0.45593999997E+02  0.45594000000E+02  0.51100000000E-03 0. -1.
    9900012    2    1    2    0    0  0.19688252741E+01  0.24773400214E+01 -0.40535817343E+02  0.50528856204E+02  0.29999988917E+02 0.  0.
        -12    1    1    2    0    0 -0.19688252741E+01 -0.24773400214E+01  0.40535817343E+02  0.40659143796E+02  0.00000000000E+00 0.  1.
         11    1    3    3    0    0  0.20524585259E+01 -0.63622705515E+01 -0.11488715021E+02  0.13292164823E+02  0.51100000000E-03 0.  1.
        -11    1    3    3    0    0  0.61864868695E+01  0.52923634802E+01 -0.28906741966E+02  0.30031341334E+02  0.51100000000E-03 0. -1.
        -12    1    3    3    0    0 -0.62701201212E+01  0.35472470926E+01 -0.14036035656E+00  0.72053500471E+01  0.00000000000E+00 0.  1.
</event>
<event>
 7    1  0.5487071E-013  0.5052884E+02  0.7816164E-02  0.1300439E+00
        -11   -1    0    0    0    0  0.00000000000E+00  0.00000000000E+00  0.45593999997E+02  0.45594000000E+02  0.51100000000E-03 0. -1.
         11   -1    0    0    0    0 -0.00000000000E+00 -0.00000000000E+00 -0.45593999997E+02  0.45594000000E+02  0.51100000000E-03 0.  1.
    9900012    2    1    2    0    0 -0.22067092879E+02 -0.33560070884E+02  0.63192083154E+01  0.50528839414E+02  0.29999937882E+02 0.  0.
        -12    1    1    2    0    0  0.22067092879E+02  0.33560070884E+02 -0.63192083154E+01  0.40659160586E+02  0.00000000000E+00 0.  1.
         11    1    3    3    0    0 -0.34594381327E+00 -0.91546786007E+01 -0.76236528539E+01  0.11918384979E+02  0.51100000000E-03 0. -1.
        -11    1    3    3    0    0 -0.59917767365E+01 -0.25253553680E+01 -0.25863731348E+01  0.69977235189E+01  0.51100000000E-03 0.  1.
         12    1    3    3    0    0 -0.15729372329E+02 -0.21880036915E+02  0.16529234304E+02  0.31612730916E+02  0.00000000000E+00 0. -1.
</event>
<event>
 7    1  0.5487071E-013  0.5052886E+02  0.7816164E-02  0.1300439E+00
        -11   -1    0    0    0    0  0.00000000000E+00  0.00000000000E+00  0.45593999997E+02  0.45594000000E+02  0.51100000000E-03 0.  1.
         11   -1    0    0    0    0 -0.00000000000E+00 -0.00000000000E+00 -0.45593999997E+02  0.45594000000E+02  0.51100000000E-03 0. -1.
    9900012    2    1    2    0    0 -0.27927626827E+01  0.19940463007E+02 -0.35323422967E+02  0.50528858366E+02  0.29999995489E+02 0.  0.
        -12    1    1    2    0    0  0.27927626827E+01 -0.19940463007E+02  0.35323422967E+02  0.40659141634E+02  0.00000000000E+00 0.  1.
         11    1    3    3    0    0  0.94638775650E+00 -0.43201551533E+01 -0.13865016593E+02  0.14553284018E+02  0.51100000000E-03 0. -1.
        -11    1    3    3    0    0 -0.14929697428E+01 -0.19965339695E+01 -0.14172477052E+01  0.28676990538E+01  0.51100000000E-03 0.  1.
        -12    1    3    3    0    0 -0.22461806964E+01  0.26257152130E+02 -0.20041158669E+02  0.33107875294E+02  0.00000000000E+00 0.  1.
</event>
<event>
 7    1  0.5487071E-013  0.5052886E+02  0.7816164E-02  0.1300439E+00
        -11   -1    0    0    0    0  0.00000000000E+00  0.00000000000E+00  0.45593999997E+02  0.45594000000E+02  0.51100000000E-03 0.  1.
         11   -1    0    0    0    0 -0.00000000000E+00 -0.00000000000E+00 -0.45593999997E+02  0.45594000000E+02  0.51100000000E-03 0. -1.
    9900012    2    1    2    0    0  0.20183031302E+02 -0.45107025062E+01 -0.35006636299E+02  0.50528858659E+02  0.29999996381E+02 0.  0.
        -12    1    1    2    0    0 -0.20183031302E+02  0.45107025062E+01  0.35006636299E+02  0.40659141341E+02  0.00000000000E+00 0.  1.
         11    1    3    3    0    0  0.85262190667E+01 -0.68433071445E+01 -0.26967078132E+02  0.29098978805E+02  0.51100000000E-03 0. -1.
        -11    1    3    3    0    0  0.88206916687E+01 -0.62057095690E+01 -0.53527566411E+01  0.12040242385E+02  0.51100000000E-03 0.  1.
        -12    1    3    3    0    0  0.28361205663E+01  0.85383142073E+01 -0.26868015254E+01  0.93896374694E+01  0.00000000000E+00 0.  1.
</event>
<event>
 7    1  0.5487071E-013  0.5052887E+02  0.7816164E-02  0.1300439E+00
        -11   -1    0    0    0    0  0.00000000000E+00  0.00000000000E+00  0.45593999997E+02  0.45594000000E+02  0.51100000000E-03 0. -1.
         11   -1    0    0    0    0 -0.00000000000E+00 -0.00000000000E+00 -0.45593999997E+02  0.45594000000E+02  0.51100000000E-03 0.  1.
    9900012    2    1    2    0    0  0.25146791663E+02  0.27662664049E+02  0.15986888487E+02  0.50528871668E+02  0.30000035922E+02 0.  0.
        -12    1    1    2    0    0 -0.25146791663E+02 -0.27662664049E+02 -0.15986888487E+02  0.40659128332E+02  0.00000000000E+00 0.  1.
         11    1    3    3    0    0  0.36903325485E+00  0.20205490127E+01  0.30906814219E+01  0.37109454009E+01  0.51100000000E-03 0. -1.
        -11    1    3    3    0    0  0.90375082655E+01 -0.46919609718E+01 -0.29127869237E+00  0.10187045546E+02  0.51100000000E-03 0.  1.
        -12    1    3    3    0    0  0.15740250142E+02  0.30334076008E+02  0.13187485758E+02  0.36630880721E+02  0.00000000000E+00 0.  1.
</event>
<event>
 7    1  0.5487071E-013  0.5052887E+02  0.7816164E-02  0.1300439E+00
        -11   -1    0    0    0    0  0.00000000000E+00  0.00000000000E+00  0.45593999997E+02  0.45594000000E+02  0.51100000000E-03 0. -1.
         11   -1    0    0    0    0 -0.00000000000E+00 -0.00000000000E+00 -0.45593999997E+02  0.45594000000E+02  0.51100000000E-03 0.  1.
    9900012    2    1    2    0    0 -0.37103879207E+02 -0.90542983284E+01  0.13945860211E+02  0.50528865879E+02  0.30000018327E+02 0.  0.
        -12    1    1    2    0    0  0.37103879207E+02  0.90542983284E+01 -0.13945860211E+02  0.40659134121E+02  0.00000000000E+00 0.  1.
         11    1    3    3    0    0 -0.13395141603E+02 -0.41596547831E+01  0.53095392424E+01  0.14997458241E+02  0.51100000000E-03 0. -1.
        -11    1    3    3    0    0 -0.27872753499E+02 -0.73901437599E+01  0.99466743074E+01  0.30503130044E+02  0.51100000000E-03 0.  1.
        -12    1    3    3    0    0  0.41640158951E+01  0.24955002146E+01 -0.13103533388E+01  0.50282775946E+01  0.00000000000E+00 0.  1.
</event>
<event>
 7    1  0.5487071E-013  0.5052885E+02  0.7816164E-02  0.1300439E+00
        -11   -1    0    0    0    0  0.00000000000E+00  0.00000000000E+00  0.45593999997E+02  0.45594000000E+02  0.51100000000E-03 0.  1.
         11   -1    0    0    0    0 -0.00000000000E+00 -0.00000000000E+00 -0.45593999997E+02  0.45594000000E+02  0.51100000000E-03 0. -1.
    9900012    2    1    2    0    0  0.30315917160E+02 -0.26841343313E+02 -0.36951397793E+01  0.50528848483E+02  0.29999965449E+02 0.  0.
        -12    1    1    2    0    0 -0.30315917160E+02  0.26841343313E+02  0.36951397793E+01  0.40659151517E+02  0.00000000000E+00 0.  1.
         11    1    3    3    0    0  0.29535727457E+02 -0.96058264691E+01  0.24018923646E+01  0.31151246937E+02  0.51100000000E-03 0.  1.
        -11    1    3    3    0    0  0.64419774903E+00  0.23191677766E+00 -0.94261209064E+00  0.11650295903E+01  0.51100000000E-03 0. -1.
        -12    1    3    3    0    0  0.13599195379E+00 -0.17467433622E+02 -0.51544200533E+01  0.18212571955E+02  0.00000000000E+00 0.  1.
</event>
<event>
 7    1  0.5487071E-013  0.5052886E+02  0.7816164E-02  0.1300439E+00
        -11   -1    0    0    0    0  0.00000000000E+00  0.00000000000E+00  0.45593999997E+02  0.45594000000E+02  0.51100000000E-03 0.  1.
         11   -1    0    0    0    0 -0.00000000000E+00 -0.00000000000E+00 -0.45593999997E+02  0.45594000000E+02  0.51100000000E-03 0. -1.
    9900012    2    1    2    0    0 -0.30634298583E+02 -0.24473030008E+02 -0.10759933815E+02  0.50528860522E+02  0.30000002043E+02 0.  0.
        -12    1    1    2    0    0  0.30634298583E+02  0.24473030008E+02  0.10759933815E+02  0.40659139478E+02  0.00000000000E+00 0.  1.
         11    1    3    3    0    0 -0.55970449662E+01  0.28653245888E+01 -0.34402882289E+01  0.71674668267E+01  0.51100000000E-03 0. -1.
        -11    1    3    3    0    0 -0.41373441043E+01  0.28628630342E+01  0.20891083339E+01  0.54477495245E+01  0.51100000000E-03 0.  1.
         12    1    3    3    0    0 -0.20899909512E+02 -0.30201217631E+02 -0.94087539197E+01  0.37913644171E+02  0.00000000000E+00 0. -1.
</event>
<event>
 7    1  0.5487071E-013  0.5052885E+02  0.7816164E-02  0.1300439E+00
        -11   -1    0    0    0    0  0.00000000000E+00  0.00000000000E+00  0.45593999997E+02  0.45594000000E+02  0.51100000000E-03 0.  1.
         11   -1    0    0    0    0 -0.00000000000E+00 -0.00000000000E+00 -0.45593999997E+02  0.45594000000E+02  0.51100000000E-03 0. -1.
    9900012    2    1    2    0    0 -0.26411680639E+01  0.14804327049E+02 -0.37775952620E+02  0.50528850176E+02  0.29999970594E+02 0.  0.
        -12    1    1    2    0    0  0.26411680639E+01 -0.14804327049E+02  0.37775952620E+02  0.40659149824E+02  0.00000000000E+00 0.  1.
         11    1    3    3    0    0 -0.11210970669E+01  0.42314865823E+01 -0.10328246892E+02  0.11217621025E+02  0.51100000000E-03 0. -1.
        -11    1    3    3    0    0 -0.99809984943E+01 -0.97166154781E+00 -0.21666562370E+02  0.23874764549E+02  0.51100000000E-03 0.  1.
        -12    1    3    3    0    0  0.84609274973E+01  0.11544502014E+02 -0.57811433581E+01  0.15436464602E+02  0.00000000000E+00 0.  1.
</event>
<event>
 7    1  0.5487071E-013  0.5052885E+02  0.7816164E-02  0.1300439E+00
        -11   -1    0    0    0    0  0.00000000000E+00  0.00000000000E+00  0.45593999997E+02  0.45594000000E+02  0.51100000000E-03 0.  1.
         11   -1    0    0    0    0 -0.00000000000E+00 -0.00000000000E+00 -0.45593999997E+02  0.45594000000E+02  0.51100000000E-03 0. -1.
    9900012    2    1    2    0    0 -0.43965008698E+01  0.10440125942E+02 -0.39049210608E+02  0.50528852214E+02  0.29999976790E+02 0.  0.
        -12    1    1    2    0    0  0.43965008698E+01 -0.10440125942E+02  0.39049210608E+02  0.40659147786E+02  0.00000000000E+00 0.  1.
         11    1    3    3    0    0  0.54240368298E+01  0.70657796795E+01 -0.15114749658E+01  0.90349308156E+01  0.51100000000E-03 0. -1.
        -11    1    3    3    0    0 -0.30334600457E+01 -0.56075594339E+01 -0.15084178853E+02  0.16376173380E+02  0.51100000000E-03 0.  1.
         12    1    3    3    0    0 -0.67870776539E+01  0.89819056960E+01 -0.22453556790E+02  0.25117748018E+02  0.00000000000E+00 0. -1.
</event>
<event>
 7    1  0.5487071E-013  0.5052886E+02  0.7816164E-02  0.1300439E+00
        -11   -1    0    0    0    0  0.00000000000E+00  0.00000000000E+00  0.45593999997E+02  0.45594000000E+02  0.51100000000E-03 0.  1.
         11   -1    0    0    0    0 -0.00000000000E+00 -0.00000000000E+00 -0.45593999997E+02  0.45594000000E+02  0.51100000000E-03 0. -1.
    9900012    2    1    2    0    0 -0.10777694159E+02 -0.51908319733E+01 -0.38859517415E+02  0.50528861769E+02  0.30000005833E+02 0.  0.
        -12    1    1    2    0    0  0.10777694159E+02  0.51908319733E+01  0.38859517415E+02  0.40659138231E+02  0.00000000000E+00 0.  1.
         11    1    3    3    0    0  0.46596565959E+01  0.26497128673E+01 -0.10395296215E+01  0.54602197727E+01  0.51100000000E-03 0. -1.
        -11    1    3    3    0    0 -0.10499438946E+01 -0.15647610590E+01  0.17047986401E+01  0.25411017330E+01  0.51100000000E-03 0.  1.
         12    1    3    3    0    0 -0.14387406860E+02 -0.62757837817E+01 -0.39524786433E+02  0.42527540263E+02  0.00000000000E+00 0. -1.
</event>
<event>
 7    1  0.5487071E-013  0.5052886E+02  0.7816164E-02  0.1300439E+00
        -11   -1    0    0    0    0  0.00000000000E+00  0.00000000000E+00  0.45593999997E+02  0.45594000000E+02  0.51100000000E-03 0. -1.
         11   -1    0    0    0    0 -0.00000000000E+00 -0.00000000000E+00 -0.45593999997E+02  0.45594000000E+02  0.51100000000E-03 0.  1.
    9900012    2    1    2    0    0  0.37378600556E+02 -0.41100003947E+01  0.15463312416E+02  0.50528856949E+02  0.29999991181E+02 0.  0.
        -12    1    1    2    0    0 -0.37378600556E+02  0.41100003947E+01 -0.15463312416E+02  0.40659143051E+02  0.00000000000E+00 0.  1.
         11    1    3    3    0    0  0.13408875759E+01  0.13234548214E+01 -0.32082201236E+01  0.37205092095E+01  0.51100000000E-03 0. -1.
        -11    1    3    3    0    0  0.20682403015E+02  0.64625217614E+01  0.30506895095E+01  0.21882245971E+02  0.51100000000E-03 0.  1.
         12    1    3    3    0    0  0.15355309965E+02 -0.11895976978E+02  0.15620843030E+02  0.24926101768E+02  0.00000000000E+00 0. -1.
</event>
<event>
 7    1  0.5487071E-013  0.5052886E+02  0.7816164E-02  0.1300439E+00
        -11   -1    0    0    0    0  0.00000000000E+00  0.00000000000E+00  0.45593999997E+02  0.45594000000E+02  0.51100000000E-03 0.  1.
         11   -1    0    0    0    0 -0.00000000000E+00 -0.00000000000E+00 -0.45593999997E+02  0.45594000000E+02  0.51100000000E-03 0. -1.
    9900012    2    1    2    0    0  0.31560918440E+02  0.17647224845E+02 -0.18591661614E+02  0.50528855898E+02  0.29999987989E+02 0.  0.
        -12    1    1    2    0    0 -0.31560918440E+02 -0.17647224845E+02  0.18591661614E+02  0.40659144102E+02  0.00000000000E+00 0.  1.
         11    1    3    3    0    0  0.10304494046E+02  0.19203040122E+02 -0.71325867990E+01  0.22930615826E+02  0.51100000000E-03 0. -1.
        -11    1    3    3    0    0 -0.16868020005E+01  0.16040571148E+00  0.36066104009E+00  0.17323705228E+01  0.51100000000E-03 0.  1.
        -12    1    3    3    0    0  0.22943226395E+02 -0.17162209883E+01 -0.11819735855E+02  0.25865869550E+02  0.00000000000E+00 0.  1.
</event>
<event>
 7    1  0.5487071E-013  0.5052885E+02  0.7816164E-02  0.1300439E+00
        -11   -1    0    0    0    0  0.00000000000E+00  0.00000000000E+00  0.45593999997E+02  0.45594000000E+02  0.51100000000E-03 0. -1.
         11   -1    0    0    0    0 -0.00000000000E+00 -0.00000000000E+00 -0.45593999997E+02  0.45594000000E+02  0.51100000000E-03 0.  1.
    9900012    2    1    2    0    0 -0.72599666765E+01  0.53874977813E+01  0.39641318948E+02  0.50528850766E+02  0.29999972387E+02 0.  0.
        -12    1    1    2    0    0  0.72599666765E+01 -0.53874977813E+01 -0.39641318948E+02  0.40659149234E+02  0.00000000000E+00 0.  1.
         11    1    3    3    0    0  0.83380449967E+01  0.15748762837E+01  0.10168466645E+02  0.13243902138E+02  0.51100000000E-03 0. -1.
        -11    1    3    3    0    0  0.13979627761E+01  0.24916111335E+01  0.13916181071E+02  0.14206425371E+02  0.51100000000E-03 0.  1.
        -12    1    3    3    0    0 -0.16995974449E+02  0.13210103642E+01  0.15556671233E+02  0.23078523257E+02  0.00000000000E+00 0.  1.
</event>
<event>
 7    1  0.5487071E-013  0.5052886E+02  0.7816164E-02  0.1300439E+00
        -11   -1    0    0    0    0  0.00000000000E+00  0.00000000000E+00  0.45593999997E+02  0.45594000000E+02  0.51100000000E-03 0. -1.
         11   -1    0    0    0    0 -0.00000000000E+00 -0.00000000000E+00 -0.45593999997E+02  0.45594000000E+02  0.51100000000E-03 0.  1.
    9900012    2    1    2    0    0 -0.22691856712E+02 -0.30639526491E+02 -0.14123192209E+02  0.50528862001E+02  0.30000006537E+02 0.  0.
        -12    1    1    2    0    0  0.22691856712E+02  0.30639526491E+02  0.14123192209E+02  0.40659137999E+02  0.00000000000E+00 0.  1.
         11    1    3    3    0    0 -0.91272711791E+01 -0.20781324710E+01  0.35406944868E+01  0.10008108285E+02  0.51100000000E-03 0. -1.
        -11    1    3    3    0    0 -0.47828624712E+01 -0.49951575575E+00 -0.84228203430E+01  0.96989273737E+01  0.51100000000E-03 0.  1.
         12    1    3    3    0    0 -0.87817230622E+01 -0.28061878265E+02 -0.92410663533E+01  0.30821826341E+02  0.00000000000E+00 0. -1.
</event>
<event>
 7    1  0.5487071E-013  0.5052886E+02  0.7816164E-02  0.1300439E+00
        -11   -1    0    0    0    0  0.00000000000E+00  0.00000000000E+00  0.45593999997E+02  0.45594000000E+02  0.51100000000E-03 0.  1.
         11   -1    0    0    0    0 -0.00000000000E+00 -0.00000000000E+00 -0.45593999997E+02  0.45594000000E+02  0.51100000000E-03 0. -1.
    9900012    2    1    2    0    0 -0.23345552604E+02 -0.11801010858E+02 -0.31126951824E+02  0.50528858181E+02  0.29999994926E+02 0.  0.
        -12    1    1    2    0    0  0.23345552604E+02  0.11801010858E+02  0.31126951824E+02  0.40659141819E+02  0.00000000000E+00 0.  1.
         11    1    3    3    0    0 -0.41315010608E+01 -0.14749601877E+01 -0.11365044426E+02  0.12182325051E+02  0.51100000000E-03 0. -1.
        -11    1    3    3    0    0  0.17034285779E+01 -0.24909818506E+01 -0.15266545188E+02  0.15561942737E+02  0.51100000000E-03 0.  1.
        -12    1    3    3    0    0 -0.20917480121E+02 -0.78350688197E+01 -0.44953622097E+01  0.22784590394E+02  0.00000000000E+00 0.  1.
</event>
<event>
 7    1  0.5487071E-013  0.5052887E+02  0.7816164E-02  0.1300439E+00
        -11   -1    0    0    0    0  0.00000000000E+00  0.00000000000E+00  0.45593999997E+02  0.45594000000E+02  0.51100000000E-03 0. -1.
         11   -1    0    0    0    0 -0.00000000000E+00 -0.00000000000E+00 -0.45593999997E+02  0.45594000000E+02  0.51100000000E-03 0.  1.
    9900012    2    1    2    0    0 -0.94179693582E+01 -0.38382532479E+02 -0.95523728215E+01  0.50528870978E+02  0.30000033824E+02 0.  0.
        -12    1    1    2    0    0  0.94179693582E+01  0.38382532479E+02  0.95523728215E+01  0.40659129022E+02  0.00000000000E+00 0.  1.
         11    1    3    3    0    0 -0.59758832261E+01 -0.99410861854E+01 -0.13732684854E+02  0.17975622616E+02  0.51100000000E-03 0. -1.
        -11    1    3    3    0    0  0.33596373147E+01 -0.11923129394E+02 -0.38436507586E+01  0.12970035807E+02  0.51100000000E-03 0.  1.
        -12    1    3    3    0    0 -0.68017234468E+01 -0.16518316900E+02  0.80239627915E+01  0.19583212554E+02  0.00000000000E+00 0.  1.
</event>
<event>
 7    1  0.5487071E-013  0.5052886E+02  0.7816164E-02  0.1300439E+00
        -11   -1    0    0    0    0  0.00000000000E+00  0.00000000000E+00  0.45593999997E+02  0.45594000000E+02  0.51100000000E-03 0. -1.
         11   -1    0    0    0    0 -0.00000000000E+00 -0.00000000000E+00 -0.45593999997E+02  0.45594000000E+02  0.51100000000E-03 0.  1.
    9900012    2    1    2    0    0  0.76851267326E+01  0.19675574309E+02  0.34741567467E+02  0.50528857026E+02  0.29999991417E+02 0.  0.
        -12    1    1    2    0    0 -0.76851267326E+01 -0.19675574309E+02 -0.34741567467E+02  0.40659142974E+02  0.00000000000E+00 0.  1.
         11    1    3    3    0    0  0.97099578073E+01  0.21808613876E+02  0.17044764988E+02  0.29332966668E+02  0.51100000000E-03 0. -1.
        -11    1    3    3    0    0  0.24273796877E+01 -0.10011268651E+01 -0.28074072604E+00  0.26406898274E+01  0.51100000000E-03 0.  1.
         12    1    3    3    0    0 -0.44522107624E+01 -0.11319127013E+01  0.17977543205E+02  0.18555200531E+02  0.00000000000E+00 0. -1.
</event>
<event>
 7    1  0.5487071E-013  0.5052887E+02  0.7816164E-02  0.1300439E+00
        -11   -1    0    0    0    0  0.00000000000E+00  0.00000000000E+00  0.45593999997E+02  0.45594000000E+02  0.51100000000E-03 0. -1.
         11   -1    0    0    0    0 -0.00000000000E+00 -0.00000000000E+00 -0.45593999997E+02  0.45594000000E+02  0.51100000000E-03 0.  1.
    9900012    2    1    2    0    0  0.10229174896E+01  0.39113014062E+02 -0.11058522229E+02  0.50528866425E+02  0.30000019986E+02 0.  0.
        -12    1    1    2    0    0 -0.10229174896E+01 -0.39113014062E+02  0.11058522229E+02  0.40659133575E+02  0.00000000000E+00 0.  1.
         11    1    3    3    0    0  0.21458471518E+01  0.23778366983E+02 -0.52955612437E+01  0.24455231864E+02  0.51100000000E-03 0. -1.
        -11    1    3    3    0    0  0.34514597834E+01  0.18876175616E+02 -0.64585427870E+01  0.20246860391E+02  0.51100000000E-03 0.  1.
        -12    1    3    3    0    0 -0.45743894457E+01 -0.35415285373E+01  0.69558180185E+00  0.58267741697E+01  0.00000000000E+00 0.  1.
</event>
<event>
 7    1  0.5487071E-013  0.5052886E+02  0.7816164E-02  0.1300439E+00
        -11   -1    0    0    0    0  0.00000000000E+00  0.00000000000E+00  0.45593999997E+02  0.45594000000E+02  0.51100000000E-03 0. -1.
         11   -1    0    0    0    0 -0.00000000000E+00 -0.00000000000E+00 -0.45593999997E+02  0.45594000000E+02  0.51100000000E-03 0.  1.
    9900012    2    1    2    0    0 -0.34097566404E+02  0.17076191460E+02  0.14104089905E+02  0.50528859558E+02  0.29999999114E+02 0.  0.
        -12    1    1    2    0    0  0.34097566404E+02 -0.17076191460E+02 -0.14104089905E+02  0.40659140442E+02  0.00000000000E+00 0.  1.
         11    1    3    3    0    0 -0.91450540474E+01  0.17059938817E+02  0.88431151841E+01  0.21280841440E+02  0.51100000000E-03 0. -1.
        -11    1    3    3    0    0 -0.66838276575E+01  0.56893597610E+01 -0.16068655267E+01  0.89232496170E+01  0.51100000000E-03 0.  1.
        -12    1    3    3    0    0 -0.18268684699E+02 -0.56731071178E+01  0.68678402471E+01  0.20324768502E+02  0.00000000000E+00 0.  1.
</event>
<event>
 7    1  0.5487071E-013  0.5052885E+02  0.7816164E-02  0.1300439E+00
        -11   -1    0    0    0    0  0.00000000000E+00  0.00000000000E+00  0.45593999997E+02  0.45594000000E+02  0.51100000000E-03 0.  1.
         11   -1    0    0    0    0 -0.00000000000E+00 -0.00000000000E+00 -0.45593999997E+02  0.45594000000E+02  0.51100000000E-03 0. -1.
    9900012    2    1    2    0    0  0.27480067245E+02 -0.40686903587E+00 -0.29964091564E+02  0.50528850704E+02  0.29999972201E+02 0.  0.
        -12    1    1    2    0    0 -0.27480067245E+02  0.40686903587E+00  0.29964091564E+02  0.40659149296E+02  0.00000000000E+00 0.  1.
         11    1    3    3    0    0  0.52037419878E+01 -0.39609309673E+01 -0.15217250143E+02  0.16562989071E+02  0.51100000000E-03 0. -1.
        -11    1    3    3    0    0  0.32366076266E+01 -0.33931248862E+01  0.41452278121E+01  0.62587410313E+01  0.51100000000E-03 0.  1.
         12    1    3    3    0    0  0.19039717630E+02  0.69471868177E+01 -0.18892069233E+02  0.27707120602E+02  0.00000000000E+00 0. -1.
</event>
<event>
 7    1  0.5487071E-013  0.5052882E+02  0.7816164E-02  0.1300439E+00
        -11   -1    0    0    0    0  0.00000000000E+00  0.00000000000E+00  0.45593999997E+02  0.45594000000E+02  0.51100000000E-03 0. -1.
         11   -1    0    0    0    0 -0.00000000000E+00 -0.00000000000E+00 -0.45593999997E+02  0.45594000000E+02  0.51100000000E-03 0.  1.
    9900012    2    1    2    0    0 -0.30305698617E+02  0.16875941536E+02  0.21211694818E+02  0.50528821843E+02  0.29999884474E+02 0.  0.
        -12    1    1    2    0    0  0.30305698617E+02 -0.16875941536E+02 -0.21211694818E+02  0.40659178157E+02  0.00000000000E+00 0.  1.
         11    1    3    3    0    0  0.12391655202E+00  0.21539527508E+00  0.10818191953E+01  0.11099925535E+01  0.51100000000E-03 0.  1.
        -11    1    3    3    0    0 -0.32227306047E+02  0.20250879609E+02  0.11275819738E+02  0.39696870040E+02  0.51100000000E-03 0. -1.
         12    1    3    3    0    0  0.17976908779E+01 -0.35903333479E+01  0.88540558846E+01  0.97219592495E+01  0.00000000000E+00 0. -1.
</event>
<event>
 7    1  0.5487071E-013  0.5052886E+02  0.7816164E-02  0.1300439E+00
        -11   -1    0    0    0    0  0.00000000000E+00  0.00000000000E+00  0.45593999997E+02  0.45594000000E+02  0.51100000000E-03 0.  1.
         11   -1    0    0    0    0 -0.00000000000E+00 -0.00000000000E+00 -0.45593999997E+02  0.45594000000E+02  0.51100000000E-03 0. -1.
    9900012    2    1    2    0    0 -0.25361541381E+02 -0.24534402961E+02 -0.20199522932E+02  0.50528862816E+02  0.30000009016E+02 0.  0.
        -12    1    1    2    0    0  0.25361541381E+02  0.24534402961E+02  0.20199522932E+02  0.40659137184E+02  0.00000000000E+00 0.  1.
         11    1    3    3    0    0 -0.10266214058E+02 -0.14951450114E+02 -0.12010337841E+02  0.21752913067E+02  0.51100000000E-03 0. -1.
        -11    1    3    3    0    0 -0.33772118858E+01 -0.13782482220E+02 -0.80762630790E+01  0.16327535082E+02  0.51100000000E-03 0.  1.
        -12    1    3    3    0    0 -0.11718115437E+02  0.41995293730E+01 -0.11292201233E+00  0.12448414668E+02  0.00000000000E+00 0.  1.
</event>
<event>
 7    1  0.5487071E-013  0.5052886E+02  0.7816164E-02  0.1300439E+00
        -11   -1    0    0    0    0  0.00000000000E+00  0.00000000000E+00  0.45593999997E+02  0.45594000000E+02  0.51100000000E-03 0.  1.
         11   -1    0    0    0    0 -0.00000000000E+00 -0.00000000000E+00 -0.45593999997E+02  0.45594000000E+02  0.51100000000E-03 0. -1.
    9900012    2    1    2    0    0  0.15343929655E+02  0.31567776348E+02  0.20523282785E+02  0.50528858136E+02  0.29999994791E+02 0.  0.
        -12    1    1    2    0    0 -0.15343929655E+02 -0.31567776348E+02 -0.20523282785E+02  0.40659141864E+02  0.00000000000E+00 0.  1.
         11    1    3    3    0    0 -0.14659742750E+01  0.13814288513E+02  0.23513714369E+01  0.14089449797E+02  0.51100000000E-03 0.  1.
        -11    1    3    3    0    0  0.18801041543E+02  0.15493190611E+02  0.77109757899E+01  0.25553419855E+02  0.51100000000E-03 0. -1.
         12    1    3    3    0    0 -0.19911376121E+01  0.22602972240E+01  0.10460935558E+02  0.10885988484E+02  0.00000000000E+00 0. -1.
</event>
<event>
 7    1  0.5487071E-013  0.5052883E+02  0.7816164E-02  0.1300439E+00
        -11   -1    0    0    0    0  0.00000000000E+00  0.00000000000E+00  0.45593999997E+02  0.45594000000E+02  0.51100000000E-03 0. -1.
         11   -1    0    0    0    0 -0.00000000000E+00 -0.00000000000E+00 -0.45593999997E+02  0.45594000000E+02  0.51100000000E-03 0.  1.
    9900012    2    1    2    0    0  0.20280650517E+02  0.59250032048E+01  0.34738413098E+02  0.50528833839E+02  0.29999920936E+02 0.  0.
        -12    1    1    2    0    0 -0.20280650517E+02 -0.59250032048E+01 -0.34738413098E+02  0.40659166161E+02  0.00000000000E+00 0.  1.
         11    1    3    3    0    0  0.94160558849E+01 -0.16950839998E+01  0.26939789880E+02  0.28588244039E+02  0.51100000000E-03 0. -1.
        -11    1    3    3    0    0  0.42911285690E+01 -0.36328143977E+01  0.68670933712E+01  0.88751392369E+01  0.51100000000E-03 0.  1.
         12    1    3    3    0    0  0.65734660632E+01  0.11252901602E+02  0.93152984682E+00  0.13065450563E+02  0.00000000000E+00 0. -1.
</event>
<event>
 7    1  0.5487071E-013  0.5052874E+02  0.7816164E-02  0.1300439E+00
        -11   -1    0    0    0    0  0.00000000000E+00  0.00000000000E+00  0.45593999997E+02  0.45594000000E+02  0.51100000000E-03 0.  1.
         11   -1    0    0    0    0 -0.00000000000E+00 -0.00000000000E+00 -0.45593999997E+02  0.45594000000E+02  0.51100000000E-03 0. -1.
    9900012    2    1    2    0    0  0.16693096634E+02 -0.22141346692E+02 -0.29736792376E+02  0.50528738701E+02  0.29999631753E+02 0.  0.
        -12    1    1    2    0    0 -0.16693096634E+02  0.22141346692E+02  0.29736792376E+02  0.40659261299E+02  0.00000000000E+00 0.  1.
         11    1    3    3    0    0 -0.37743962815E+00 -0.71241489907E+01 -0.37690212413E+01  0.80685488716E+01  0.51100000000E-03 0. -1.
        -11    1    3    3    0    0  0.13957415061E+02 -0.21816987151E+02 -0.18049607993E+02  0.31568634948E+02  0.51100000000E-03 0.  1.
        -12    1    3    3    0    0  0.31131212010E+01  0.67997894499E+01 -0.79181631425E+01  0.10891554881E+02  0.00000000000E+00 0.  1.
</event>
<event>
 7    1  0.5487071E-013  0.5052887E+02  0.7816164E-02  0.1300439E+00
        -11   -1    0    0    0    0  0.00000000000E+00  0.00000000000E+00  0.45593999997E+02  0.45594000000E+02  0.51100000000E-03 0.  1.
         11   -1    0    0    0    0 -0.00000000000E+00 -0.00000000000E+00 -0.45593999997E+02  0.45594000000E+02  0.51100000000E-03 0. -1.
    9900012    2    1    2    0    0  0.23362052588E+02  0.69033864186E+01 -0.32553386032E+02  0.50528865881E+02  0.30000018331E+02 0.  0.
        -12    1    1    2    0    0 -0.23362052588E+02 -0.69033864186E+01  0.32553386032E+02  0.40659134119E+02  0.00000000000E+00 0.  1.
         11    1    3    3    0    0  0.70380276073E-01  0.60658115181E+01 -0.40160719746E+01  0.72751534089E+01  0.51100000000E-03 0. -1.
        -11    1    3    3    0    0  0.20451942653E+02 -0.96955668262E+00 -0.72785844463E+01  0.21730158541E+02  0.51100000000E-03 0.  1.
         12    1    3    3    0    0  0.28397296591E+01  0.18071315831E+01 -0.21258729611E+02  0.21523553930E+02  0.00000000000E+00 0. -1.
</event>
<event>
 7    1  0.5487071E-013  0.5052886E+02  0.7816164E-02  0.1300439E+00
        -11   -1    0    0    0    0  0.00000000000E+00  0.00000000000E+00  0.45593999997E+02  0.45594000000E+02  0.51100000000E-03 0.  1.
         11   -1    0    0    0    0 -0.00000000000E+00 -0.00000000000E+00 -0.45593999997E+02  0.45594000000E+02  0.51100000000E-03 0. -1.
    9900012    2    1    2    0    0  0.10159138465E+02  0.91836368257E+01 -0.38283399794E+02  0.50528856139E+02  0.29999988721E+02 0.  0.
        -12    1    1    2    0    0 -0.10159138465E+02 -0.91836368257E+01  0.38283399794E+02  0.40659143861E+02  0.00000000000E+00 0.  1.
         11    1    3    3    0    0  0.11193016210E+02 -0.14623297527E+01 -0.13774364348E+02  0.17808849868E+02  0.51100000000E-03 0. -1.
        -11    1    3    3    0    0  0.55124557875E+01 -0.11402567615E+01 -0.11440418855E+01  0.57442307046E+01  0.51100000000E-03 0.  1.
        -12    1    3    3    0    0 -0.65463335321E+01  0.11786223340E+02 -0.23364993560E+02  0.26975775566E+02  0.00000000000E+00 0.  1.
</event>
<event>
 7    1  0.5487071E-013  0.5052887E+02  0.7816164E-02  0.1300439E+00
        -11   -1    0    0    0    0  0.00000000000E+00  0.00000000000E+00  0.45593999997E+02  0.45594000000E+02  0.51100000000E-03 0.  1.
         11   -1    0    0    0    0 -0.00000000000E+00 -0.00000000000E+00 -0.45593999997E+02  0.45594000000E+02  0.51100000000E-03 0. -1.
    9900012    2    1    2    0    0 -0.23501783190E+02 -0.31062595538E+02 -0.11659613666E+02  0.50528865165E+02  0.30000016156E+02 0.  0.
        -12    1    1    2    0    0  0.23501783190E+02  0.31062595538E+02  0.11659613666E+02  0.40659134835E+02  0.00000000000E+00 0.  1.
         11    1    3    3    0    0 -0.10525511668E+02 -0.11403535281E+02  0.11708612226E+00  0.15519043856E+02  0.51100000000E-03 0. -1.
        -11    1    3    3    0    0 -0.82472638045E+01 -0.80755703216E+01  0.62041233336E+01  0.13104325350E+02  0.51100000000E-03 0.  1.
         12    1    3    3    0    0 -0.47290077181E+01 -0.11583489935E+02 -0.17980823122E+02  0.21905495959E+02  0.00000000000E+00 0. -1.
</event>
<event>
 7    1  0.5487071E-013  0.5052886E+02  0.7816164E-02  0.1300439E+00
        -11   -1    0    0    0    0  0.00000000000E+00  0.00000000000E+00  0.45593999997E+02  0.45594000000E+02  0.51100000000E-03 0.  1.
         11   -1    0    0    0    0 -0.00000000000E+00 -0.00000000000E+00 -0.45593999997E+02  0.45594000000E+02  0.51100000000E-03 0. -1.
    9900012    2    1    2    0    0 -0.18920582164E+02 -0.21048533132E+02 -0.29191383033E+02  0.50528855643E+02  0.29999987213E+02 0.  0.
        -12    1    1    2    0    0  0.18920582164E+02  0.21048533132E+02  0.29191383033E+02  0.40659144357E+02  0.00000000000E+00 0.  1.
         11    1    3    3    0    0 -0.38351269680E+01 -0.14307652623E+02 -0.24076229877E+02  0.28268037919E+02  0.51100000000E-03 0. -1.
        -11    1    3    3    0    0 -0.86201375055E+01 -0.69701387875E+01 -0.93721820952E+01  0.14516452832E+02  0.51100000000E-03 0.  1.
        -12    1    3    3    0    0 -0.64653176904E+01  0.22925827863E+00  0.42570289390E+01  0.77443648922E+01  0.00000000000E+00 0.  1.
</event>
<event>
 7    1  0.5487071E-013  0.5052886E+02  0.7816164E-02  0.1300439E+00
        -11   -1    0    0    0    0  0.00000000000E+00  0.00000000000E+00  0.45593999997E+02  0.45594000000E+02  0.51100000000E-03 0.  1.
         11   -1    0    0    0    0 -0.00000000000E+00 -0.00000000000E+00 -0.45593999997E+02  0.45594000000E+02  0.51100000000E-03 0. -1.
    9900012    2    1    2    0    0  0.40439335683E+02  0.13537980877E+01 -0.39991434295E+01  0.50528858495E+02  0.29999995882E+02 0.  0.
        -12    1    1    2    0    0 -0.40439335683E+02 -0.13537980877E+01  0.39991434295E+01  0.40659141505E+02  0.00000000000E+00 0.  1.
         11    1    3    3    0    0  0.68514577925E+01 -0.58539029035E+01  0.58122915665E+01  0.10723496939E+02  0.51100000000E-03 0. -1.
        -11    1    3    3    0    0  0.12990769411E+02  0.53173301588E+00  0.46049165874E+01  0.13793044875E+02  0.51100000000E-03 0.  1.
         12    1    3    3    0    0  0.20597108480E+02  0.66759679753E+01 -0.14416351584E+02  0.26012316681E+02  0.00000000000E+00 0. -1.
</event>
<event>
 7    1  0.5487071E-013  0.5052885E+02  0.7816164E-02  0.1300439E+00
        -11   -1    0    0    0    0  0.00000000000E+00  0.00000000000E+00  0.45593999997E+02  0.45594000000E+02  0.51100000000E-03 0. -1.
         11   -1    0    0    0    0 -0.00000000000E+00 -0.00000000000E+00 -0.45593999997E+02  0.45594000000E+02  0.51100000000E-03 0.  1.
    9900012    2    1    2    0    0  0.37623607137E+02  0.61349340767E+01  0.14141889528E+02  0.50528852573E+02  0.29999977880E+02 0.  0.
        -12    1    1    2    0    0 -0.37623607137E+02 -0.61349340767E+01 -0.14141889528E+02  0.40659147427E+02  0.00000000000E+00 0.  1.
         11    1    3    3    0    0  0.98062459021E+00 -0.55411570303E+01  0.19117453076E+01  0.59431318515E+01  0.51100000000E-03 0. -1.
        -11    1    3    3    0    0  0.13386423548E+02 -0.45946707663E+01  0.14610664684E+01  0.14228213182E+02  0.51100000000E-03 0.  1.
        -12    1    3    3    0    0  0.23256558999E+02  0.16270761873E+02  0.10769077752E+02  0.30357507540E+02  0.00000000000E+00 0.  1.
</event>
<event>
 7    1  0.5487071E-013  0.5052885E+02  0.7816164E-02  0.1300439E+00
        -11   -1    0    0    0    0  0.00000000000E+00  0.00000000000E+00  0.45593999997E+02  0.45594000000E+02  0.51100000000E-03 0.  1.
         11   -1    0    0    0    0 -0.00000000000E+00 -0.00000000000E+00 -0.45593999997E+02  0.45594000000E+02  0.51100000000E-03 0. -1.
    9900012    2    1    2    0    0  0.20937090495E+02  0.12129527475E+02 -0.32675360630E+02  0.50528851123E+02  0.29999973473E+02 0.  0.
        -12    1    1    2    0    0 -0.20937090495E+02 -0.12129527475E+02  0.32675360630E+02  0.40659148877E+02  0.00000000000E+00 0.  1.
         11    1    3    3    0    0 -0.81033887701E+00 -0.13253176842E+01  0.14565922517E+01  0.21295016573E+01  0.51100000000E-03 0. -1.
        -11    1    3    3    0    0 -0.16097070036E+01  0.76511182008E+01 -0.16805074145E+01  0.79971789896E+01  0.51100000000E-03 0.  1.
         12    1    3    3    0    0  0.23357136375E+02  0.58037269579E+01 -0.32451445467E+02  0.40402170476E+02  0.00000000000E+00 0. -1.
</event>
<event>
 7    1  0.5487071E-013  0.5052887E+02  0.7816164E-02  0.1300439E+00
        -11   -1    0    0    0    0  0.00000000000E+00  0.00000000000E+00  0.45593999997E+02  0.45594000000E+02  0.51100000000E-03 0.  1.
         11   -1    0    0    0    0 -0.00000000000E+00 -0.00000000000E+00 -0.45593999997E+02  0.45594000000E+02  0.51100000000E-03 0. -1.
    9900012    2    1    2    0    0 -0.13897214628E+02  0.15893183414E+02 -0.34748228311E+02  0.50528865428E+02  0.30000016954E+02 0.  0.
        -12    1    1    2    0    0  0.13897214628E+02 -0.15893183414E+02  0.34748228311E+02  0.40659134572E+02  0.00000000000E+00 0.  1.
         11    1    3    3    0    0 -0.69857877481E+01 -0.60212578432E+01 -0.18333293651E+02  0.20522339848E+02  0.51100000000E-03 0.  1.
        -11    1    3    3    0    0 -0.52130185483E+01  0.88404564291E+01 -0.12661977329E+02  0.16298923351E+02  0.51100000000E-03 0. -1.
        -12    1    3    3    0    0 -0.16984083319E+01  0.13073984828E+02 -0.37529573306E+01  0.13707602229E+02  0.00000000000E+00 0.  1.
</event>
<event>
 7    1  0.5487071E-013  0.5052886E+02  0.7816164E-02  0.1300439E+00
        -11   -1    0    0    0    0  0.00000000000E+00  0.00000000000E+00  0.45593999997E+02  0.45594000000E+02  0.51100000000E-03 0.  1.
         11   -1    0    0    0    0 -0.00000000000E+00 -0.00000000000E+00 -0.45593999997E+02  0.45594000000E+02  0.51100000000E-03 0. -1.
    9900012    2    1    2    0    0  0.44724121790E+01  0.31448459737E+02 -0.25380257758E+02  0.50528861121E+02  0.30000003863E+02 0.  0.
        -12    1    1    2    0    0 -0.44724121790E+01 -0.31448459737E+02  0.25380257758E+02  0.40659138879E+02  0.00000000000E+00 0.  1.
         11    1    3    3    0    0 -0.44454790437E+01  0.78499673709E+01 -0.42846682055E+01  0.99871243882E+01  0.51100000000E-03 0. -1.
        -11    1    3    3    0    0  0.18795897691E+01  0.12308180050E+02  0.31878502721E+01  0.12852491722E+02  0.51100000000E-03 0.  1.
        -12    1    3    3    0    0  0.70383014537E+01  0.11290312316E+02 -0.24283439824E+02  0.27689245011E+02  0.00000000000E+00 0.  1.
</event>
<event>
 7    1  0.5487071E-013  0.5052886E+02  0.7816164E-02  0.1300439E+00
        -11   -1    0    0    0    0  0.00000000000E+00  0.00000000000E+00  0.45593999997E+02  0.45594000000E+02  0.51100000000E-03 0.  1.
         11   -1    0    0    0    0 -0.00000000000E+00 -0.00000000000E+00 -0.45593999997E+02  0.45594000000E+02  0.51100000000E-03 0. -1.
    9900012    2    1    2    0    0  0.54733829909E+01 -0.40694038528E+01 -0.40083008683E+02  0.50528861370E+02  0.30000004620E+02 0.  0.
        -12    1    1    2    0    0 -0.54733829909E+01  0.40694038528E+01  0.40083008683E+02  0.40659138630E+02  0.00000000000E+00 0.  1.
         11    1    3    3    0    0 -0.20490112994E+00 -0.55660040333E+01 -0.17255167585E+02  0.18131828204E+02  0.51100000000E-03 0. -1.
        -11    1    3    3    0    0 -0.79637179414E+01  0.40412150752E+01 -0.69985732872E+01  0.11346023579E+02  0.51100000000E-03 0.  1.
        -12    1    3    3    0    0  0.13642002062E+02 -0.25446148947E+01 -0.15829267811E+02  0.21051009587E+02  0.00000000000E+00 0.  1.
</event>
<event>
 7    1  0.5487071E-013  0.5052886E+02  0.7816164E-02  0.1300439E+00
        -11   -1    0    0    0    0  0.00000000000E+00  0.00000000000E+00  0.45593999997E+02  0.45594000000E+02  0.51100000000E-03 0.  1.
         11   -1    0    0    0    0 -0.00000000000E+00 -0.00000000000E+00 -0.45593999997E+02  0.45594000000E+02  0.51100000000E-03 0. -1.
    9900012    2    1    2    0    0  0.15341444983E+02 -0.12601931356E+02 -0.35482350377E+02  0.50528858391E+02  0.29999995567E+02 0.  0.
        -12    1    1    2    0    0 -0.15341444983E+02  0.12601931356E+02  0.35482350377E+02  0.40659141609E+02  0.00000000000E+00 0.  1.
         11    1    3    3    0    0  0.91691276771E+01  0.60308709968E+01 -0.13338305772E+02  0.17272947301E+02  0.51100000000E-03 0. -1.
        -11    1    3    3    0    0 -0.18148271989E+01  0.19914648614E+01 -0.24202729258E+01  0.36217746137E+01  0.51100000000E-03 0.  1.
        -12    1    3    3    0    0  0.79871445045E+01 -0.20624267214E+02 -0.19723771679E+02  0.29634136477E+02  0.00000000000E+00 0.  1.
</event>
<event>
 7    1  0.5487071E-013  0.5052887E+02  0.7816164E-02  0.1300439E+00
        -11   -1    0    0    0    0  0.00000000000E+00  0.00000000000E+00  0.45593999997E+02  0.45594000000E+02  0.51100000000E-03 0.  1.
         11   -1    0    0    0    0 -0.00000000000E+00 -0.00000000000E+00 -0.45593999997E+02  0.45594000000E+02  0.51100000000E-03 0. -1.
    9900012    2    1    2    0    0  0.24299593538E+02 -0.32591052045E+02  0.71967932856E+00  0.50528869933E+02  0.30000030647E+02 0.  0.
        -12    1    1    2    0    0 -0.24299593538E+02  0.32591052045E+02 -0.71967932856E+00  0.40659130067E+02  0.00000000000E+00 0.  1.
         11    1    3    3    0    0 -0.32792200065E+01 -0.29307873837E+01  0.56953068967E+01  0.71957848389E+01  0.51100000000E-03 0. -1.
        -11    1    3    3    0    0  0.39532841192E+01  0.12132570043E+01  0.36011707075E-01  0.41354256117E+01  0.51100000000E-03 0.  1.
         12    1    3    3    0    0  0.23625529426E+02 -0.30873521665E+02 -0.50116392752E+01  0.39197659482E+02  0.00000000000E+00 0. -1.
</event>
<event>
 7    1  0.5487071E-013  0.5052887E+02  0.7816164E-02  0.1300439E+00
        -11   -1    0    0    0    0  0.00000000000E+00  0.00000000000E+00  0.45593999997E+02  0.45594000000E+02  0.51100000000E-03 0.  1.
         11   -1    0    0    0    0 -0.00000000000E+00 -0.00000000000E+00 -0.45593999997E+02  0.45594000000E+02  0.51100000000E-03 0. -1.
    9900012    2    1    2    0    0  0.28944040356E+02  0.10359602414E+02 -0.26609892653E+02  0.50528865463E+02  0.30000017061E+02 0.  0.
        -12    1    1    2    0    0 -0.28944040356E+02 -0.10359602414E+02  0.26609892653E+02  0.40659134537E+02  0.00000000000E+00 0.  1.
         11    1    3    3    0    0  0.93569256878E+01  0.75746359229E+01 -0.29515963409E+00  0.12042187806E+02  0.51100000000E-03 0. -1.
        -11    1    3    3    0    0 -0.41213870767E+01 -0.71114920485E-01 -0.49786793893E+01  0.64636009693E+01  0.51100000000E-03 0.  1.
         12    1    3    3    0    0  0.23708501745E+02  0.28560814115E+01 -0.21336053630E+02  0.32023076687E+02  0.00000000000E+00 0. -1.
</event>
<event>
 7    1  0.5487071E-013  0.5052885E+02  0.7816164E-02  0.1300439E+00
        -11   -1    0    0    0    0  0.00000000000E+00  0.00000000000E+00  0.45593999997E+02  0.45594000000E+02  0.51100000000E-03 0.  1.
         11   -1    0    0    0    0 -0.00000000000E+00 -0.00000000000E+00 -0.45593999997E+02  0.45594000000E+02  0.51100000000E-03 0. -1.
    9900012    2    1    2    0    0  0.15784343845E+02  0.13504870615E+02 -0.34951953771E+02  0.50528854493E+02  0.29999983718E+02 0.  0.
        -12    1    1    2    0    0 -0.15784343845E+02 -0.13504870615E+02  0.34951953771E+02  0.40659145507E+02  0.00000000000E+00 0.  1.
         11    1    3    3    0    0  0.54362406846E+01 -0.20853944937E+01 -0.24783034345E+02  0.25457815590E+02  0.51100000000E-03 0. -1.
        -11    1    3    3    0    0  0.11009717668E+01 -0.23282625945E+01 -0.21593267020E+00  0.25844869354E+01  0.51100000000E-03 0.  1.
        -12    1    3    3    0    0  0.92471313933E+01  0.17918527704E+02 -0.99529867549E+01  0.22486551968E+02  0.00000000000E+00 0.  1.
</event>
<event>
 7    1  0.5487071E-013  0.5052886E+02  0.7816164E-02  0.1300439E+00
        -11   -1    0    0    0    0  0.00000000000E+00  0.00000000000E+00  0.45593999997E+02  0.45594000000E+02  0.51100000000E-03 0.  1.
         11   -1    0    0    0    0 -0.00000000000E+00 -0.00000000000E+00 -0.45593999997E+02  0.45594000000E+02  0.51100000000E-03 0. -1.
    9900012    2    1    2    0    0 -0.28241653618E+02  0.31721070565E+00 -0.29248483770E+02  0.50528862963E+02  0.30000009463E+02 0.  0.
        -12    1    1    2    0    0  0.28241653618E+02 -0.31721070565E+00  0.29248483770E+02  0.40659137037E+02  0.00000000000E+00 0.  1.
         11    1    3    3    0    0 -0.23607456965E+02 -0.40914733207E+01 -0.19961645290E+02  0.31185244287E+02  0.51100000000E-03 0. -1.
        -11    1    3    3    0    0  0.39057130023E+00 -0.26251088963E+01 -0.10303494967E+02  0.10639819145E+02  0.51100000000E-03 0.  1.
        -12    1    3    3    0    0 -0.50247679529E+01  0.70337929227E+01  0.10166564865E+01  0.87037995308E+01  0.00000000000E+00 0.  1.
</event>
<event>
 7    1  0.5487071E-013  0.5052883E+02  0.7816164E-02  0.1300439E+00
        -11   -1    0    0    0    0  0.00000000000E+00  0.00000000000E+00  0.45593999997E+02  0.45594000000E+02  0.51100000000E-03 0.  1.
         11   -1    0    0    0    0 -0.00000000000E+00 -0.00000000000E+00 -0.45593999997E+02  0.45594000000E+02  0.51100000000E-03 0. -1.
    9900012    2    1    2    0    0  0.98139415554E+01  0.24425103139E+02 -0.30988205061E+02  0.50528831722E+02  0.29999914501E+02 0.  0.
        -12    1    1    2    0    0 -0.98139415554E+01 -0.24425103139E+02  0.30988205061E+02  0.40659168278E+02  0.00000000000E+00 0.  1.
         11    1    3    3    0    0  0.10997955752E+02  0.69422802372E+01 -0.55815709690E-01  0.13005898711E+02  0.51100000000E-03 0. -1.
        -11    1    3    3    0    0  0.12709577546E+01 -0.10234289175E+01 -0.31332731154E+00  0.16616000206E+01  0.51100000000E-03 0.  1.
         12    1    3    3    0    0 -0.24549719513E+01  0.18506251819E+02 -0.30619062039E+02  0.35861332990E+02  0.00000000000E+00 0. -1.
</event>
<event>
 7    1  0.5487071E-013  0.5052883E+02  0.7816164E-02  0.1300439E+00
        -11   -1    0    0    0    0  0.00000000000E+00  0.00000000000E+00  0.45593999997E+02  0.45594000000E+02  0.51100000000E-03 0.  1.
         11   -1    0    0    0    0 -0.00000000000E+00 -0.00000000000E+00 -0.45593999997E+02  0.45594000000E+02  0.51100000000E-03 0. -1.
    9900012    2    1    2    0    0 -0.17714011050E+02 -0.33956159198E+02 -0.13651425830E+02  0.50528826838E+02  0.29999899658E+02 0.  0.
        -12    1    1    2    0    0  0.17714011050E+02  0.33956159198E+02  0.13651425830E+02  0.40659173162E+02  0.00000000000E+00 0.  1.
         11    1    3    3    0    0  0.36154208337E+00 -0.57636758706E+01 -0.20690454093E+01  0.61344617846E+01  0.51100000000E-03 0. -1.
        -11    1    3    3    0    0  0.85884414811E+00 -0.22471743645E+02 -0.24922214871E+01  0.22625826922E+02  0.51100000000E-03 0.  1.
         12    1    3    3    0    0 -0.18934397282E+02 -0.57207396829E+01 -0.90901589340E+01  0.21768538132E+02  0.00000000000E+00 0. -1.
</event>
<event>
 7    1  0.5487071E-013  0.5052886E+02  0.7816164E-02  0.1300439E+00
        -11   -1    0    0    0    0  0.00000000000E+00  0.00000000000E+00  0.45593999997E+02  0.45594000000E+02  0.51100000000E-03 0. -1.
         11   -1    0    0    0    0 -0.00000000000E+00 -0.00000000000E+00 -0.45593999997E+02  0.45594000000E+02  0.51100000000E-03 0.  1.
    9900012    2    1    2    0    0  0.28095502571E+02  0.28931776014E+02  0.51730556548E+01  0.50528862861E+02  0.30000009153E+02 0.  0.
        -12    1    1    2    0    0 -0.28095502571E+02 -0.28931776014E+02 -0.51730556548E+01  0.40659137139E+02  0.00000000000E+00 0.  1.
         11    1    3    3    0    0  0.12156280668E+02  0.80841018430E+01  0.24396204942E+01  0.14801338139E+02  0.51100000000E-03 0. -1.
        -11    1    3    3    0    0  0.14279489223E+01  0.20915776417E+02  0.32071582802E+01  0.21208361694E+02  0.51100000000E-03 0.  1.
         12    1    3    3    0    0  0.14511272981E+02 -0.68102246076E-01 -0.47372311970E+00  0.14519163028E+02  0.00000000000E+00 0. -1.
</event>
<event>
 7    1  0.5487071E-013  0.5052886E+02  0.7816164E-02  0.1300439E+00
        -11   -1    0    0    0    0  0.00000000000E+00  0.00000000000E+00  0.45593999997E+02  0.45594000000E+02  0.51100000000E-03 0. -1.
         11   -1    0    0    0    0 -0.00000000000E+00 -0.00000000000E+00 -0.45593999997E+02  0.45594000000E+02  0.51100000000E-03 0.  1.
    9900012    2    1    2    0    0 -0.25029620158E+02 -0.19038625733E+02  0.25772364702E+02  0.50528856657E+02  0.29999990295E+02 0.  0.
        -12    1    1    2    0    0  0.25029620158E+02  0.19038625733E+02 -0.25772364702E+02  0.40659143343E+02  0.00000000000E+00 0.  1.
         11    1    3    3    0    0 -0.24635284964E+02 -0.10884741301E+02  0.26094276693E+02  0.37500481795E+02  0.51100000000E-03 0. -1.
        -11    1    3    3    0    0 -0.44438072766E+01 -0.36428070049E+01  0.25905095952E+01  0.63030315096E+01  0.51100000000E-03 0.  1.
        -12    1    3    3    0    0  0.40494720834E+01 -0.45110774270E+01 -0.29124215867E+01  0.67253433522E+01  0.00000000000E+00 0.  1.
</event>
<event>
 7    1  0.5487071E-013  0.5052885E+02  0.7816164E-02  0.1300439E+00
        -11   -1    0    0    0    0  0.00000000000E+00  0.00000000000E+00  0.45593999997E+02  0.45594000000E+02  0.51100000000E-03 0.  1.
         11   -1    0    0    0    0 -0.00000000000E+00 -0.00000000000E+00 -0.45593999997E+02  0.45594000000E+02  0.51100000000E-03 0. -1.
    9900012    2    1    2    0    0 -0.33865762927E+02  0.21230450157E+02 -0.74528149803E+01  0.50528851415E+02  0.29999974362E+02 0.  0.
        -12    1    1    2    0    0  0.33865762927E+02 -0.21230450157E+02  0.74528149803E+01  0.40659148585E+02  0.00000000000E+00 0.  1.
         11    1    3    3    0    0  0.14267553174E+01  0.19074410411E+01  0.13483512397E+01  0.27371542499E+01  0.51100000000E-03 0.  1.
        -11    1    3    3    0    0  0.28668686029E+01  0.16317770259E-03  0.22152434691E+01  0.36230152500E+01  0.51100000000E-03 0. -1.
         12    1    3    3    0    0 -0.38159386847E+02  0.19322845938E+02 -0.11016409689E+02  0.44168681916E+02  0.00000000000E+00 0. -1.
</event>
<event>
 7    1  0.5487071E-013  0.5052887E+02  0.7816164E-02  0.1300439E+00
        -11   -1    0    0    0    0  0.00000000000E+00  0.00000000000E+00  0.45593999997E+02  0.45594000000E+02  0.51100000000E-03 0.  1.
         11   -1    0    0    0    0 -0.00000000000E+00 -0.00000000000E+00 -0.45593999997E+02  0.45594000000E+02  0.51100000000E-03 0. -1.
    9900012    2    1    2    0    0  0.34240799985E+02 -0.20908865719E+02  0.65994053152E+01  0.50528865728E+02  0.30000017867E+02 0.  0.
        -12    1    1    2    0    0 -0.34240799985E+02  0.20908865719E+02 -0.65994053152E+01  0.40659134272E+02  0.00000000000E+00 0.  1.
         11    1    3    3    0    0  0.16347553615E+01 -0.29799777556E+01 -0.72352293063E+01  0.79938248600E+01  0.51100000000E-03 0. -1.
        -11    1    3    3    0    0  0.14147554434E+02 -0.44204898768E+01 -0.16493376211E+01  0.14913562354E+02  0.51100000000E-03 0.  1.
        -12    1    3    3    0    0  0.18458490189E+02 -0.13508398086E+02  0.15483972243E+02  0.27621478514E+02  0.00000000000E+00 0.  1.
</event>
<event>
 7    1  0.5487071E-013  0.5052887E+02  0.7816164E-02  0.1300439E+00
        -11   -1    0    0    0    0  0.00000000000E+00  0.00000000000E+00  0.45593999997E+02  0.45594000000E+02  0.51100000000E-03 0.  1.
         11   -1    0    0    0    0 -0.00000000000E+00 -0.00000000000E+00 -0.45593999997E+02  0.45594000000E+02  0.51100000000E-03 0. -1.
    9900012    2    1    2    0    0  0.82775986199E+01  0.18506861121E+02 -0.35244034780E+02  0.50528873902E+02  0.30000042712E+02 0.  0.
        -12    1    1    2    0    0 -0.82775986199E+01 -0.18506861121E+02  0.35244034780E+02  0.40659126098E+02  0.00000000000E+00 0.  1.
         11    1    3    3    0    0  0.15754377979E+02  0.58654804305E+01 -0.18662479438E+02  0.25117572041E+02  0.51100000000E-03 0. -1.
        -11    1    3    3    0    0 -0.61637665444E+01  0.15046366395E+02 -0.12564713666E+02  0.20548897524E+02  0.51100000000E-03 0.  1.
         12    1    3    3    0    0 -0.13130128144E+01 -0.24049857037E+01 -0.40168416761E+01  0.48624043370E+01  0.00000000000E+00 0. -1.
</event>
<event>
 7    1  0.5487071E-013  0.5052885E+02  0.7816164E-02  0.1300439E+00
        -11   -1    0    0    0    0  0.00000000000E+00  0.00000000000E+00  0.45593999997E+02  0.45594000000E+02  0.51100000000E-03 0.  1.
         11   -1    0    0    0    0 -0.00000000000E+00 -0.00000000000E+00 -0.45593999997E+02  0.45594000000E+02  0.51100000000E-03 0. -1.
    9900012    2    1    2    0    0 -0.22926756668E+02  0.27012299380E+02 -0.19946587897E+02  0.50528845338E+02  0.29999955890E+02 0.  0.
        -12    1    1    2    0    0  0.22926756668E+02 -0.27012299380E+02  0.19946587897E+02  0.40659154662E+02  0.00000000000E+00 0.  1.
         11    1    3    3    0    0 -0.11686013468E+02  0.10617244223E+02 -0.19239591836E+02  0.24888766140E+02  0.51100000000E-03 0. -1.
        -11    1    3    3    0    0 -0.10656067098E+02  0.59632921409E+01 -0.63520267110E+01  0.13764478296E+02  0.51100000000E-03 0.  1.
        -12    1    3    3    0    0 -0.58467610123E+00  0.10431763015E+02  0.56450306500E+01  0.11875600902E+02  0.00000000000E+00 0.  1.
</event>
<event>
 7    1  0.5487071E-013  0.5052886E+02  0.7816164E-02  0.1300439E+00
        -11   -1    0    0    0    0  0.00000000000E+00  0.00000000000E+00  0.45593999997E+02  0.45594000000E+02  0.51100000000E-03 0.  1.
         11   -1    0    0    0    0 -0.00000000000E+00 -0.00000000000E+00 -0.45593999997E+02  0.45594000000E+02  0.51100000000E-03 0. -1.
    9900012    2    1    2    0    0  0.23954347950E+02 -0.32552768717E+02  0.44353325498E+01  0.50528859433E+02  0.29999998731E+02 0.  0.
        -12    1    1    2    0    0 -0.23954347950E+02  0.32552768717E+02 -0.44353325498E+01  0.40659140567E+02  0.00000000000E+00 0.  1.
         11    1    3    3    0    0 -0.72597460260E+00 -0.53125419511E+01  0.51504065512E+00  0.53865952366E+01  0.51100000000E-03 0. -1.
        -11    1    3    3    0    0  0.10008565345E+02 -0.12206066005E+02  0.14666077199E+02  0.21546536804E+02  0.51100000000E-03 0.  1.
         12    1    3    3    0    0  0.14671757208E+02 -0.15034160761E+02 -0.10745785304E+02  0.23595727392E+02  0.00000000000E+00 0. -1.
</event>
<event>
 7    1  0.5487071E-013  0.5052886E+02  0.7816164E-02  0.1300439E+00
        -11   -1    0    0    0    0  0.00000000000E+00  0.00000000000E+00  0.45593999997E+02  0.45594000000E+02  0.51100000000E-03 0. -1.
         11   -1    0    0    0    0 -0.00000000000E+00 -0.00000000000E+00 -0.45593999997E+02  0.45594000000E+02  0.51100000000E-03 0.  1.
    9900012    2    1    2    0    0  0.40581254374E+02 -0.76791202054E+00  0.23954025336E+01  0.50528857747E+02  0.29999993609E+02 0.  0.
        -12    1    1    2    0    0 -0.40581254374E+02  0.76791202054E+00 -0.23954025336E+01  0.40659142253E+02  0.00000000000E+00 0.  1.
         11    1    3    3    0    0  0.95999958977E+01 -0.12202961434E+02  0.55401620190E+01  0.16485314205E+02  0.51100000000E-03 0. -1.
        -11    1    3    3    0    0  0.54946378826E+00 -0.32457931951E+00 -0.12019527360E+01  0.13608647361E+01  0.51100000000E-03 0.  1.
        -12    1    3    3    0    0  0.30431794688E+02  0.11759628733E+02 -0.19428067494E+01  0.32682678806E+02  0.00000000000E+00 0.  1.
</event>
<event>
 7    1  0.5487071E-013  0.5052885E+02  0.7816164E-02  0.1300439E+00
        -11   -1    0    0    0    0  0.00000000000E+00  0.00000000000E+00  0.45593999997E+02  0.45594000000E+02  0.51100000000E-03 0.  1.
         11   -1    0    0    0    0 -0.00000000000E+00 -0.00000000000E+00 -0.45593999997E+02  0.45594000000E+02  0.51100000000E-03 0. -1.
    9900012    2    1    2    0    0 -0.97934381565E+01  0.21290013591E+01 -0.39404596391E+02  0.50528852266E+02  0.29999976948E+02 0.  0.
        -12    1    1    2    0    0  0.97934381565E+01 -0.21290013591E+01  0.39404596391E+02  0.40659147734E+02  0.00000000000E+00 0.  1.
         11    1    3    3    0    0 -0.91075843740E+01  0.97580359261E+00 -0.25734603530E+02  0.27316114381E+02  0.51100000000E-03 0. -1.
        -11    1    3    3    0    0  0.56949201579E+00 -0.62325966296E+00 -0.18183139725E+02  0.18202729034E+02  0.51100000000E-03 0.  1.
        -12    1    3    3    0    0 -0.12553457983E+01  0.17764574295E+01  0.45131468638E+01  0.50100088509E+01  0.00000000000E+00 0.  1.
</event>
<event>
 7    1  0.5487071E-013  0.5052886E+02  0.7816164E-02  0.1300439E+00
        -11   -1    0    0    0    0  0.00000000000E+00  0.00000000000E+00  0.45593999997E+02  0.45594000000E+02  0.51100000000E-03 0. -1.
         11   -1    0    0    0    0 -0.00000000000E+00 -0.00000000000E+00 -0.45593999997E+02  0.45594000000E+02  0.51100000000E-03 0.  1.
    9900012    2    1    2    0    0 -0.53850230658E+01 -0.37508833094E+02  0.14739564374E+02  0.50528858452E+02  0.29999995751E+02 0.  0.
        -12    1    1    2    0    0  0.53850230658E+01  0.37508833094E+02 -0.14739564374E+02  0.40659141548E+02  0.00000000000E+00 0.  1.
         11    1    3    3    0    0 -0.21743827692E-01 -0.18192840254E+02  0.40725799776E+01  0.18643117154E+02  0.51100000000E-03 0. -1.
        -11    1    3    3    0    0  0.73588590413E+01 -0.29954792596E+01 -0.11937498034E+01  0.80343475926E+01  0.51100000000E-03 0.  1.
        -12    1    3    3    0    0 -0.12722138279E+02 -0.16320513580E+02  0.11860734200E+02  0.23851393705E+02  0.00000000000E+00 0.  1.
</event>
<event>
 7    1  0.5487071E-013  0.5052886E+02  0.7816164E-02  0.1300439E+00
        -11   -1    0    0    0    0  0.00000000000E+00  0.00000000000E+00  0.45593999997E+02  0.45594000000E+02  0.51100000000E-03 0.  1.
         11   -1    0    0    0    0 -0.00000000000E+00 -0.00000000000E+00 -0.45593999997E+02  0.45594000000E+02  0.51100000000E-03 0. -1.
    9900012    2    1    2    0    0 -0.28459480562E+02 -0.22036045012E+02  0.18911266170E+02  0.50528864473E+02  0.30000014053E+02 0.  0.
        -12    1    1    2    0    0  0.28459480562E+02  0.22036045012E+02 -0.18911266170E+02  0.40659135527E+02  0.00000000000E+00 0.  1.
         11    1    3    3    0    0 -0.84151591309E+01 -0.19503774942E+02  0.17557079856E+02  0.27558359776E+02  0.51100000000E-03 0. -1.
        -11    1    3    3    0    0 -0.75220208410E+01  0.28618232112E+01  0.41456360690E+01  0.90530176351E+01  0.51100000000E-03 0.  1.
        -12    1    3    3    0    0 -0.12522300590E+02 -0.53940932813E+01 -0.27914497551E+01  0.13917487062E+02  0.00000000000E+00 0.  1.
</event>
<event>
 7    1  0.5487071E-013  0.5052888E+02  0.7816164E-02  0.1300439E+00
        -11   -1    0    0    0    0  0.00000000000E+00  0.00000000000E+00  0.45593999997E+02  0.45594000000E+02  0.51100000000E-03 0.  1.
         11   -1    0    0    0    0 -0.00000000000E+00 -0.00000000000E+00 -0.45593999997E+02  0.45594000000E+02  0.51100000000E-03 0. -1.
    9900012    2    1    2    0    0 -0.15064614242E+02  0.37637322693E+02 -0.31070321429E+01  0.50528876663E+02  0.30000051106E+02 0.  0.
        -12    1    1    2    0    0  0.15064614242E+02 -0.37637322693E+02  0.31070321429E+01  0.40659123337E+02  0.00000000000E+00 0.  1.
         11    1    3    3    0    0 -0.56452095678E+01  0.82969888686E+01  0.36004395786E+01  0.10661687520E+02  0.51100000000E-03 0. -1.
        -11    1    3    3    0    0 -0.53901198405E+01  0.25868531761E+02  0.51048186819E+01  0.26912701488E+02  0.51100000000E-03 0.  1.
        -12    1    3    3    0    0 -0.40292848339E+01  0.34718020636E+01 -0.11812290403E+02  0.12954487655E+02  0.00000000000E+00 0.  1.
</event>
<event>
 7    1  0.5487071E-013  0.5052886E+02  0.7816164E-02  0.1300439E+00
        -11   -1    0    0    0    0  0.00000000000E+00  0.00000000000E+00  0.45593999997E+02  0.45594000000E+02  0.51100000000E-03 0.  1.
         11   -1    0    0    0    0 -0.00000000000E+00 -0.00000000000E+00 -0.45593999997E+02  0.45594000000E+02  0.51100000000E-03 0. -1.
    9900012    2    1    2    0    0  0.25771364036E+02 -0.31329724046E+02 -0.27296220548E+01  0.50528860196E+02  0.30000001050E+02 0.  0.
        -12    1    1    2    0    0 -0.25771364036E+02  0.31329724046E+02  0.27296220548E+01  0.40659139804E+02  0.00000000000E+00 0.  1.
         11    1    3    3    0    0  0.10182397259E+01 -0.99898319591E+00  0.47730189537E+01  0.49816151757E+01  0.51100000000E-03 0. -1.
        -11    1    3    3    0    0  0.11569517333E+02 -0.71321412544E+01  0.68815693861E+01  0.15234079154E+02  0.51100000000E-03 0.  1.
         12    1    3    3    0    0  0.13183606977E+02 -0.23198599596E+02 -0.14384210395E+02  0.30313165866E+02  0.00000000000E+00 0. -1.
</event>
<event>
 7    1  0.5487071E-013  0.5052886E+02  0.7816164E-02  0.1300439E+00
        -11   -1    0    0    0    0  0.00000000000E+00  0.00000000000E+00  0.45593999997E+02  0.45594000000E+02  0.51100000000E-03 0.  1.
         11   -1    0    0    0    0 -0.00000000000E+00 -0.00000000000E+00 -0.45593999997E+02  0.45594000000E+02  0.51100000000E-03 0. -1.
    9900012    2    1    2    0    0  0.34767735161E+02 -0.21014689186E+02  0.16593157332E+01  0.50528857135E+02  0.29999991747E+02 0.  0.
        -12    1    1    2    0    0 -0.34767735161E+02  0.21014689186E+02 -0.16593157332E+01  0.40659142865E+02  0.00000000000E+00 0.  1.
         11    1    3    3    0    0  0.94944595927E+01 -0.11032016035E+00  0.41624886733E+01  0.10367412682E+02  0.51100000000E-03 0. -1.
        -11    1    3    3    0    0  0.15289133628E+02  0.63670650575E+00 -0.54345874882E+01  0.16238772851E+02  0.51100000000E-03 0.  1.
        -12    1    3    3    0    0  0.99841419404E+01 -0.21541075532E+02  0.29314145481E+01  0.23922671603E+02  0.00000000000E+00 0.  1.
</event>
<event>
 7    1  0.5487071E-013  0.5052888E+02  0.7816164E-02  0.1300439E+00
        -11   -1    0    0    0    0  0.00000000000E+00  0.00000000000E+00  0.45593999997E+02  0.45594000000E+02  0.51100000000E-03 0. -1.
         11   -1    0    0    0    0 -0.00000000000E+00 -0.00000000000E+00 -0.45593999997E+02  0.45594000000E+02  0.51100000000E-03 0.  1.
    9900012    2    1    2    0    0  0.29613598551E+02  0.27745303660E+02  0.25292956970E+01  0.50528875181E+02  0.30000046599E+02 0.  0.
        -12    1    1    2    0    0 -0.29613598551E+02 -0.27745303660E+02 -0.25292956970E+01  0.40659124819E+02  0.00000000000E+00 0.  1.
         11    1    3    3    0    0  0.15769372911E+01  0.11382989528E+02  0.46253877134E+01  0.12387630668E+02  0.51100000000E-03 0. -1.
        -11    1    3    3    0    0  0.35527326226E+01  0.12383700452E+02  0.18794100340E+01  0.13019605536E+02  0.51100000000E-03 0.  1.
         12    1    3    3    0    0  0.24483928637E+02  0.39786136810E+01 -0.39755020505E+01  0.25121638977E+02  0.00000000000E+00 0. -1.
</event>
<event>
 7    1  0.5487071E-013  0.5052886E+02  0.7816164E-02  0.1300439E+00
        -11   -1    0    0    0    0  0.00000000000E+00  0.00000000000E+00  0.45593999997E+02  0.45594000000E+02  0.51100000000E-03 0. -1.
         11   -1    0    0    0    0 -0.00000000000E+00 -0.00000000000E+00 -0.45593999997E+02  0.45594000000E+02  0.51100000000E-03 0.  1.
    9900012    2    1    2    0    0  0.35798909307E+02 -0.15504954007E+02  0.11454270141E+02  0.50528858214E+02  0.29999995028E+02 0.  0.
        -12    1    1    2    0    0 -0.35798909307E+02  0.15504954007E+02 -0.11454270141E+02  0.40659141786E+02  0.00000000000E+00 0.  1.
         11    1    3    3    0    0  0.15039830728E+01  0.20746157138E-01 -0.33756163631E+01  0.36955624170E+01  0.51100000000E-03 0. -1.
        -11    1    3    3    0    0  0.54928680560E+01 -0.12211397388E+02 -0.16394328465E+01  0.13489906077E+02  0.51100000000E-03 0.  1.
         12    1    3    3    0    0  0.28802058178E+02 -0.33143027761E+01  0.16469319351E+02  0.33343389720E+02  0.00000000000E+00 0. -1.
</event>
<event>
 7    1  0.7359051E-013  0.5052885E+02  0.7816164E-02  0.1300439E+00
        -11   -1    0    0    0    0  0.00000000000E+00  0.00000000000E+00  0.45593999997E+02  0.45594000000E+02  0.51100000000E-03 0.  1.
         11   -1    0    0    0    0 -0.00000000000E+00 -0.00000000000E+00 -0.45593999997E+02  0.45594000000E+02  0.51100000000E-03 0. -1.
    9900012    2    1    2    0    0  0.11710703278E+02 -0.38465299137E+02  0.60370881482E+01  0.50528852908E+02  0.29999978899E+02 0.  0.
        -12    1    1    2    0    0 -0.11710703278E+02  0.38465299137E+02 -0.60370881482E+01  0.40659147092E+02  0.00000000000E+00 0.  1.
         11    1    3    3    0    0  0.10112066146E+01 -0.13447735942E+02  0.99075440070E+01  0.16733904783E+02  0.51100000000E-03 0. -1.
        -11    1    3    3    0    0 -0.52508168086E+01 -0.51665735246E+01 -0.38885384170E+01  0.83297833360E+01  0.51100000000E-03 0.  1.
         12    1    3    3    0    0  0.15950313472E+02 -0.19850989670E+02  0.18082558131E-01  0.25465164788E+02  0.00000000000E+00 0. -1.
</event>
<event>
 7    1  0.5487071E-013  0.5052887E+02  0.7816164E-02  0.1300439E+00
        -11   -1    0    0    0    0  0.00000000000E+00  0.00000000000E+00  0.45593999997E+02  0.45594000000E+02  0.51100000000E-03 0.  1.
         11   -1    0    0    0    0 -0.00000000000E+00 -0.00000000000E+00 -0.45593999997E+02  0.45594000000E+02  0.51100000000E-03 0. -1.
    9900012    2    1    2    0    0 -0.36818695299E+02 -0.79788150166E+01  0.15293368049E+02  0.50528869183E+02  0.30000028367E+02 0.  0.
        -12    1    1    2    0    0  0.36818695299E+02  0.79788150166E+01 -0.15293368049E+02  0.40659130817E+02  0.00000000000E+00 0.  1.
         11    1    3    3    0    0 -0.17914862017E+02 -0.10057099747E+02  0.36738006741E+01  0.20870657585E+02  0.51100000000E-03 0. -1.
        -11    1    3    3    0    0 -0.14653843576E+02 -0.63644420731E+01  0.18806139427E+01  0.16086577122E+02  0.51100000000E-03 0.  1.
        -12    1    3    3    0    0 -0.42499897060E+01  0.84427268031E+01  0.97389534318E+01  0.13571634475E+02  0.00000000000E+00 0.  1.
</event>
<event>
 7    1  0.5487071E-013  0.5052886E+02  0.7816164E-02  0.1300439E+00
        -11   -1    0    0    0    0  0.00000000000E+00  0.00000000000E+00  0.45593999997E+02  0.45594000000E+02  0.51100000000E-03 0. -1.
         11   -1    0    0    0    0 -0.00000000000E+00 -0.00000000000E+00 -0.45593999997E+02  0.45594000000E+02  0.51100000000E-03 0.  1.
    9900012    2    1    2    0    0  0.59058289904E+01  0.38199423743E+02  0.12613123813E+02  0.50528859789E+02  0.29999999815E+02 0.  0.
        -12    1    1    2    0    0 -0.59058289904E+01 -0.38199423743E+02 -0.12613123813E+02  0.40659140211E+02  0.00000000000E+00 0.  1.
         11    1    3    3    0    0 -0.26625924813E+01  0.66059109290E+01 -0.33504780900E+01  0.78710330717E+01  0.51100000000E-03 0. -1.
        -11    1    3    3    0    0  0.61540135072E+00  0.15295484692E+02 -0.38635707244E+01  0.15787898840E+02  0.51100000000E-03 0.  1.
        -12    1    3    3    0    0  0.79530201209E+01  0.16298028123E+02  0.19827172628E+02  0.26869927878E+02  0.00000000000E+00 0.  1.
</event>
<event>
 7    1  0.5487071E-013  0.5052885E+02  0.7816164E-02  0.1300439E+00
        -11   -1    0    0    0    0  0.00000000000E+00  0.00000000000E+00  0.45593999997E+02  0.45594000000E+02  0.51100000000E-03 0.  1.
         11   -1    0    0    0    0 -0.00000000000E+00 -0.00000000000E+00 -0.45593999997E+02  0.45594000000E+02  0.51100000000E-03 0. -1.
    9900012    2    1    2    0    0 -0.39956977126E+02  0.16399030981E+01  0.73428107987E+01  0.50528853752E+02  0.29999981464E+02 0.  0.
        -12    1    1    2    0    0  0.39956977126E+02 -0.16399030981E+01 -0.73428107987E+01  0.40659146248E+02  0.00000000000E+00 0.  1.
         11    1    3    3    0    0 -0.23289856580E+02 -0.58230831013E+01 -0.30423671923E+01  0.24198795728E+02  0.51100000000E-03 0. -1.
        -11    1    3    3    0    0 -0.83210703285E+01 -0.46143783692E+01  0.40969438618E+01  0.10359423170E+02  0.51100000000E-03 0.  1.
        -12    1    3    3    0    0 -0.83460502177E+01  0.12077364569E+02  0.62882341293E+01  0.15970634853E+02  0.00000000000E+00 0.  1.
</event>
<event>
 7    1  0.5487071E-013  0.5052886E+02  0.7816164E-02  0.1300439E+00
        -11   -1    0    0    0    0  0.00000000000E+00  0.00000000000E+00  0.45593999997E+02  0.45594000000E+02  0.51100000000E-03 0.  1.
         11   -1    0    0    0    0 -0.00000000000E+00 -0.00000000000E+00 -0.45593999997E+02  0.45594000000E+02  0.51100000000E-03 0. -1.
    9900012    2    1    2    0    0 -0.30593263207E+02 -0.23809116562E+02 -0.12261476577E+02  0.50528860892E+02  0.30000003168E+02 0.  0.
        -12    1    1    2    0    0  0.30593263207E+02  0.23809116562E+02  0.12261476577E+02  0.40659139108E+02  0.00000000000E+00 0.  1.
         11    1    3    3    0    0 -0.25187710718E+02 -0.22307234193E+02 -0.17664603898E+02  0.38000943405E+02  0.51100000000E-03 0. -1.
        -11    1    3    3    0    0 -0.66427512608E+01 -0.23456795269E+01  0.12965571757E+00  0.70459327007E+01  0.51100000000E-03 0.  1.
        -12    1    3    3    0    0  0.12371987715E+01  0.84379715782E+00  0.52734716036E+01  0.54819847864E+01  0.00000000000E+00 0.  1.
</event>
<event>
 7    1  0.5487071E-013  0.5052888E+02  0.7816164E-02  0.1300439E+00
        -11   -1    0    0    0    0  0.00000000000E+00  0.00000000000E+00  0.45593999997E+02  0.45594000000E+02  0.51100000000E-03 0.  1.
         11   -1    0    0    0    0 -0.00000000000E+00 -0.00000000000E+00 -0.45593999997E+02  0.45594000000E+02  0.51100000000E-03 0. -1.
    9900012    2    1    2    0    0  0.82627349593E-01 -0.12095690200E+02 -0.38818189286E+02  0.50528875954E+02  0.30000048951E+02 0.  0.
        -12    1    1    2    0    0 -0.82627349593E-01  0.12095690200E+02  0.38818189286E+02  0.40659124046E+02  0.00000000000E+00 0.  1.
         11    1    3    3    0    0 -0.33580821581E+01  0.14710140115E+01 -0.79209367905E+00  0.37507346827E+01  0.51100000000E-03 0.  1.
        -11    1    3    3    0    0  0.12786003556E+02 -0.74611134982E+01 -0.28447695392E+02  0.32069011131E+02  0.51100000000E-03 0. -1.
         12    1    3    3    0    0 -0.93452940481E+01 -0.61055907137E+01 -0.95784002153E+01  0.14709130141E+02  0.00000000000E+00 0. -1.
</event>
<event>
 7    1  0.5487071E-013  0.5052886E+02  0.7816164E-02  0.1300439E+00
        -11   -1    0    0    0    0  0.00000000000E+00  0.00000000000E+00  0.45593999997E+02  0.45594000000E+02  0.51100000000E-03 0.  1.
         11   -1    0    0    0    0 -0.00000000000E+00 -0.00000000000E+00 -0.45593999997E+02  0.45594000000E+02  0.51100000000E-03 0. -1.
    9900012    2    1    2    0    0 -0.25212317616E+02 -0.31048050429E+02  0.73159572098E+01  0.50528860500E+02  0.30000001976E+02 0.  0.
        -12    1    1    2    0    0  0.25212317616E+02  0.31048050429E+02 -0.73159572098E+01  0.40659139500E+02  0.00000000000E+00 0.  1.
         11    1    3    3    0    0 -0.27395965282E+02 -0.18260444849E+02  0.16330179279E+01  0.32964367241E+02  0.51100000000E-03 0. -1.
        -11    1    3    3    0    0 -0.24603748668E+01 -0.18875185678E+01 -0.17666749501E+01  0.35689370224E+01  0.51100000000E-03 0.  1.
        -12    1    3    3    0    0  0.46440225331E+01 -0.10900087012E+02  0.74496142321E+01  0.13995556236E+02  0.00000000000E+00 0.  1.
</event>
<event>
 7    1  0.5487071E-013  0.5052901E+02  0.7816164E-02  0.1300438E+00
        -11   -1    0    0    0    0  0.00000000000E+00  0.00000000000E+00  0.45593999997E+02  0.45594000000E+02  0.51100000000E-03 0.  1.
         11   -1    0    0    0    0 -0.00000000000E+00 -0.00000000000E+00 -0.45593999997E+02  0.45594000000E+02  0.51100000000E-03 0. -1.
    9900012    2    1    2    0    0  0.10495794291E+02 -0.28556881658E+02 -0.26972145189E+02  0.50529005867E+02  0.30000443829E+02 0.  0.
        -12    1    1    2    0    0 -0.10495794291E+02  0.28556881658E+02  0.26972145189E+02  0.40658994133E+02  0.00000000000E+00 0.  1.
         11    1    3    3    0    0  0.11355385115E+02 -0.35444817532E+01 -0.14954852098E+02  0.19109048211E+02  0.51100000000E-03 0. -1.
        -11    1    3    3    0    0  0.72805134506E+00  0.18878522919E+01 -0.34082739777E+00  0.20518792882E+01  0.51100000000E-03 0.  1.
         12    1    3    3    0    0 -0.15876421690E+01 -0.26900252196E+02 -0.11676465694E+02  0.29368078367E+02  0.00000000000E+00 0. -1.
</event>
<event>
 7    1  0.5487071E-013  0.5052887E+02  0.7816164E-02  0.1300439E+00
        -11   -1    0    0    0    0  0.00000000000E+00  0.00000000000E+00  0.45593999997E+02  0.45594000000E+02  0.51100000000E-03 0. -1.
         11   -1    0    0    0    0 -0.00000000000E+00 -0.00000000000E+00 -0.45593999997E+02  0.45594000000E+02  0.51100000000E-03 0.  1.
    9900012    2    1    2    0    0  0.33682016705E+02  0.77386058184E+01 -0.21419639457E+02  0.50528865432E+02  0.30000016966E+02 0.  0.
        -12    1    1    2    0    0 -0.33682016705E+02 -0.77386058184E+01  0.21419639457E+02  0.40659134568E+02  0.00000000000E+00 0.  1.
         11    1    3    3    0    0  0.10715247914E+02  0.58304643974E+01 -0.18333494649E+02  0.22021078068E+02  0.51100000000E-03 0. -1.
        -11    1    3    3    0    0  0.43821506198E+01  0.73237125047E+01 -0.32962355594E+01  0.91490533953E+01  0.51100000000E-03 0.  1.
         12    1    3    3    0    0  0.18584618171E+02 -0.54155710837E+01  0.21009075139E+00  0.19358733968E+02  0.00000000000E+00 0. -1.
</event>
<event>
 7    1  0.5487071E-013  0.5052888E+02  0.7816164E-02  0.1300439E+00
        -11   -1    0    0    0    0  0.00000000000E+00  0.00000000000E+00  0.45593999997E+02  0.45594000000E+02  0.51100000000E-03 0.  1.
         11   -1    0    0    0    0 -0.00000000000E+00 -0.00000000000E+00 -0.45593999997E+02  0.45594000000E+02  0.51100000000E-03 0. -1.
    9900012    2    1    2    0    0 -0.11388183461E+02  0.38744844177E+02 -0.47233936400E+01  0.50528879002E+02  0.30000058215E+02 0.  0.
        -12    1    1    2    0    0  0.11388183461E+02 -0.38744844177E+02  0.47233936400E+01  0.40659120998E+02  0.00000000000E+00 0.  1.
         11    1    3    3    0    0 -0.69127698611E+01  0.13540242164E+01 -0.55018996920E+01  0.89381580436E+01  0.51100000000E-03 0. -1.
        -11    1    3    3    0    0 -0.66438280912E+01  0.35416239918E+01 -0.11557152987E+01  0.76170355334E+01  0.51100000000E-03 0.  1.
        -12    1    3    3    0    0  0.21684144916E+01  0.33849195969E+02  0.19342213506E+01  0.33973685425E+02  0.00000000000E+00 0.  1.
</event>
<event>
 7    1  0.5487071E-013  0.5052882E+02  0.7816164E-02  0.1300439E+00
        -11   -1    0    0    0    0  0.00000000000E+00  0.00000000000E+00  0.45593999997E+02  0.45594000000E+02  0.51100000000E-03 0.  1.
         11   -1    0    0    0    0 -0.00000000000E+00 -0.00000000000E+00 -0.45593999997E+02  0.45594000000E+02  0.51100000000E-03 0. -1.
    9900012    2    1    2    0    0  0.34509329253E+01  0.62705480464E+01 -0.40024241036E+02  0.50528824144E+02  0.29999891466E+02 0.  0.
        -12    1    1    2    0    0 -0.34509329253E+01 -0.62705480464E+01  0.40024241036E+02  0.40659175856E+02  0.00000000000E+00 0.  1.
         11    1    3    3    0    0  0.30011948577E+00  0.64544753020E+01 -0.13391844760E+02  0.14869156985E+02  0.51100000000E-03 0. -1.
        -11    1    3    3    0    0  0.36648258746E+01  0.41941178545E+01 -0.29745913855E+02  0.30262864448E+02  0.51100000000E-03 0.  1.
        -12    1    3    3    0    0 -0.51401243509E+00 -0.43780451101E+01  0.31135175795E+01  0.53968027097E+01  0.00000000000E+00 0.  1.
</event>
<event>
 7    1  0.5487071E-013  0.5052886E+02  0.7816164E-02  0.1300439E+00
        -11   -1    0    0    0    0  0.00000000000E+00  0.00000000000E+00  0.45593999997E+02  0.45594000000E+02  0.51100000000E-03 0.  1.
         11   -1    0    0    0    0 -0.00000000000E+00 -0.00000000000E+00 -0.45593999997E+02  0.45594000000E+02  0.51100000000E-03 0. -1.
    9900012    2    1    2    0    0  0.94782086325E+01  0.78698622450E+01 -0.38747828442E+02  0.50528863517E+02  0.30000011145E+02 0.  0.
        -12    1    1    2    0    0 -0.94782086325E+01 -0.78698622450E+01  0.38747828442E+02  0.40659136483E+02  0.00000000000E+00 0.  1.
         11    1    3    3    0    0 -0.40681522469E+01 -0.24724247924E+01 -0.27055243545E+02  0.27470874588E+02  0.51100000000E-03 0. -1.
        -11    1    3    3    0    0 -0.14065567134E+01  0.26224786248E+01 -0.24762192869E+01  0.38713638609E+01  0.51100000000E-03 0.  1.
        -12    1    3    3    0    0  0.14952917593E+02  0.77198084125E+01 -0.92163656096E+01  0.19186625068E+02  0.00000000000E+00 0.  1.
</event>
<event>
 7    1  0.5487071E-013  0.5052886E+02  0.7816164E-02  0.1300439E+00
        -11   -1    0    0    0    0  0.00000000000E+00  0.00000000000E+00  0.45593999997E+02  0.45594000000E+02  0.51100000000E-03 0.  1.
         11   -1    0    0    0    0 -0.00000000000E+00 -0.00000000000E+00 -0.45593999997E+02  0.45594000000E+02  0.51100000000E-03 0. -1.
    9900012    2    1    2    0    0  0.35877224086E+02 -0.19119229275E+02 -0.66777604245E+00  0.50528855136E+02  0.29999985672E+02 0.  0.
        -12    1    1    2    0    0 -0.35877224086E+02  0.19119229275E+02  0.66777604245E+00  0.40659144864E+02  0.00000000000E+00 0.  1.
         11    1    3    3    0    0 -0.25249861909E+01 -0.18843864640E+01 -0.51235388946E+01  0.60147417796E+01  0.51100000000E-03 0. -1.
        -11    1    3    3    0    0  0.14561912257E+02 -0.27681722875E+01  0.72266770716E+01  0.16490510246E+02  0.51100000000E-03 0.  1.
        -12    1    3    3    0    0  0.23840298020E+02 -0.14466670524E+02 -0.27709142194E+01  0.28023603111E+02  0.00000000000E+00 0.  1.
</event>
<event>
 7    1  0.5487071E-013  0.5052886E+02  0.7816164E-02  0.1300439E+00
        -11   -1    0    0    0    0  0.00000000000E+00  0.00000000000E+00  0.45593999997E+02  0.45594000000E+02  0.51100000000E-03 0.  1.
         11   -1    0    0    0    0 -0.00000000000E+00 -0.00000000000E+00 -0.45593999997E+02  0.45594000000E+02  0.51100000000E-03 0. -1.
    9900012    2    1    2    0    0  0.84216522654E+01  0.21890859918E+02 -0.33211926840E+02  0.50528855158E+02  0.29999985739E+02 0.  0.
        -12    1    1    2    0    0 -0.84216522654E+01 -0.21890859918E+02  0.33211926840E+02  0.40659144842E+02  0.00000000000E+00 0.  1.
         11    1    3    3    0    0  0.85244498651E+01  0.16271244114E+02 -0.18024644640E+02  0.25735334565E+02  0.51100000000E-03 0. -1.
        -11    1    3    3    0    0  0.49035742832E+01  0.18212770504E+01  0.26627421113E+01  0.58696070275E+01  0.51100000000E-03 0.  1.
         12    1    3    3    0    0 -0.50063718829E+01  0.37983387541E+01 -0.17850024311E+02  0.18923913565E+02  0.00000000000E+00 0. -1.
</event>
<event>
 7    1  0.5487071E-013  0.5052886E+02  0.7816164E-02  0.1300439E+00
        -11   -1    0    0    0    0  0.00000000000E+00  0.00000000000E+00  0.45593999997E+02  0.45594000000E+02  0.51100000000E-03 0.  1.
         11   -1    0    0    0    0 -0.00000000000E+00 -0.00000000000E+00 -0.45593999997E+02  0.45594000000E+02  0.51100000000E-03 0. -1.
    9900012    2    1    2    0    0  0.24340775125E+02 -0.24545514889E+02 -0.21405848770E+02  0.50528855931E+02  0.29999988089E+02 0.  0.
        -12    1    1    2    0    0 -0.24340775125E+02  0.24545514889E+02  0.21405848770E+02  0.40659144069E+02  0.00000000000E+00 0.  1.
         11    1    3    3    0    0  0.10725223250E+02 -0.65854111247E+01 -0.10079511665E+02  0.16124348331E+02  0.51100000000E-03 0. -1.
        -11    1    3    3    0    0  0.18795160576E+02 -0.84094316939E+01 -0.32022542785E+01  0.20838210941E+02  0.51100000000E-03 0.  1.
        -12    1    3    3    0    0 -0.51796087006E+01 -0.95506720708E+01 -0.81240828256E+01  0.13566296659E+02  0.00000000000E+00 0.  1.
</event>
<event>
 7    1  0.5487071E-013  0.5052884E+02  0.7816164E-02  0.1300439E+00
        -11   -1    0    0    0    0  0.00000000000E+00  0.00000000000E+00  0.45593999997E+02  0.45594000000E+02  0.51100000000E-03 0.  1.
         11   -1    0    0    0    0 -0.00000000000E+00 -0.00000000000E+00 -0.45593999997E+02  0.45594000000E+02  0.51100000000E-03 0. -1.
    9900012    2    1    2    0    0 -0.35678090039E+02  0.26499695948E+01 -0.19318870097E+02  0.50528841259E+02  0.29999943490E+02 0.  0.
        -12    1    1    2    0    0  0.35678090039E+02 -0.26499695948E+01  0.19318870097E+02  0.40659158741E+02  0.00000000000E+00 0.  1.
         11    1    3    3    0    0 -0.17299295545E+00 -0.36294620916E+01  0.30959622565E+01  0.47736677923E+01  0.51100000000E-03 0. -1.
        -11    1    3    3    0    0  0.79277865052E-01 -0.26295027776E+01  0.23849359881E+00  0.26414861906E+01  0.51100000000E-03 0.  1.
         12    1    3    3    0    0 -0.35584374949E+02  0.89089344640E+01 -0.22653325953E+02  0.43113687276E+02  0.00000000000E+00 0. -1.
</event>
<event>
 7    1  0.5487071E-013  0.5052887E+02  0.7816164E-02  0.1300439E+00
        -11   -1    0    0    0    0  0.00000000000E+00  0.00000000000E+00  0.45593999997E+02  0.45594000000E+02  0.51100000000E-03 0.  1.
         11   -1    0    0    0    0 -0.00000000000E+00 -0.00000000000E+00 -0.45593999997E+02  0.45594000000E+02  0.51100000000E-03 0. -1.
    9900012    2    1    2    0    0 -0.15407579609E+02  0.32544716413E+02 -0.18884192165E+02  0.50528870773E+02  0.30000033200E+02 0.  0.
        -12    1    1    2    0    0  0.15407579609E+02 -0.32544716413E+02  0.18884192165E+02  0.40659129227E+02  0.00000000000E+00 0.  1.
         11    1    3    3    0    0 -0.19328633136E+02  0.32864032226E+02 -0.20579944532E+02  0.43326375227E+02  0.51100000000E-03 0. -1.
        -11    1    3    3    0    0  0.69129696148E+00  0.22683448252E+01 -0.63218672765E+00  0.24541678946E+01  0.51100000000E-03 0.  1.
         12    1    3    3    0    0  0.32297565659E+01 -0.25876606380E+01  0.23279390954E+01  0.47483276513E+01  0.00000000000E+00 0. -1.
</event>
<event>
 7    1  0.5487071E-013  0.5052887E+02  0.7816164E-02  0.1300439E+00
        -11   -1    0    0    0    0  0.00000000000E+00  0.00000000000E+00  0.45593999997E+02  0.45594000000E+02  0.51100000000E-03 0.  1.
         11   -1    0    0    0    0 -0.00000000000E+00 -0.00000000000E+00 -0.45593999997E+02  0.45594000000E+02  0.51100000000E-03 0. -1.
    9900012    2    1    2    0    0 -0.21133147122E+01 -0.32451210250E+02 -0.24405287646E+02  0.50528865591E+02  0.30000017452E+02 0.  0.
        -12    1    1    2    0    0  0.21133147122E+01  0.32451210250E+02  0.24405287646E+02  0.40659134409E+02  0.00000000000E+00 0.  1.
         11    1    3    3    0    0 -0.69756480248E+01 -0.57965878084E+01 -0.97237395884E+00  0.91217107477E+01  0.51100000000E-03 0.  1.
        -11    1    3    3    0    0  0.78025140037E+00 -0.37671944024E+00  0.34715515176E+01  0.35780413616E+01  0.51100000000E-03 0. -1.
         12    1    3    3    0    0  0.40820819123E+01 -0.26277903002E+02 -0.26904465204E+02  0.37829113482E+02  0.00000000000E+00 0. -1.
</event>
<event>
 7    1  0.5487071E-013  0.5052887E+02  0.7816164E-02  0.1300439E+00
        -11   -1    0    0    0    0  0.00000000000E+00  0.00000000000E+00  0.45593999997E+02  0.45594000000E+02  0.51100000000E-03 0.  1.
         11   -1    0    0    0    0 -0.00000000000E+00 -0.00000000000E+00 -0.45593999997E+02  0.45594000000E+02  0.51100000000E-03 0. -1.
    9900012    2    1    2    0    0 -0.27800288993E+01 -0.32166926766E+02 -0.24712851662E+02  0.50528870945E+02  0.30000033724E+02 0.  0.
        -12    1    1    2    0    0  0.27800288993E+01  0.32166926766E+02  0.24712851662E+02  0.40659129055E+02  0.00000000000E+00 0.  1.
         11    1    3    3    0    0  0.31906380181E+00 -0.22520144924E+02 -0.18256574040E+02  0.28992433928E+02  0.51100000000E-03 0. -1.
        -11    1    3    3    0    0  0.98307797530E+00 -0.10791534399E+02 -0.10917284651E+02  0.15382157242E+02  0.51100000000E-03 0.  1.
        -12    1    3    3    0    0 -0.40821706764E+01  0.11447525576E+01  0.44610070284E+01  0.61542797756E+01  0.00000000000E+00 0.  1.
</event>
<event>
 7    1  0.5487071E-013  0.5052886E+02  0.7816164E-02  0.1300439E+00
        -11   -1    0    0    0    0  0.00000000000E+00  0.00000000000E+00  0.45593999997E+02  0.45594000000E+02  0.51100000000E-03 0. -1.
         11   -1    0    0    0    0 -0.00000000000E+00 -0.00000000000E+00 -0.45593999997E+02  0.45594000000E+02  0.51100000000E-03 0.  1.
    9900012    2    1    2    0    0 -0.39275841817E+02  0.65178366817E+01  0.82517602402E+01  0.50528862128E+02  0.30000006925E+02 0.  0.
        -12    1    1    2    0    0  0.39275841817E+02 -0.65178366817E+01 -0.82517602402E+01  0.40659137872E+02  0.00000000000E+00 0.  1.
         11    1    3    3    0    0 -0.18415368697E+02 -0.80694024103E+00  0.72973500207E+01  0.19824940715E+02  0.51100000000E-03 0. -1.
        -11    1    3    3    0    0 -0.13975295046E+02 -0.27027621186E+01  0.83165181898E+01  0.16485698946E+02  0.51100000000E-03 0.  1.
        -12    1    3    3    0    0 -0.68851780746E+01  0.10027539041E+02 -0.73621079703E+01  0.14218222467E+02  0.00000000000E+00 0.  1.
</event>
<event>
 7    1  0.5487071E-013  0.5052886E+02  0.7816164E-02  0.1300439E+00
        -11   -1    0    0    0    0  0.00000000000E+00  0.00000000000E+00  0.45593999997E+02  0.45594000000E+02  0.51100000000E-03 0.  1.
         11   -1    0    0    0    0 -0.00000000000E+00 -0.00000000000E+00 -0.45593999997E+02  0.45594000000E+02  0.51100000000E-03 0. -1.
    9900012    2    1    2    0    0  0.17178511607E+02  0.82091979795E+00 -0.36842777442E+02  0.50528863019E+02  0.30000009634E+02 0.  0.
        -12    1    1    2    0    0 -0.17178511607E+02 -0.82091979795E+00  0.36842777442E+02  0.40659136981E+02  0.00000000000E+00 0.  1.
         11    1    3    3    0    0  0.14826286270E+01 -0.36996538350E+00 -0.10270276974E+02  0.10383335274E+02  0.51100000000E-03 0. -1.
        -11    1    3    3    0    0 -0.47297626911E+01  0.70253524192E+01 -0.10600501281E+02  0.13568229781E+02  0.51100000000E-03 0.  1.
        -12    1    3    3    0    0  0.20425645671E+02 -0.58344672377E+01 -0.15971999187E+02  0.26577297964E+02  0.00000000000E+00 0.  1.
</event>
<event>
 7    1  0.5487071E-013  0.5052885E+02  0.7816164E-02  0.1300439E+00
        -11   -1    0    0    0    0  0.00000000000E+00  0.00000000000E+00  0.45593999997E+02  0.45594000000E+02  0.51100000000E-03 0.  1.
         11   -1    0    0    0    0 -0.00000000000E+00 -0.00000000000E+00 -0.45593999997E+02  0.45594000000E+02  0.51100000000E-03 0. -1.
    9900012    2    1    2    0    0  0.10329320181E+02 -0.39250940186E+02  0.24155945196E+01  0.50528852717E+02  0.29999978318E+02 0.  0.
        -12    1    1    2    0    0 -0.10329320181E+02  0.39250940186E+02 -0.24155945196E+01  0.40659147283E+02  0.00000000000E+00 0.  1.
         11    1    3    3    0    0  0.11143182630E+02 -0.30481446990E+02  0.33489945284E+01  0.32626751207E+02  0.51100000000E-03 0. -1.
        -11    1    3    3    0    0  0.53390671773E+01 -0.15627835372E+00 -0.42322015432E+01  0.68148067772E+01  0.51100000000E-03 0.  1.
        -12    1    3    3    0    0 -0.61529296267E+01 -0.86132148431E+01  0.32988015345E+01  0.11087294733E+02  0.00000000000E+00 0.  1.
</event>
<event>
 7    1  0.5487071E-013  0.5052885E+02  0.7816164E-02  0.1300439E+00
        -11   -1    0    0    0    0  0.00000000000E+00  0.00000000000E+00  0.45593999997E+02  0.45594000000E+02  0.51100000000E-03 0.  1.
         11   -1    0    0    0    0 -0.00000000000E+00 -0.00000000000E+00 -0.45593999997E+02  0.45594000000E+02  0.51100000000E-03 0. -1.
    9900012    2    1    2    0    0 -0.71320375594E+01 -0.33676236606E+02 -0.21638188590E+02  0.50528854938E+02  0.29999985071E+02 0.  0.
        -12    1    1    2    0    0  0.71320375594E+01  0.33676236606E+02  0.21638188590E+02  0.40659145062E+02  0.00000000000E+00 0.  1.
         11    1    3    3    0    0  0.86298151239E+00 -0.11089443351E+02  0.41189278949E+01  0.11861115385E+02  0.51100000000E-03 0. -1.
        -11    1    3    3    0    0  0.38693089084E+00  0.20046158908E+01 -0.50417194252E+01  0.54394057955E+01  0.51100000000E-03 0.  1.
         12    1    3    3    0    0 -0.83819499626E+01 -0.24591409146E+02 -0.20715397059E+02  0.33228333757E+02  0.00000000000E+00 0. -1.
</event>
<event>
 7    1  0.5487071E-013  0.5052886E+02  0.7816164E-02  0.1300439E+00
        -11   -1    0    0    0    0  0.00000000000E+00  0.00000000000E+00  0.45593999997E+02  0.45594000000E+02  0.51100000000E-03 0. -1.
         11   -1    0    0    0    0 -0.00000000000E+00 -0.00000000000E+00 -0.45593999997E+02  0.45594000000E+02  0.51100000000E-03 0.  1.
    9900012    2    1    2    0    0  0.17720303748E+02  0.88155199056E+01  0.35516794808E+02  0.50528864869E+02  0.30000015257E+02 0.  0.
        -12    1    1    2    0    0 -0.17720303748E+02 -0.88155199056E+01 -0.35516794808E+02  0.40659135131E+02  0.00000000000E+00 0.  1.
         11    1    3    3    0    0  0.12736053867E+01 -0.76845322175E+00  0.17132885778E+02  0.17197336025E+02  0.51100000000E-03 0. -1.
        -11    1    3    3    0    0 -0.27803673212E+01  0.37563632392E+01  0.10956783524E+02  0.11911834984E+02  0.51100000000E-03 0.  1.
         12    1    3    3    0    0  0.19227065683E+02  0.58276098881E+01  0.74271255063E+01  0.21419693860E+02  0.00000000000E+00 0. -1.
</event>
<event>
 7    1  0.5487071E-013  0.5052886E+02  0.7816164E-02  0.1300439E+00
        -11   -1    0    0    0    0  0.00000000000E+00  0.00000000000E+00  0.45593999997E+02  0.45594000000E+02  0.51100000000E-03 0. -1.
         11   -1    0    0    0    0 -0.00000000000E+00 -0.00000000000E+00 -0.45593999997E+02  0.45594000000E+02  0.51100000000E-03 0.  1.
    9900012    2    1    2    0    0  0.30968483742E+02  0.90093277803E+01 -0.24757839474E+02  0.50528860957E+02  0.30000003364E+02 0.  0.
        -12    1    1    2    0    0 -0.30968483742E+02 -0.90093277803E+01  0.24757839474E+02  0.40659139043E+02  0.00000000000E+00 0.  1.
         11    1    3    3    0    0  0.12982632538E+01  0.57068183813E+01 -0.41507594085E+01  0.71751005179E+01  0.51100000000E-03 0.  1.
        -11    1    3    3    0    0  0.11937591664E+02  0.12626710494E+02 -0.13815477045E+02  0.22199263927E+02  0.51100000000E-03 0. -1.
         12    1    3    3    0    0  0.17732628825E+02 -0.93242010952E+01 -0.67916030198E+01  0.21154496512E+02  0.00000000000E+00 0. -1.
</event>
<event>
 7    1  0.5487071E-013  0.5052886E+02  0.7816164E-02  0.1300439E+00
        -11   -1    0    0    0    0  0.00000000000E+00  0.00000000000E+00  0.45593999997E+02  0.45594000000E+02  0.51100000000E-03 0. -1.
         11   -1    0    0    0    0 -0.00000000000E+00 -0.00000000000E+00 -0.45593999997E+02  0.45594000000E+02  0.51100000000E-03 0.  1.
    9900012    2    1    2    0    0  0.39620625461E+02  0.88148710256E+01  0.23811597027E+01  0.50528857920E+02  0.29999994134E+02 0.  0.
        -12    1    1    2    0    0 -0.39620625461E+02 -0.88148710256E+01 -0.23811597027E+01  0.40659142080E+02  0.00000000000E+00 0.  1.
         11    1    3    3    0    0  0.21061117942E+02 -0.27014712892E+01  0.86267045921E+01  0.22919176872E+02  0.51100000000E-03 0. -1.
        -11    1    3    3    0    0 -0.69775433983E+00 -0.11781445835E+01  0.25743950701E+01  0.29158868319E+01  0.51100000000E-03 0.  1.
        -12    1    3    3    0    0  0.19257261859E+02  0.12694486898E+02 -0.88199399595E+01  0.24693794217E+02  0.00000000000E+00 0.  1.
</event>
<event>
 7    1  0.5487071E-013  0.5052886E+02  0.7816164E-02  0.1300439E+00
        -11   -1    0    0    0    0  0.00000000000E+00  0.00000000000E+00  0.45593999997E+02  0.45594000000E+02  0.51100000000E-03 0.  1.
         11   -1    0    0    0    0 -0.00000000000E+00 -0.00000000000E+00 -0.45593999997E+02  0.45594000000E+02  0.51100000000E-03 0. -1.
    9900012    2    1    2    0    0 -0.19484903344E+02 -0.22560365962E+00 -0.35685474505E+02  0.50528862700E+02  0.30000008663E+02 0.  0.
        -12    1    1    2    0    0  0.19484903344E+02  0.22560365962E+00  0.35685474505E+02  0.40659137300E+02  0.00000000000E+00 0.  1.
         11    1    3    3    0    0 -0.22059010719E+01 -0.98811313510E+00 -0.81042204628E+01  0.84569945417E+01  0.51100000000E-03 0.  1.
        -11    1    3    3    0    0  0.23533444127E+01 -0.93758313086E+01 -0.79764500023E+01  0.12532685169E+02  0.51100000000E-03 0. -1.
         12    1    3    3    0    0 -0.19632346685E+02  0.10138340784E+02 -0.19604804040E+02  0.29539182989E+02  0.00000000000E+00 0. -1.
</event>
<event>
 7    1  0.5487071E-013  0.5052886E+02  0.7816164E-02  0.1300439E+00
        -11   -1    0    0    0    0  0.00000000000E+00  0.00000000000E+00  0.45593999997E+02  0.45594000000E+02  0.51100000000E-03 0.  1.
         11   -1    0    0    0    0 -0.00000000000E+00 -0.00000000000E+00 -0.45593999997E+02  0.45594000000E+02  0.51100000000E-03 0. -1.
    9900012    2    1    2    0    0 -0.10284767018E+02  0.33139140341E+02 -0.21194019195E+02  0.50528861977E+02  0.30000006465E+02 0.  0.
        -12    1    1    2    0    0  0.10284767018E+02 -0.33139140341E+02  0.21194019195E+02  0.40659138023E+02  0.00000000000E+00 0.  1.
         11    1    3    3    0    0 -0.11045750877E+02  0.27784040181E+02 -0.11299461543E+02  0.31963093289E+02  0.51100000000E-03 0. -1.
        -11    1    3    3    0    0 -0.48884502922E+01  0.70900440865E+01 -0.92218477506E+01  0.12617771103E+02  0.51100000000E-03 0.  1.
         12    1    3    3    0    0  0.56494341511E+01 -0.17349439263E+01 -0.67270990117E+00  0.59479975846E+01  0.00000000000E+00 0. -1.
</event>
<event>
 7    1  0.5487071E-013  0.5052887E+02  0.7816164E-02  0.1300439E+00
        -11   -1    0    0    0    0  0.00000000000E+00  0.00000000000E+00  0.45593999997E+02  0.45594000000E+02  0.51100000000E-03 0.  1.
         11   -1    0    0    0    0 -0.00000000000E+00 -0.00000000000E+00 -0.45593999997E+02  0.45594000000E+02  0.51100000000E-03 0. -1.
    9900012    2    1    2    0    0 -0.58752491908E+01  0.40192441174E+02  0.17927368461E+01  0.50528870816E+02  0.30000033332E+02 0.  0.
        -12    1    1    2    0    0  0.58752491908E+01 -0.40192441174E+02 -0.17927368461E+01  0.40659129184E+02  0.00000000000E+00 0.  1.
         11    1    3    3    0    0 -0.10966842895E+02  0.10636160779E+02 -0.62886055117E+01  0.16521081041E+02  0.51100000000E-03 0. -1.
        -11    1    3    3    0    0 -0.40485115578E+01  0.33570991762E+01  0.79286972622E+00  0.53187595712E+01  0.51100000000E-03 0.  1.
        -12    1    3    3    0    0  0.91401052623E+01  0.26199181219E+02  0.72884726316E+01  0.28689030204E+02  0.00000000000E+00 0.  1.
</event>
<event>
 7    1  0.5487071E-013  0.5052886E+02  0.7816164E-02  0.1300439E+00
        -11   -1    0    0    0    0  0.00000000000E+00  0.00000000000E+00  0.45593999997E+02  0.45594000000E+02  0.51100000000E-03 0.  1.
         11   -1    0    0    0    0 -0.00000000000E+00 -0.00000000000E+00 -0.45593999997E+02  0.45594000000E+02  0.51100000000E-03 0. -1.
    9900012    2    1    2    0    0  0.50127616779E-01 -0.37957221612E+02 -0.14574379258E+02  0.50528859379E+02  0.29999998568E+02 0.  0.
        -12    1    1    2    0    0 -0.50127616779E-01  0.37957221612E+02  0.14574379258E+02  0.40659140621E+02  0.00000000000E+00 0.  1.
         11    1    3    3    0    0  0.61683611084E+01 -0.11225846728E+02 -0.92999375274E+01  0.15828997182E+02  0.51100000000E-03 0. -1.
        -11    1    3    3    0    0  0.56735302651E+01 -0.12471637727E+01  0.10830532547E+01  0.59090919572E+01  0.51100000000E-03 0.  1.
         12    1    3    3    0    0 -0.11791763757E+02 -0.25484211111E+02 -0.63574949856E+01  0.28790770239E+02  0.00000000000E+00 0. -1.
</event>
<event>
 7    1  0.5487071E-013  0.5052886E+02  0.7816164E-02  0.1300439E+00
        -11   -1    0    0    0    0  0.00000000000E+00  0.00000000000E+00  0.45593999997E+02  0.45594000000E+02  0.51100000000E-03 0.  1.
         11   -1    0    0    0    0 -0.00000000000E+00 -0.00000000000E+00 -0.45593999997E+02  0.45594000000E+02  0.51100000000E-03 0. -1.
    9900012    2    1    2    0    0 -0.27857162432E+02  0.15846915500E+01 -0.29574192681E+02  0.50528860574E+02  0.30000002202E+02 0.  0.
        -12    1    1    2    0    0  0.27857162432E+02 -0.15846915500E+01  0.29574192681E+02  0.40659139426E+02  0.00000000000E+00 0.  1.
         11    1    3    3    0    0  0.13114868111E+01 -0.16516724727E+00  0.57750749215E+00  0.14424954211E+01  0.51100000000E-03 0. -1.
        -11    1    3    3    0    0 -0.17699776702E+01  0.98902050736E+01 -0.62986568216E+01  0.11858417068E+02  0.51100000000E-03 0.  1.
         12    1    3    3    0    0 -0.27398671573E+02 -0.81403462764E+01 -0.23853043352E+02  0.37227948085E+02  0.00000000000E+00 0. -1.
</event>
<event>
 7    1  0.5487071E-013  0.5052886E+02  0.7816164E-02  0.1300439E+00
        -11   -1    0    0    0    0  0.00000000000E+00  0.00000000000E+00  0.45593999997E+02  0.45594000000E+02  0.51100000000E-03 0.  1.
         11   -1    0    0    0    0 -0.00000000000E+00 -0.00000000000E+00 -0.45593999997E+02  0.45594000000E+02  0.51100000000E-03 0. -1.
    9900012    2    1    2    0    0 -0.26011607909E+02  0.15977161228E+02 -0.26856887021E+02  0.50528858256E+02  0.29999995154E+02 0.  0.
        -12    1    1    2    0    0  0.26011607909E+02 -0.15977161228E+02  0.26856887021E+02  0.40659141744E+02  0.00000000000E+00 0.  1.
         11    1    3    3    0    0 -0.24709744360E+01  0.40637449393E+01  0.42635647110E+01  0.63873094415E+01  0.51100000000E-03 0. -1.
        -11    1    3    3    0    0 -0.14027208233E+01  0.58977878808E+01 -0.79164114852E+00  0.61137732674E+01  0.51100000000E-03 0.  1.
         12    1    3    3    0    0 -0.22137912649E+02  0.60156284082E+01 -0.30328810584E+02  0.38027775547E+02  0.00000000000E+00 0. -1.
</event>
<event>
 7    1  0.5487071E-013  0.5052884E+02  0.7816164E-02  0.1300439E+00
        -11   -1    0    0    0    0  0.00000000000E+00  0.00000000000E+00  0.45593999997E+02  0.45594000000E+02  0.51100000000E-03 0.  1.
         11   -1    0    0    0    0 -0.00000000000E+00 -0.00000000000E+00 -0.45593999997E+02  0.45594000000E+02  0.51100000000E-03 0. -1.
    9900012    2    1    2    0    0 -0.14630705863E+01  0.22700013946E+02 -0.33700686680E+02  0.50528837547E+02  0.29999932207E+02 0.  0.
        -12    1    1    2    0    0  0.14630705863E+01 -0.22700013946E+02  0.33700686680E+02  0.40659162453E+02  0.00000000000E+00 0.  1.
         11    1    3    3    0    0 -0.24830577037E+01 -0.53209758647E+00 -0.60238411660E+01  0.65372292338E+01  0.51100000000E-03 0. -1.
        -11    1    3    3    0    0  0.54554361424E+00  0.11370095439E+02  0.24204211183E+01  0.11637659849E+02  0.51100000000E-03 0.  1.
         12    1    3    3    0    0  0.47444350311E+00  0.11862016094E+02 -0.30097266633E+02  0.32353948464E+02  0.00000000000E+00 0. -1.
</event>
<event>
 7    1  0.5487071E-013  0.5052885E+02  0.7816164E-02  0.1300439E+00
        -11   -1    0    0    0    0  0.00000000000E+00  0.00000000000E+00  0.45593999997E+02  0.45594000000E+02  0.51100000000E-03 0.  1.
         11   -1    0    0    0    0 -0.00000000000E+00 -0.00000000000E+00 -0.45593999997E+02  0.45594000000E+02  0.51100000000E-03 0. -1.
    9900012    2    1    2    0    0 -0.43449887800E+01  0.13938721995E+02 -0.37947325855E+02  0.50528850502E+02  0.29999971585E+02 0.  0.
        -12    1    1    2    0    0  0.43449887800E+01 -0.13938721995E+02  0.37947325855E+02  0.40659149498E+02  0.00000000000E+00 0.  1.
         11    1    3    3    0    0  0.37315938180E+01 -0.61345894250E+00  0.73122177790E+00  0.38517281636E+01  0.51100000000E-03 0. -1.
        -11    1    3    3    0    0  0.20825756140E+01  0.81378024278E+00  0.17152993517E+01  0.28180865137E+01  0.51100000000E-03 0.  1.
         12    1    3    3    0    0 -0.10159158212E+02  0.13738400694E+02 -0.40393846985E+02  0.43859035825E+02  0.00000000000E+00 0. -1.
</event>
<event>
 7    1  0.5487071E-013  0.5052883E+02  0.7816164E-02  0.1300439E+00
        -11   -1    0    0    0    0  0.00000000000E+00  0.00000000000E+00  0.45593999997E+02  0.45594000000E+02  0.51100000000E-03 0.  1.
         11   -1    0    0    0    0 -0.00000000000E+00 -0.00000000000E+00 -0.45593999997E+02  0.45594000000E+02  0.51100000000E-03 0. -1.
    9900012    2    1    2    0    0  0.10569227286E+02  0.26164380236E+02 -0.29272598809E+02  0.50528826378E+02  0.29999898259E+02 0.  0.
        -12    1    1    2    0    0 -0.10569227286E+02 -0.26164380236E+02  0.29272598809E+02  0.40659173622E+02  0.00000000000E+00 0.  1.
         11    1    3    3    0    0  0.12996274695E+02  0.13452717836E+02 -0.24038769379E+02  0.30458844473E+02  0.51100000000E-03 0. -1.
        -11    1    3    3    0    0  0.60324059292E+01  0.58422792744E+01 -0.31868961588E+01  0.89821186700E+01  0.51100000000E-03 0.  1.
        -12    1    3    3    0    0 -0.84594533375E+01  0.68693831258E+01 -0.20469332713E+01  0.11087863235E+02  0.00000000000E+00 0.  1.
</event>
<event>
 7    1  0.5487071E-013  0.5052885E+02  0.7816164E-02  0.1300439E+00
        -11   -1    0    0    0    0  0.00000000000E+00  0.00000000000E+00  0.45593999997E+02  0.45594000000E+02  0.51100000000E-03 0. -1.
         11   -1    0    0    0    0 -0.00000000000E+00 -0.00000000000E+00 -0.45593999997E+02  0.45594000000E+02  0.51100000000E-03 0.  1.
    9900012    2    1    2    0    0  0.35202261807E+02  0.20084405526E+02  0.32532712877E+01  0.50528851513E+02  0.29999974658E+02 0.  0.
        -12    1    1    2    0    0 -0.35202261807E+02 -0.20084405526E+02 -0.32532712877E+01  0.40659148487E+02  0.00000000000E+00 0.  1.
         11    1    3    3    0    0 -0.66342998168E+00  0.35801255565E+01  0.26270651111E+01  0.44898674480E+01  0.51100000000E-03 0. -1.
        -11    1    3    3    0    0  0.47860825406E+01 -0.59752599661E+01  0.63251424174E+00  0.76818221975E+01  0.51100000000E-03 0.  1.
         12    1    3    3    0    0  0.31079609248E+02  0.22479539935E+02 -0.63080651780E-02  0.38357161867E+02  0.00000000000E+00 0. -1.
</event>
<event>
 7    1  0.5487071E-013  0.5052886E+02  0.7816164E-02  0.1300439E+00
        -11   -1    0    0    0    0  0.00000000000E+00  0.00000000000E+00  0.45593999997E+02  0.45594000000E+02  0.51100000000E-03 0.  1.
         11   -1    0    0    0    0 -0.00000000000E+00 -0.00000000000E+00 -0.45593999997E+02  0.45594000000E+02  0.51100000000E-03 0. -1.
    9900012    2    1    2    0    0 -0.36061166165E+01 -0.88834113600E+01 -0.39512616277E+02  0.50528856877E+02  0.29999990964E+02 0.  0.
        -12    1    1    2    0    0  0.36061166165E+01  0.88834113600E+01  0.39512616277E+02  0.40659143123E+02  0.00000000000E+00 0.  1.
         11    1    3    3    0    0 -0.56727273964E+01  0.21223102487E+01 -0.13668779519E+02  0.14950570916E+02  0.51100000000E-03 0. -1.
        -11    1    3    3    0    0  0.11075096398E+02 -0.13010105998E+01 -0.13056547150E+02  0.17170434256E+02  0.51100000000E-03 0.  1.
         12    1    3    3    0    0 -0.90084856178E+01 -0.97047110088E+01 -0.12787289607E+02  0.18407851705E+02  0.00000000000E+00 0. -1.
</event>
<event>
 7    1  0.5487071E-013  0.5052886E+02  0.7816164E-02  0.1300439E+00
        -11   -1    0    0    0    0  0.00000000000E+00  0.00000000000E+00  0.45593999997E+02  0.45594000000E+02  0.51100000000E-03 0.  1.
         11   -1    0    0    0    0 -0.00000000000E+00 -0.00000000000E+00 -0.45593999997E+02  0.45594000000E+02  0.51100000000E-03 0. -1.
    9900012    2    1    2    0    0  0.36166651141E+02  0.63833742703E+01 -0.17446818860E+02  0.50528860681E+02  0.30000002526E+02 0.  0.
        -12    1    1    2    0    0 -0.36166651141E+02 -0.63833742703E+01  0.17446818860E+02  0.40659139319E+02  0.00000000000E+00 0.  1.
         11    1    3    3    0    0  0.13522387748E+02 -0.40987270642E+01 -0.11371672189E+02  0.18137515337E+02  0.51100000000E-03 0. -1.
        -11    1    3    3    0    0  0.15038784954E+02  0.54036679585E+01 -0.13256989594E+02  0.20763247667E+02  0.51100000000E-03 0.  1.
        -12    1    3    3    0    0  0.76054784386E+01  0.50784333759E+01  0.71818429232E+01  0.11628097678E+02  0.00000000000E+00 0.  1.
</event>
<event>
 7    1  0.5487071E-013  0.5052885E+02  0.7816164E-02  0.1300439E+00
        -11   -1    0    0    0    0  0.00000000000E+00  0.00000000000E+00  0.45593999997E+02  0.45594000000E+02  0.51100000000E-03 0.  1.
         11   -1    0    0    0    0 -0.00000000000E+00 -0.00000000000E+00 -0.45593999997E+02  0.45594000000E+02  0.51100000000E-03 0. -1.
    9900012    2    1    2    0    0 -0.21932347311E+02  0.20184643424E+02 -0.27653544886E+02  0.50528853016E+02  0.29999979227E+02 0.  0.
        -12    1    1    2    0    0  0.21932347311E+02 -0.20184643424E+02  0.27653544886E+02  0.40659146984E+02  0.00000000000E+00 0.  1.
         11    1    3    3    0    0 -0.20172225857E+02  0.17539534255E+02 -0.20930652374E+02  0.33950643101E+02  0.51100000000E-03 0. -1.
        -11    1    3    3    0    0 -0.63519690210E+01  0.64791352073E+01 -0.31193648965E+01  0.95946412699E+01  0.51100000000E-03 0.  1.
        -12    1    3    3    0    0  0.45918475671E+01 -0.38340260383E+01 -0.36035276161E+01  0.69835686452E+01  0.00000000000E+00 0.  1.
</event>
<event>
 7    1  0.5487071E-013  0.5052878E+02  0.7816164E-02  0.1300439E+00
        -11   -1    0    0    0    0  0.00000000000E+00  0.00000000000E+00  0.45593999997E+02  0.45594000000E+02  0.51100000000E-03 0. -1.
         11   -1    0    0    0    0 -0.00000000000E+00 -0.00000000000E+00 -0.45593999997E+02  0.45594000000E+02  0.51100000000E-03 0.  1.
    9900012    2    1    2    0    0  0.32661275788E+02  0.79305564284E+01 -0.22880540610E+02  0.50528784563E+02  0.29999771156E+02 0.  0.
        -12    1    1    2    0    0 -0.32661275788E+02 -0.79305564284E+01  0.22880540610E+02  0.40659215437E+02  0.00000000000E+00 0.  1.
         11    1    3    3    0    0  0.14683352465E+02 -0.59636563924E+01 -0.13365560924E+02  0.20731721015E+02  0.51100000000E-03 0. -1.
        -11    1    3    3    0    0  0.16688895632E+02  0.72003131897E+01 -0.10358033205E+00  0.18176206331E+02  0.51100000000E-03 0.  1.
        -12    1    3    3    0    0  0.12890276918E+01  0.66938996310E+01 -0.94113993538E+01  0.11620857217E+02  0.00000000000E+00 0.  1.
</event>
<event>
 7    1  0.5487071E-013  0.5052886E+02  0.7816164E-02  0.1300439E+00
        -11   -1    0    0    0    0  0.00000000000E+00  0.00000000000E+00  0.45593999997E+02  0.45594000000E+02  0.51100000000E-03 0.  1.
         11   -1    0    0    0    0 -0.00000000000E+00 -0.00000000000E+00 -0.45593999997E+02  0.45594000000E+02  0.51100000000E-03 0. -1.
    9900012    2    1    2    0    0 -0.17036954513E+02  0.20106769769E+02 -0.30961675253E+02  0.50528863953E+02  0.30000012472E+02 0.  0.
        -12    1    1    2    0    0  0.17036954513E+02 -0.20106769769E+02  0.30961675253E+02  0.40659136047E+02  0.00000000000E+00 0.  1.
         11    1    3    3    0    0 -0.19174656204E+02  0.12392559033E+02 -0.11777364433E+02  0.25689477869E+02  0.51100000000E-03 0. -1.
        -11    1    3    3    0    0 -0.37882575880E+01 -0.19021490209E+01 -0.34234564738E+01  0.54487724251E+01  0.51100000000E-03 0.  1.
         12    1    3    3    0    0  0.59259592790E+01  0.96163597570E+01 -0.15760854346E+02  0.19390613659E+02  0.00000000000E+00 0. -1.
</event>
<event>
 7    1  0.5487071E-013  0.5052887E+02  0.7816164E-02  0.1300439E+00
        -11   -1    0    0    0    0  0.00000000000E+00  0.00000000000E+00  0.45593999997E+02  0.45594000000E+02  0.51100000000E-03 0.  1.
         11   -1    0    0    0    0 -0.00000000000E+00 -0.00000000000E+00 -0.45593999997E+02  0.45594000000E+02  0.51100000000E-03 0. -1.
    9900012    2    1    2    0    0 -0.14956592048E+02 -0.86678274908E+01 -0.36801279992E+02  0.50528867100E+02  0.30000022036E+02 0.  0.
        -12    1    1    2    0    0  0.14956592048E+02  0.86678274908E+01  0.36801279992E+02  0.40659132900E+02  0.00000000000E+00 0.  1.
         11    1    3    3    0    0 -0.19669765497E+02 -0.43800383952E+01 -0.12625775850E+02  0.23780130932E+02  0.51100000000E-03 0. -1.
        -11    1    3    3    0    0  0.15912321026E+01 -0.69109092221E+01 -0.18018805299E+02  0.19364142908E+02  0.51100000000E-03 0.  1.
        -12    1    3    3    0    0  0.31219413464E+01  0.26231201265E+01 -0.61566988431E+01  0.73845932598E+01  0.00000000000E+00 0.  1.
</event>
<event>
 7    1  0.5487071E-013  0.5052890E+02  0.7816164E-02  0.1300439E+00
        -11   -1    0    0    0    0  0.00000000000E+00  0.00000000000E+00  0.45593999997E+02  0.45594000000E+02  0.51100000000E-03 0.  1.
         11   -1    0    0    0    0 -0.00000000000E+00 -0.00000000000E+00 -0.45593999997E+02  0.45594000000E+02  0.51100000000E-03 0. -1.
    9900012    2    1    2    0    0 -0.21282546516E+02 -0.15359111085E+02 -0.31053401052E+02  0.50528895282E+02  0.30000107699E+02 0.  0.
        -12    1    1    2    0    0  0.21282546516E+02  0.15359111085E+02  0.31053401052E+02  0.40659104718E+02  0.00000000000E+00 0.  1.
         11    1    3    3    0    0 -0.33114606932E+01 -0.99325810261E+00  0.93148704309E+00  0.35805030308E+01  0.51100000000E-03 0. -1.
        -11    1    3    3    0    0 -0.14089250990E+02  0.18294696836E+01 -0.46672948019E+01  0.14954517505E+02  0.51100000000E-03 0.  1.
         12    1    3    3    0    0 -0.38818348330E+01 -0.16195322666E+02 -0.27317593293E+02  0.31993874746E+02  0.00000000000E+00 0. -1.
</event>
<event>
 7    1  0.5487071E-013  0.5052886E+02  0.7816164E-02  0.1300439E+00
        -11   -1    0    0    0    0  0.00000000000E+00  0.00000000000E+00  0.45593999997E+02  0.45594000000E+02  0.51100000000E-03 0.  1.
         11   -1    0    0    0    0 -0.00000000000E+00 -0.00000000000E+00 -0.45593999997E+02  0.45594000000E+02  0.51100000000E-03 0. -1.
    9900012    2    1    2    0    0 -0.37306336056E+02  0.57540707174E+01 -0.15109397158E+02  0.50528856844E+02  0.29999990862E+02 0.  0.
        -12    1    1    2    0    0  0.37306336056E+02 -0.57540707174E+01  0.15109397158E+02  0.40659143156E+02  0.00000000000E+00 0.  1.
         11    1    3    3    0    0 -0.30650455372E+02 -0.55795713615E+00 -0.49460455250E+01  0.31051974129E+02  0.51100000000E-03 0. -1.
        -11    1    3    3    0    0 -0.49633849503E+01 -0.23702946064E+01  0.61367479702E+00  0.55344452029E+01  0.51100000000E-03 0.  1.
         12    1    3    3    0    0 -0.16924957332E+01  0.86823224599E+01 -0.10777026430E+02  0.13942437512E+02  0.00000000000E+00 0. -1.
</event>
<event>
 7    1  0.5487071E-013  0.5052886E+02  0.7816164E-02  0.1300439E+00
        -11   -1    0    0    0    0  0.00000000000E+00  0.00000000000E+00  0.45593999997E+02  0.45594000000E+02  0.51100000000E-03 0. -1.
         11   -1    0    0    0    0 -0.00000000000E+00 -0.00000000000E+00 -0.45593999997E+02  0.45594000000E+02  0.51100000000E-03 0.  1.
    9900012    2    1    2    0    0 -0.37195467799E+02  0.15620103091E+02  0.50670563524E+01  0.50528861969E+02  0.30000006440E+02 0.  0.
        -12    1    1    2    0    0  0.37195467799E+02 -0.15620103091E+02 -0.50670563524E+01  0.40659138031E+02  0.00000000000E+00 0.  1.
         11    1    3    3    0    0 -0.27606051878E+02  0.14063141348E+02 -0.71853794430E+01  0.31804020546E+02  0.51100000000E-03 0. -1.
        -11    1    3    3    0    0 -0.66131926905E+01  0.35262736223E+01  0.18390892820E+01  0.77169406418E+01  0.51100000000E-03 0.  1.
        -12    1    3    3    0    0 -0.29762232304E+01 -0.19693118797E+01  0.10413346513E+02  0.11007900781E+02  0.00000000000E+00 0.  1.
</event>
<event>
 7    1  0.5487071E-013  0.5052885E+02  0.7816164E-02  0.1300439E+00
        -11   -1    0    0    0    0  0.00000000000E+00  0.00000000000E+00  0.45593999997E+02  0.45594000000E+02  0.51100000000E-03 0.  1.
         11   -1    0    0    0    0 -0.00000000000E+00 -0.00000000000E+00 -0.45593999997E+02  0.45594000000E+02  0.51100000000E-03 0. -1.
    9900012    2    1    2    0    0 -0.76638492251E+01 -0.21029404465E+02 -0.33944007680E+02  0.50528854725E+02  0.29999984423E+02 0.  0.
        -12    1    1    2    0    0  0.76638492251E+01  0.21029404465E+02  0.33944007680E+02  0.40659145275E+02  0.00000000000E+00 0.  1.
         11    1    3    3    0    0  0.23863070182E+01 -0.14147057596E+02 -0.18974542064E+02  0.23787958017E+02  0.51100000000E-03 0. -1.
        -11    1    3    3    0    0  0.22860329694E+00 -0.47599021778E+01  0.32124703613E+01  0.57470770216E+01  0.51100000000E-03 0.  1.
        -12    1    3    3    0    0 -0.10278759540E+02 -0.21224446912E+01 -0.18181935977E+02  0.20993819686E+02  0.00000000000E+00 0.  1.
</event>
<event>
 7    1  0.5487071E-013  0.5052885E+02  0.7816164E-02  0.1300439E+00
        -11   -1    0    0    0    0  0.00000000000E+00  0.00000000000E+00  0.45593999997E+02  0.45594000000E+02  0.51100000000E-03 0.  1.
         11   -1    0    0    0    0 -0.00000000000E+00 -0.00000000000E+00 -0.45593999997E+02  0.45594000000E+02  0.51100000000E-03 0. -1.
    9900012    2    1    2    0    0  0.83827418644E+01 -0.15412511311E+02 -0.36679016003E+02  0.50528854891E+02  0.29999984927E+02 0.  0.
        -12    1    1    2    0    0 -0.83827418644E+01  0.15412511311E+02  0.36679016003E+02  0.40659145109E+02  0.00000000000E+00 0.  1.
         11    1    3    3    0    0  0.38401252395E+01  0.21159383560E+01 -0.10939585630E+02  0.11785511910E+02  0.51100000000E-03 0.  1.
        -11    1    3    3    0    0 -0.13362637933E+00  0.42048601424E+01  0.62954412574E+00  0.42538254423E+01  0.51100000000E-03 0. -1.
         12    1    3    3    0    0  0.46762430043E+01 -0.21733309810E+02 -0.26368974499E+02  0.34489517538E+02  0.00000000000E+00 0. -1.
</event>
<event>
 7    1  0.5487071E-013  0.5052889E+02  0.7816164E-02  0.1300439E+00
        -11   -1    0    0    0    0  0.00000000000E+00  0.00000000000E+00  0.45593999997E+02  0.45594000000E+02  0.51100000000E-03 0. -1.
         11   -1    0    0    0    0 -0.00000000000E+00 -0.00000000000E+00 -0.45593999997E+02  0.45594000000E+02  0.51100000000E-03 0.  1.
    9900012    2    1    2    0    0  0.34540446907E+02  0.19648288189E+02  0.86061289839E+01  0.50528890843E+02  0.30000094208E+02 0.  0.
        -12    1    1    2    0    0 -0.34540446907E+02 -0.19648288189E+02 -0.86061289839E+01  0.40659109157E+02  0.00000000000E+00 0.  1.
         11    1    3    3    0    0 -0.29518978081E+01 -0.13909430996E+00 -0.31537894363E+00  0.29719542452E+01  0.51100000000E-03 0.  1.
        -11    1    3    3    0    0 -0.11096279596E+01  0.48215075950E+01 -0.84458007488E+00  0.50191160039E+01  0.51100000000E-03 0. -1.
         12    1    3    3    0    0  0.38601972675E+02  0.14965874904E+02  0.97660880024E+01  0.42537820594E+02  0.00000000000E+00 0. -1.
</event>
<event>
 7    1  0.5487071E-013  0.5052887E+02  0.7816164E-02  0.1300439E+00
        -11   -1    0    0    0    0  0.00000000000E+00  0.00000000000E+00  0.45593999997E+02  0.45594000000E+02  0.51100000000E-03 0. -1.
         11   -1    0    0    0    0 -0.00000000000E+00 -0.00000000000E+00 -0.45593999997E+02  0.45594000000E+02  0.51100000000E-03 0.  1.
    9900012    2    1    2    0    0 -0.20588954420E+02  0.25428414478E+02  0.24138262394E+02  0.50528867958E+02  0.30000024644E+02 0.  0.
        -12    1    1    2    0    0  0.20588954420E+02 -0.25428414478E+02 -0.24138262394E+02  0.40659132042E+02  0.00000000000E+00 0.  1.
         11    1    3    3    0    0 -0.12024476351E+00  0.43878352139E+01  0.42261179924E+01  0.60932446376E+01  0.51100000000E-03 0. -1.
        -11    1    3    3    0    0 -0.94570656729E+01  0.26973128545E+01  0.20815752519E+02  0.23021883958E+02  0.51100000000E-03 0.  1.
        -12    1    3    3    0    0 -0.11011643984E+02  0.18343266410E+02 -0.90360811737E+00  0.21413739362E+02  0.00000000000E+00 0.  1.
</event>
<event>
 7    1  0.5487071E-013  0.5052886E+02  0.7816164E-02  0.1300439E+00
        -11   -1    0    0    0    0  0.00000000000E+00  0.00000000000E+00  0.45593999997E+02  0.45594000000E+02  0.51100000000E-03 0.  1.
         11   -1    0    0    0    0 -0.00000000000E+00 -0.00000000000E+00 -0.45593999997E+02  0.45594000000E+02  0.51100000000E-03 0. -1.
    9900012    2    1    2    0    0  0.19270135358E+02 -0.22569631361E+02 -0.27792791965E+02  0.50528860047E+02  0.30000000599E+02 0.  0.
        -12    1    1    2    0    0 -0.19270135358E+02  0.22569631361E+02  0.27792791965E+02  0.40659139953E+02  0.00000000000E+00 0.  1.
         11    1    3    3    0    0  0.68100204334E+01 -0.25975963147E+01 -0.48965552564E+00  0.73050426222E+01  0.51100000000E-03 0.  1.
        -11    1    3    3    0    0  0.55932323959E+01  0.39697978964E+01 -0.88507490762E+00  0.69156996628E+01  0.51100000000E-03 0. -1.
         12    1    3    3    0    0  0.68668825288E+01 -0.23941832943E+02 -0.26418061532E+02  0.36308117762E+02  0.00000000000E+00 0. -1.
</event>
<event>
 7    1  0.5487071E-013  0.5052887E+02  0.7816164E-02  0.1300439E+00
        -11   -1    0    0    0    0  0.00000000000E+00  0.00000000000E+00  0.45593999997E+02  0.45594000000E+02  0.51100000000E-03 0. -1.
         11   -1    0    0    0    0 -0.00000000000E+00 -0.00000000000E+00 -0.45593999997E+02  0.45594000000E+02  0.51100000000E-03 0.  1.
    9900012    2    1    2    0    0  0.12136222124E+02  0.27243714073E+02  0.27634347085E+02  0.50528868397E+02  0.30000025978E+02 0.  0.
        -12    1    1    2    0    0 -0.12136222124E+02 -0.27243714073E+02 -0.27634347085E+02  0.40659131603E+02  0.00000000000E+00 0.  1.
         11    1    3    3    0    0 -0.15672740250E+01  0.35474649169E+01  0.12757157387E+01  0.40826836900E+01  0.51100000000E-03 0. -1.
        -11    1    3    3    0    0 -0.99348963452E+00  0.12247791334E+02 -0.20659898787E+01  0.12460486694E+02  0.51100000000E-03 0.  1.
         12    1    3    3    0    0  0.14696985784E+02  0.11448457822E+02  0.28424621225E+02  0.33985698013E+02  0.00000000000E+00 0. -1.
</event>
<event>
 7    1  0.5487071E-013  0.5052886E+02  0.7816164E-02  0.1300439E+00
        -11   -1    0    0    0    0  0.00000000000E+00  0.00000000000E+00  0.45593999997E+02  0.45594000000E+02  0.51100000000E-03 0.  1.
         11   -1    0    0    0    0 -0.00000000000E+00 -0.00000000000E+00 -0.45593999997E+02  0.45594000000E+02  0.51100000000E-03 0. -1.
    9900012    2    1    2    0    0  0.13928568784E+02 -0.38191627182E+02  0.74836821787E+00  0.50528862402E+02  0.30000007759E+02 0.  0.
        -12    1    1    2    0    0 -0.13928568784E+02  0.38191627182E+02 -0.74836821787E+00  0.40659137598E+02  0.00000000000E+00 0.  1.
         11    1    3    3    0    0  0.10918240457E+02 -0.19553293860E+02 -0.59513632365E+01  0.23172354220E+02  0.51100000000E-03 0. -1.
        -11    1    3    3    0    0  0.68227070669E+01 -0.20253443757E+02  0.25991766678E+01  0.21529213533E+02  0.51100000000E-03 0.  1.
        -12    1    3    3    0    0 -0.38123787407E+01  0.16151104344E+01  0.41005547866E+01  0.58272946498E+01  0.00000000000E+00 0.  1.
</event>
<event>
 7    1  0.5487071E-013  0.5052887E+02  0.7816164E-02  0.1300439E+00
        -11   -1    0    0    0    0  0.00000000000E+00  0.00000000000E+00  0.45593999997E+02  0.45594000000E+02  0.51100000000E-03 0. -1.
         11   -1    0    0    0    0 -0.00000000000E+00 -0.00000000000E+00 -0.45593999997E+02  0.45594000000E+02  0.51100000000E-03 0.  1.
    9900012    2    1    2    0    0 -0.12652371906E+02  0.18118415015E+02  0.34129247221E+02  0.50528868266E+02  0.30000025581E+02 0.  0.
        -12    1    1    2    0    0  0.12652371906E+02 -0.18118415015E+02 -0.34129247221E+02  0.40659131734E+02  0.00000000000E+00 0.  1.
         11    1    3    3    0    0 -0.39873929732E+01  0.80921274996E+01  0.28194151081E+02  0.29602229403E+02  0.51100000000E-03 0. -1.
        -11    1    3    3    0    0  0.23775708647E+01  0.24714266355E+01  0.66984322463E+01  0.75252765831E+01  0.51100000000E-03 0.  1.
        -12    1    3    3    0    0 -0.11042549798E+02  0.75548608796E+01 -0.76333610640E+00  0.13401362280E+02  0.00000000000E+00 0.  1.
</event>
<event>
 7    1  0.5487071E-013  0.5052886E+02  0.7816164E-02  0.1300439E+00
        -11   -1    0    0    0    0  0.00000000000E+00  0.00000000000E+00  0.45593999997E+02  0.45594000000E+02  0.51100000000E-03 0.  1.
         11   -1    0    0    0    0 -0.00000000000E+00 -0.00000000000E+00 -0.45593999997E+02  0.45594000000E+02  0.51100000000E-03 0. -1.
    9900012    2    1    2    0    0 -0.10415918631E+02 -0.39171360010E+02 -0.32060690445E+01  0.50528859765E+02  0.29999999741E+02 0.  0.
        -12    1    1    2    0    0  0.10415918631E+02  0.39171360010E+02  0.32060690445E+01  0.40659140235E+02  0.00000000000E+00 0.  1.
         11    1    3    3    0    0 -0.57624239933E+01 -0.53555481588E+01 -0.30460213657E+01  0.84359749159E+01  0.51100000000E-03 0. -1.
        -11    1    3    3    0    0  0.20705579530E+01 -0.18992575947E+01 -0.80574336492E+01  0.85332659000E+01  0.51100000000E-03 0.  1.
         12    1    3    3    0    0 -0.67240525908E+01 -0.31916554256E+02  0.78973859704E+01  0.33559618949E+02  0.00000000000E+00 0. -1.
</event>
<event>
 7    1  0.5487071E-013  0.5052886E+02  0.7816164E-02  0.1300439E+00
        -11   -1    0    0    0    0  0.00000000000E+00  0.00000000000E+00  0.45593999997E+02  0.45594000000E+02  0.51100000000E-03 0.  1.
         11   -1    0    0    0    0 -0.00000000000E+00 -0.00000000000E+00 -0.45593999997E+02  0.45594000000E+02  0.51100000000E-03 0. -1.
    9900012    2    1    2    0    0 -0.27885115416E+02 -0.14106157876E+02 -0.26011578782E+02  0.50528861021E+02  0.30000003559E+02 0.  0.
        -12    1    1    2    0    0  0.27885115416E+02  0.14106157876E+02  0.26011578782E+02  0.40659138979E+02  0.00000000000E+00 0.  1.
         11    1    3    3    0    0 -0.12798200269E+02  0.28156291093E+01 -0.15756138380E+01  0.13198646015E+02  0.51100000000E-03 0. -1.
        -11    1    3    3    0    0 -0.11645299490E+02 -0.32880899250E+01 -0.44490979246E+01  0.12892595091E+02  0.51100000000E-03 0.  1.
         12    1    3    3    0    0 -0.34416156574E+01 -0.13633697061E+02 -0.19986867019E+02  0.24437619915E+02  0.00000000000E+00 0. -1.
</event>
<event>
 7    1  0.5487071E-013  0.5052885E+02  0.7816164E-02  0.1300439E+00
        -11   -1    0    0    0    0  0.00000000000E+00  0.00000000000E+00  0.45593999997E+02  0.45594000000E+02  0.51100000000E-03 0.  1.
         11   -1    0    0    0    0 -0.00000000000E+00 -0.00000000000E+00 -0.45593999997E+02  0.45594000000E+02  0.51100000000E-03 0. -1.
    9900012    2    1    2    0    0 -0.31752062800E+02  0.21174565824E+02  0.14021783295E+02  0.50528854206E+02  0.29999982845E+02 0.  0.
        -12    1    1    2    0    0  0.31752062800E+02 -0.21174565824E+02 -0.14021783295E+02  0.40659145794E+02  0.00000000000E+00 0.  1.
         11    1    3    3    0    0 -0.35238191032E+02  0.19147412897E+02  0.11797683699E+02  0.41803574832E+02  0.51100000000E-03 0. -1.
        -11    1    3    3    0    0 -0.11433983500E+01  0.22841495530E+01  0.30893444291E+01  0.40085843174E+01  0.51100000000E-03 0.  1.
        -12    1    3    3    0    0  0.46295265819E+01 -0.25699662543E+00 -0.86524483251E+00  0.47166950567E+01  0.00000000000E+00 0.  1.
</event>
<event>
 7    1  0.5487071E-013  0.5052885E+02  0.7816164E-02  0.1300439E+00
        -11   -1    0    0    0    0  0.00000000000E+00  0.00000000000E+00  0.45593999997E+02  0.45594000000E+02  0.51100000000E-03 0. -1.
         11   -1    0    0    0    0 -0.00000000000E+00 -0.00000000000E+00 -0.45593999997E+02  0.45594000000E+02  0.51100000000E-03 0.  1.
    9900012    2    1    2    0    0  0.52706367751E+01 -0.39054928577E+02  0.10004967598E+02  0.50528850540E+02  0.29999971701E+02 0.  0.
        -12    1    1    2    0    0 -0.52706367751E+01  0.39054928577E+02 -0.10004967598E+02  0.40659149460E+02  0.00000000000E+00 0.  1.
         11    1    3    3    0    0 -0.43663323184E+01 -0.62524840164E+01 -0.53267257429E+01  0.93022804565E+01  0.51100000000E-03 0. -1.
        -11    1    3    3    0    0 -0.36539176959E+01 -0.16786593382E+01 -0.12070786964E+00  0.40228823440E+01  0.51100000000E-03 0.  1.
        -12    1    3    3    0    0  0.13290886790E+02 -0.31123785223E+02  0.15452401211E+02  0.37203687739E+02  0.00000000000E+00 0.  1.
</event>
<event>
 7    1  0.5487071E-013  0.5052886E+02  0.7816164E-02  0.1300439E+00
        -11   -1    0    0    0    0  0.00000000000E+00  0.00000000000E+00  0.45593999997E+02  0.45594000000E+02  0.51100000000E-03 0. -1.
         11   -1    0    0    0    0 -0.00000000000E+00 -0.00000000000E+00 -0.45593999997E+02  0.45594000000E+02  0.51100000000E-03 0.  1.
    9900012    2    1    2    0    0  0.14240404454E+02 -0.36250690930E+02 -0.11673215305E+02  0.50528859976E+02  0.30000000384E+02 0.  0.
        -12    1    1    2    0    0 -0.14240404454E+02  0.36250690930E+02  0.11673215305E+02  0.40659140024E+02  0.00000000000E+00 0.  1.
         11    1    3    3    0    0  0.77455755026E+01 -0.14602603019E+02 -0.62681153021E+01  0.17678213272E+02  0.51100000000E-03 0. -1.
        -11    1    3    3    0    0  0.55724259784E+01 -0.17173457174E+02 -0.14180003767E+02  0.22957614634E+02  0.51100000000E-03 0.  1.
         12    1    3    3    0    0  0.92240297279E+00 -0.44746307378E+01  0.87749037639E+01  0.98930320706E+01  0.00000000000E+00 0. -1.
</event>
<event>
 7    1  0.5487071E-013  0.5052886E+02  0.7816164E-02  0.1300439E+00
        -11   -1    0    0    0    0  0.00000000000E+00  0.00000000000E+00  0.45593999997E+02  0.45594000000E+02  0.51100000000E-03 0.  1.
         11   -1    0    0    0    0 -0.00000000000E+00 -0.00000000000E+00 -0.45593999997E+02  0.45594000000E+02  0.51100000000E-03 0. -1.
    9900012    2    1    2    0    0 -0.38022577763E+02 -0.10228167541E+02 -0.10140697895E+02  0.50528860993E+02  0.30000003474E+02 0.  0.
        -12    1    1    2    0    0  0.38022577763E+02  0.10228167541E+02  0.10140697895E+02  0.40659139007E+02  0.00000000000E+00 0.  1.
         11    1    3    3    0    0 -0.31961120182E+02 -0.10119506901E+02 -0.11730250735E+02  0.35517832222E+02  0.51100000000E-03 0. -1.
        -11    1    3    3    0    0 -0.53616509930E+01 -0.29770440914E+01 -0.49205474931E+01  0.78626891574E+01  0.51100000000E-03 0.  1.
        -12    1    3    3    0    0 -0.69980658812E+00  0.28683834509E+01  0.65101003330E+01  0.71483396133E+01  0.00000000000E+00 0.  1.
</event>
<event>
 7    1  0.5487071E-013  0.5052886E+02  0.7816164E-02  0.1300439E+00
        -11   -1    0    0    0    0  0.00000000000E+00  0.00000000000E+00  0.45593999997E+02  0.45594000000E+02  0.51100000000E-03 0.  1.
         11   -1    0    0    0    0 -0.00000000000E+00 -0.00000000000E+00 -0.45593999997E+02  0.45594000000E+02  0.51100000000E-03 0. -1.
    9900012    2    1    2    0    0 -0.30285773864E+02  0.40218762803E+01 -0.26828386305E+02  0.50528857128E+02  0.29999991727E+02 0.  0.
        -12    1    1    2    0    0  0.30285773864E+02 -0.40218762803E+01  0.26828386305E+02  0.40659142872E+02  0.00000000000E+00 0.  1.
         11    1    3    3    0    0  0.97178862447E-01 -0.74369416635E+01 -0.80730324177E+01  0.10976857370E+02  0.51100000000E-03 0. -1.
        -11    1    3    3    0    0 -0.20106848441E+02  0.95750196621E+00 -0.10861278967E+02  0.22872899801E+02  0.51100000000E-03 0.  1.
        -12    1    3    3    0    0 -0.10276104285E+02  0.10501315978E+02 -0.78940749207E+01  0.16679099958E+02  0.00000000000E+00 0.  1.
</event>
<event>
 7    1  0.5487071E-013  0.5052889E+02  0.7816164E-02  0.1300439E+00
        -11   -1    0    0    0    0  0.00000000000E+00  0.00000000000E+00  0.45593999997E+02  0.45594000000E+02  0.51100000000E-03 0.  1.
         11   -1    0    0    0    0 -0.00000000000E+00 -0.00000000000E+00 -0.45593999997E+02  0.45594000000E+02  0.51100000000E-03 0. -1.
    9900012    2    1    2    0    0  0.35565013987E+02 -0.19558375710E+02 -0.24006025734E+01  0.50528890651E+02  0.30000093622E+02 0.  0.
        -12    1    1    2    0    0 -0.35565013987E+02  0.19558375710E+02  0.24006025734E+01  0.40659109349E+02  0.00000000000E+00 0.  1.
         11    1    3    3    0    0  0.19913693412E+02 -0.84776572716E+01 -0.33832152654E+01  0.21905981007E+02  0.51100000000E-03 0. -1.
        -11    1    3    3    0    0  0.17387316543E+02 -0.15023794735E+02 -0.24570245196E+01  0.23109957909E+02  0.51100000000E-03 0.  1.
        -12    1    3    3    0    0 -0.17359959677E+01  0.39430762960E+01  0.34396372116E+01  0.55129517342E+01  0.00000000000E+00 0.  1.
</event>
<event>
 7    1  0.5487071E-013  0.5052887E+02  0.7816164E-02  0.1300439E+00
        -11   -1    0    0    0    0  0.00000000000E+00  0.00000000000E+00  0.45593999997E+02  0.45594000000E+02  0.51100000000E-03 0.  1.
         11   -1    0    0    0    0 -0.00000000000E+00 -0.00000000000E+00 -0.45593999997E+02  0.45594000000E+02  0.51100000000E-03 0. -1.
    9900012    2    1    2    0    0  0.21071102240E+02 -0.14809748208E+02 -0.31461802972E+02  0.50528867719E+02  0.30000023920E+02 0.  0.
        -12    1    1    2    0    0 -0.21071102240E+02  0.14809748208E+02  0.31461802972E+02  0.40659132281E+02  0.00000000000E+00 0.  1.
         11    1    3    3    0    0 -0.40136577809E+01  0.15784102293E+01 -0.86538487022E+00  0.43988315345E+01  0.51100000000E-03 0. -1.
        -11    1    3    3    0    0  0.10512504896E+02  0.20669618605E+01 -0.12466214199E+02  0.16437505505E+02  0.51100000000E-03 0.  1.
        -12    1    3    3    0    0  0.14572255124E+02 -0.18455120298E+02 -0.18130203903E+02  0.29692530680E+02  0.00000000000E+00 0.  1.
</event>
<event>
 7    1  0.5487071E-013  0.5052886E+02  0.7816164E-02  0.1300439E+00
        -11   -1    0    0    0    0  0.00000000000E+00  0.00000000000E+00  0.45593999997E+02  0.45594000000E+02  0.51100000000E-03 0.  1.
         11   -1    0    0    0    0 -0.00000000000E+00 -0.00000000000E+00 -0.45593999997E+02  0.45594000000E+02  0.51100000000E-03 0. -1.
    9900012    2    1    2    0    0 -0.92231936716E+01 -0.80949329639E+01 -0.38763007635E+02  0.50528855861E+02  0.29999987875E+02 0.  0.
        -12    1    1    2    0    0  0.92231936716E+01  0.80949329639E+01  0.38763007635E+02  0.40659144139E+02  0.00000000000E+00 0.  1.
         11    1    3    3    0    0 -0.46786063254E+01 -0.14315103640E-02 -0.47830310949E+01  0.66907956114E+01  0.51100000000E-03 0. -1.
        -11    1    3    3    0    0 -0.78636541341E+01  0.62133414841E+01 -0.46752386123E+01  0.11058956781E+02  0.51100000000E-03 0.  1.
         12    1    3    3    0    0  0.33190667879E+01 -0.14306842938E+02 -0.29304737928E+02  0.32779103469E+02  0.00000000000E+00 0. -1.
</event>
<event>
 7    1  0.5487071E-013  0.5052890E+02  0.7816164E-02  0.1300439E+00
        -11   -1    0    0    0    0  0.00000000000E+00  0.00000000000E+00  0.45593999997E+02  0.45594000000E+02  0.51100000000E-03 0.  1.
         11   -1    0    0    0    0 -0.00000000000E+00 -0.00000000000E+00 -0.45593999997E+02  0.45594000000E+02  0.51100000000E-03 0. -1.
    9900012    2    1    2    0    0  0.90361405833E+01  0.35172872153E+02 -0.18286060675E+02  0.50528895397E+02  0.30000108048E+02 0.  0.
        -12    1    1    2    0    0 -0.90361405833E+01 -0.35172872153E+02  0.18286060675E+02  0.40659104603E+02  0.00000000000E+00 0.  1.
         11    1    3    3    0    0  0.11784075545E+00  0.19270805346E+02 -0.51769481591E+00  0.19278117991E+02  0.51100000000E-03 0. -1.
        -11    1    3    3    0    0 -0.44739447235E+01  0.98390490991E+01 -0.56330077309E+01  0.12188266691E+02  0.51100000000E-03 0.  1.
         12    1    3    3    0    0  0.13392244551E+02  0.60630177085E+01 -0.12135358128E+02  0.19062510715E+02  0.00000000000E+00 0. -1.
</event>
<event>
 7    1  0.5487071E-013  0.5052887E+02  0.7816164E-02  0.1300439E+00
        -11   -1    0    0    0    0  0.00000000000E+00  0.00000000000E+00  0.45593999997E+02  0.45594000000E+02  0.51100000000E-03 0.  1.
         11   -1    0    0    0    0 -0.00000000000E+00 -0.00000000000E+00 -0.45593999997E+02  0.45594000000E+02  0.51100000000E-03 0. -1.
    9900012    2    1    2    0    0  0.15738895983E+02 -0.47328215384E+01 -0.37189417520E+02  0.50528865455E+02  0.30000017036E+02 0.  0.
        -12    1    1    2    0    0 -0.15738895983E+02  0.47328215384E+01  0.37189417520E+02  0.40659134545E+02  0.00000000000E+00 0.  1.
         11    1    3    3    0    0  0.15625215415E+02 -0.15057029189E+01 -0.23237774670E+02  0.28042978977E+02  0.51100000000E-03 0. -1.
        -11    1    3    3    0    0  0.53384390417E+01  0.51440455072E+01 -0.82405252943E+01  0.11084511400E+02  0.51100000000E-03 0.  1.
        -12    1    3    3    0    0 -0.52247584731E+01 -0.83711641267E+01 -0.57111175561E+01  0.11401375078E+02  0.00000000000E+00 0.  1.
</event>
<event>
 7    1  0.5487071E-013  0.5052884E+02  0.7816164E-02  0.1300439E+00
        -11   -1    0    0    0    0  0.00000000000E+00  0.00000000000E+00  0.45593999997E+02  0.45594000000E+02  0.51100000000E-03 0.  1.
         11   -1    0    0    0    0 -0.00000000000E+00 -0.00000000000E+00 -0.45593999997E+02  0.45594000000E+02  0.51100000000E-03 0. -1.
    9900012    2    1    2    0    0 -0.25702615862E+02 -0.21774548546E+02 -0.22768652433E+02  0.50528844080E+02  0.29999952065E+02 0.  0.
        -12    1    1    2    0    0  0.25702615862E+02  0.21774548546E+02  0.22768652433E+02  0.40659155920E+02  0.00000000000E+00 0.  1.
         11    1    3    3    0    0 -0.17663461093E+01 -0.90877845186E+01 -0.13640270761E+02  0.16485290192E+02  0.51100000000E-03 0. -1.
        -11    1    3    3    0    0  0.21477664135E+01 -0.52205426695E+01 -0.11239919511E+01  0.57558947609E+01  0.51100000000E-03 0.  1.
         12    1    3    3    0    0 -0.26084036166E+02 -0.74662213582E+01 -0.80043897211E+01  0.28287659127E+02  0.00000000000E+00 0. -1.
</event>
<event>
 7    1  0.5487071E-013  0.5052886E+02  0.7816164E-02  0.1300439E+00
        -11   -1    0    0    0    0  0.00000000000E+00  0.00000000000E+00  0.45593999997E+02  0.45594000000E+02  0.51100000000E-03 0.  1.
         11   -1    0    0    0    0 -0.00000000000E+00 -0.00000000000E+00 -0.45593999997E+02  0.45594000000E+02  0.51100000000E-03 0. -1.
    9900012    2    1    2    0    0 -0.21039048336E+02 -0.11006134819E+02 -0.33005892009E+02  0.50528862456E+02  0.30000007921E+02 0.  0.
        -12    1    1    2    0    0  0.21039048336E+02  0.11006134819E+02  0.33005892009E+02  0.40659137544E+02  0.00000000000E+00 0.  1.
         11    1    3    3    0    0 -0.14780784666E+01  0.23412395970E+01 -0.15564074868E+02  0.15808432735E+02  0.51100000000E-03 0.  1.
        -11    1    3    3    0    0 -0.13798824082E+02 -0.13861832585E+02 -0.20367063497E+02  0.28237833210E+02  0.51100000000E-03 0. -1.
        -12    1    3    3    0    0 -0.57621457870E+01  0.51445816836E+00  0.29252463554E+01  0.64825965104E+01  0.00000000000E+00 0.  1.
</event>
<event>
 7    1  0.5487071E-013  0.5052887E+02  0.7816164E-02  0.1300439E+00
        -11   -1    0    0    0    0  0.00000000000E+00  0.00000000000E+00  0.45593999997E+02  0.45594000000E+02  0.51100000000E-03 0.  1.
         11   -1    0    0    0    0 -0.00000000000E+00 -0.00000000000E+00 -0.45593999997E+02  0.45594000000E+02  0.51100000000E-03 0. -1.
    9900012    2    1    2    0    0 -0.40172229861E+02 -0.61068162548E+01 -0.14365655111E+01  0.50528868464E+02  0.30000026183E+02 0.  0.
        -12    1    1    2    0    0  0.40172229861E+02  0.61068162548E+01  0.14365655111E+01  0.40659131536E+02  0.00000000000E+00 0.  1.
         11    1    3    3    0    0 -0.25399355715E+02  0.30716056265E-01 -0.53762100270E+01  0.25962123348E+02  0.51100000000E-03 0. -1.
        -11    1    3    3    0    0 -0.16453258047E+02 -0.10536782964E+02  0.30648292256E+01  0.19776922765E+02  0.51100000000E-03 0.  1.
        -12    1    3    3    0    0  0.16803839008E+01  0.43992506532E+01  0.87481529032E+00  0.47898223511E+01  0.00000000000E+00 0.  1.
</event>
<event>
 7    1  0.5487071E-013  0.5052886E+02  0.7816164E-02  0.1300439E+00
        -11   -1    0    0    0    0  0.00000000000E+00  0.00000000000E+00  0.45593999997E+02  0.45594000000E+02  0.51100000000E-03 0.  1.
         11   -1    0    0    0    0 -0.00000000000E+00 -0.00000000000E+00 -0.45593999997E+02  0.45594000000E+02  0.51100000000E-03 0. -1.
    9900012    2    1    2    0    0 -0.17388595858E+01 -0.33544003444E+02 -0.22911612932E+02  0.50528858262E+02  0.29999995172E+02 0.  0.
        -12    1    1    2    0    0  0.17388595858E+01  0.33544003444E+02  0.22911612932E+02  0.40659141738E+02  0.00000000000E+00 0.  1.
         11    1    3    3    0    0  0.66402538254E+01 -0.58496137274E+00 -0.20854235685E+01  0.69845645816E+01  0.51100000000E-03 0. -1.
        -11    1    3    3    0    0  0.25645792543E+00  0.87246053138E+00  0.17450667340E+01  0.19677947590E+01  0.51100000000E-03 0.  1.
         12    1    3    3    0    0 -0.86355713366E+01 -0.33831502603E+02 -0.22571256098E+02  0.41576498921E+02  0.00000000000E+00 0. -1.
</event>
<event>
 7    1  0.5487071E-013  0.5052886E+02  0.7816164E-02  0.1300439E+00
        -11   -1    0    0    0    0  0.00000000000E+00  0.00000000000E+00  0.45593999997E+02  0.45594000000E+02  0.51100000000E-03 0.  1.
         11   -1    0    0    0    0 -0.00000000000E+00 -0.00000000000E+00 -0.45593999997E+02  0.45594000000E+02  0.51100000000E-03 0. -1.
    9900012    2    1    2    0    0 -0.54640564743E-01 -0.86529419332E+01 -0.39727691778E+02  0.50528857318E+02  0.29999992303E+02 0.  0.
        -12    1    1    2    0    0  0.54640564743E-01  0.86529419332E+01  0.39727691778E+02  0.40659142682E+02  0.00000000000E+00 0.  1.
         11    1    3    3    0    0  0.30686189872E+00 -0.48333854498E+01 -0.73961108826E+01  0.88407146533E+01  0.51100000000E-03 0. -1.
        -11    1    3    3    0    0 -0.95324060658E+01 -0.66905390950E+01 -0.49231626450E+01  0.12643876363E+02  0.51100000000E-03 0.  1.
         12    1    3    3    0    0  0.91709036023E+01  0.28709826116E+01 -0.27408418250E+02  0.29044266302E+02  0.00000000000E+00 0. -1.
</event>
<event>
 7    1  0.5487071E-013  0.5052889E+02  0.7816164E-02  0.1300439E+00
        -11   -1    0    0    0    0  0.00000000000E+00  0.00000000000E+00  0.45593999997E+02  0.45594000000E+02  0.51100000000E-03 0.  1.
         11   -1    0    0    0    0 -0.00000000000E+00 -0.00000000000E+00 -0.45593999997E+02  0.45594000000E+02  0.51100000000E-03 0. -1.
    9900012    2    1    2    0    0  0.14269425831E+02 -0.13878978579E+02 -0.35453079704E+02  0.50528887609E+02  0.30000084375E+02 0.  0.
        -12    1    1    2    0    0 -0.14269425831E+02  0.13878978579E+02  0.35453079704E+02  0.40659112391E+02  0.00000000000E+00 0.  1.
         11    1    3    3    0    0  0.69609577302E+01 -0.54723362604E+01 -0.29448729389E+02  0.30751082250E+02  0.51100000000E-03 0. -1.
        -11    1    3    3    0    0  0.28587328372E+01  0.44194253279E+01 -0.14757561931E+01  0.54664001195E+01  0.51100000000E-03 0.  1.
         12    1    3    3    0    0  0.44497352636E+01 -0.12826067646E+02 -0.45285941223E+01  0.14311405239E+02  0.00000000000E+00 0. -1.
</event>
<event>
 7    1  0.5487071E-013  0.5052885E+02  0.7816164E-02  0.1300439E+00
        -11   -1    0    0    0    0  0.00000000000E+00  0.00000000000E+00  0.45593999997E+02  0.45594000000E+02  0.51100000000E-03 0.  1.
         11   -1    0    0    0    0 -0.00000000000E+00 -0.00000000000E+00 -0.45593999997E+02  0.45594000000E+02  0.51100000000E-03 0. -1.
    9900012    2    1    2    0    0  0.73691064771E+01 -0.25880023781E+02 -0.30480928056E+02  0.50528851751E+02  0.29999975381E+02 0.  0.
        -12    1    1    2    0    0 -0.73691064771E+01  0.25880023781E+02  0.30480928056E+02  0.40659148249E+02  0.00000000000E+00 0.  1.
         11    1    3    3    0    0  0.12745769349E+01 -0.18785232828E+02 -0.93979233900E+01  0.21043537798E+02  0.51100000000E-03 0. -1.
        -11    1    3    3    0    0 -0.20051474744E+01 -0.47641463285E+01  0.14988563413E+01  0.53818470088E+01  0.51100000000E-03 0.  1.
         12    1    3    3    0    0  0.80996770165E+01 -0.23306446248E+01 -0.22581861008E+02  0.24103466944E+02  0.00000000000E+00 0. -1.
</event>
<event>
 7    1  0.5487071E-013  0.5052886E+02  0.7816164E-02  0.1300439E+00
        -11   -1    0    0    0    0  0.00000000000E+00  0.00000000000E+00  0.45593999997E+02  0.45594000000E+02  0.51100000000E-03 0.  1.
         11   -1    0    0    0    0 -0.00000000000E+00 -0.00000000000E+00 -0.45593999997E+02  0.45594000000E+02  0.51100000000E-03 0. -1.
    9900012    2    1    2    0    0  0.19179144321E+02  0.16403605704E+02 -0.31878644013E+02  0.50528858333E+02  0.29999995390E+02 0.  0.
        -12    1    1    2    0    0 -0.19179144321E+02 -0.16403605704E+02  0.31878644013E+02  0.40659141667E+02  0.00000000000E+00 0.  1.
         11    1    3    3    0    0 -0.10332418330E+01  0.16993397507E+02 -0.11310581676E+02  0.20439481540E+02  0.51100000000E-03 0. -1.
        -11    1    3    3    0    0  0.23912328783E+00 -0.17058137218E-01  0.79956060046E+00  0.83472650716E+00  0.51100000000E-03 0.  1.
        -12    1    3    3    0    0  0.19973262866E+02 -0.57273366606E+00 -0.21367622937E+02  0.29254650286E+02  0.00000000000E+00 0.  1.
</event>
<event>
 7    1  0.5487071E-013  0.5052886E+02  0.7816164E-02  0.1300439E+00
        -11   -1    0    0    0    0  0.00000000000E+00  0.00000000000E+00  0.45593999997E+02  0.45594000000E+02  0.51100000000E-03 0.  1.
         11   -1    0    0    0    0 -0.00000000000E+00 -0.00000000000E+00 -0.45593999997E+02  0.45594000000E+02  0.51100000000E-03 0. -1.
    9900012    2    1    2    0    0  0.36197631176E+02  0.15830789107E+02 -0.96063998269E+01  0.50528864444E+02  0.30000013965E+02 0.  0.
        -12    1    1    2    0    0 -0.36197631176E+02 -0.15830789107E+02  0.96063998269E+01  0.40659135556E+02  0.00000000000E+00 0.  1.
         11    1    3    3    0    0  0.18841540041E+02  0.61614557164E+01 -0.31058992975E+01  0.20065238059E+02  0.51100000000E-03 0. -1.
        -11    1    3    3    0    0  0.20072229393E+02  0.98269310658E+01  0.11152546930E+01  0.22376477835E+02  0.51100000000E-03 0.  1.
        -12    1    3    3    0    0 -0.27161382585E+01 -0.15759767514E+00 -0.76157552224E+01  0.80871485503E+01  0.00000000000E+00 0.  1.
</event>
<event>
 7    1  0.5487071E-013  0.5052886E+02  0.7816164E-02  0.1300439E+00
        -11   -1    0    0    0    0  0.00000000000E+00  0.00000000000E+00  0.45593999997E+02  0.45594000000E+02  0.51100000000E-03 0. -1.
         11   -1    0    0    0    0 -0.00000000000E+00 -0.00000000000E+00 -0.45593999997E+02  0.45594000000E+02  0.51100000000E-03 0.  1.
    9900012    2    1    2    0    0  0.17765806903E+02  0.23899631341E+02  0.27683011842E+02  0.50528863047E+02  0.30000009717E+02 0.  0.
        -12    1    1    2    0    0 -0.17765806903E+02 -0.23899631341E+02 -0.27683011842E+02  0.40659136953E+02  0.00000000000E+00 0.  1.
         11    1    3    3    0    0  0.68413084634E+01  0.24724691739E+02  0.17187786384E+02  0.30879343971E+02  0.51100000000E-03 0. -1.
        -11    1    3    3    0    0 -0.10389228177E+01 -0.36171309123E+01  0.46892795022E+00  0.37924781267E+01  0.51100000000E-03 0.  1.
        -12    1    3    3    0    0  0.11963421257E+02  0.27920705148E+01  0.10026297507E+02  0.15857040949E+02  0.00000000000E+00 0.  1.
</event>
<event>
 7    1  0.5487071E-013  0.5052886E+02  0.7816164E-02  0.1300439E+00
        -11   -1    0    0    0    0  0.00000000000E+00  0.00000000000E+00  0.45593999997E+02  0.45594000000E+02  0.51100000000E-03 0.  1.
         11   -1    0    0    0    0 -0.00000000000E+00 -0.00000000000E+00 -0.45593999997E+02  0.45594000000E+02  0.51100000000E-03 0. -1.
    9900012    2    1    2    0    0  0.13853658906E+02  0.30538094430E+02 -0.22992757403E+02  0.50528856262E+02  0.29999989095E+02 0.  0.
        -12    1    1    2    0    0 -0.13853658906E+02 -0.30538094430E+02  0.22992757403E+02  0.40659143738E+02  0.00000000000E+00 0.  1.
         11    1    3    3    0    0  0.69992847735E+01 -0.41017193124E+01 -0.61931034275E+01  0.10206302905E+02  0.51100000000E-03 0.  1.
        -11    1    3    3    0    0  0.45705905620E+01  0.14752998618E+02 -0.23222791767E+01  0.15618394512E+02  0.51100000000E-03 0. -1.
        -12    1    3    3    0    0  0.22837835706E+01  0.19886815124E+02 -0.14477374799E+02  0.24704158845E+02  0.00000000000E+00 0.  1.
</event>
<event>
 7    1  0.5487071E-013  0.5052885E+02  0.7816164E-02  0.1300439E+00
        -11   -1    0    0    0    0  0.00000000000E+00  0.00000000000E+00  0.45593999997E+02  0.45594000000E+02  0.51100000000E-03 0. -1.
         11   -1    0    0    0    0 -0.00000000000E+00 -0.00000000000E+00 -0.45593999997E+02  0.45594000000E+02  0.51100000000E-03 0.  1.
    9900012    2    1    2    0    0 -0.19571827241E+02  0.11516207463E+02  0.33726652719E+02  0.50528849006E+02  0.29999967039E+02 0.  0.
        -12    1    1    2    0    0  0.19571827241E+02 -0.11516207463E+02 -0.33726652719E+02  0.40659150994E+02  0.00000000000E+00 0.  1.
         11    1    3    3    0    0 -0.21838446040E+01 -0.79969620979E+01  0.49097091794E+01  0.96346159517E+01  0.51100000000E-03 0. -1.
        -11    1    3    3    0    0 -0.14123572767E+01 -0.13787357684E+01  0.13309331034E+00  0.19782263487E+01  0.51100000000E-03 0.  1.
         12    1    3    3    0    0 -0.15975625360E+02  0.20891905329E+02  0.28683850230E+02  0.38916006706E+02  0.00000000000E+00 0. -1.
</event>
<event>
 7    1  0.5487071E-013  0.5052887E+02  0.7816164E-02  0.1300439E+00
        -11   -1    0    0    0    0  0.00000000000E+00  0.00000000000E+00  0.45593999997E+02  0.45594000000E+02  0.51100000000E-03 0.  1.
         11   -1    0    0    0    0 -0.00000000000E+00 -0.00000000000E+00 -0.45593999997E+02  0.45594000000E+02  0.51100000000E-03 0. -1.
    9900012    2    1    2    0    0  0.31397391925E+02 -0.54950684785E+01 -0.25242290399E+02  0.50528865456E+02  0.30000017040E+02 0.  0.
        -12    1    1    2    0    0 -0.31397391925E+02  0.54950684785E+01  0.25242290399E+02  0.40659134544E+02  0.00000000000E+00 0.  1.
         11    1    3    3    0    0  0.28486370463E+02 -0.64887330269E+00 -0.52034163005E+01  0.28964976785E+02  0.51100000000E-03 0. -1.
        -11    1    3    3    0    0 -0.14345652563E+01 -0.91306517682E+00 -0.21615438281E+01  0.27502613464E+01  0.51100000000E-03 0.  1.
        -12    1    3    3    0    0  0.43455867186E+01 -0.39331299990E+01 -0.17877330270E+02  0.18813627324E+02  0.00000000000E+00 0.  1.
</event>
<event>
 7    1  0.5487071E-013  0.5052888E+02  0.7816164E-02  0.1300439E+00
        -11   -1    0    0    0    0  0.00000000000E+00  0.00000000000E+00  0.45593999997E+02  0.45594000000E+02  0.51100000000E-03 0.  1.
         11   -1    0    0    0    0 -0.00000000000E+00 -0.00000000000E+00 -0.45593999997E+02  0.45594000000E+02  0.51100000000E-03 0. -1.
    9900012    2    1    2    0    0 -0.17424572694E+02 -0.32561779402E+02  0.17008191825E+02  0.50528882934E+02  0.30000070167E+02 0.  0.
        -12    1    1    2    0    0  0.17424572694E+02  0.32561779402E+02 -0.17008191825E+02  0.40659117066E+02  0.00000000000E+00 0.  1.
         11    1    3    3    0    0  0.15344310338E+01  0.12952980106E+00 -0.80826162291E+00  0.17391215251E+01  0.51100000000E-03 0. -1.
        -11    1    3    3    0    0  0.16161833051E+01 -0.21076683167E+02  0.43060221498E+01  0.21572678294E+02  0.51100000000E-03 0.  1.
         12    1    3    3    0    0 -0.20575187033E+02 -0.11614626037E+02  0.13510431298E+02  0.27217083115E+02  0.00000000000E+00 0. -1.
</event>
<event>
 7    1  0.5487071E-013  0.5052877E+02  0.7816164E-02  0.1300439E+00
        -11   -1    0    0    0    0  0.00000000000E+00  0.00000000000E+00  0.45593999997E+02  0.45594000000E+02  0.51100000000E-03 0.  1.
         11   -1    0    0    0    0 -0.00000000000E+00 -0.00000000000E+00 -0.45593999997E+02  0.45594000000E+02  0.51100000000E-03 0. -1.
    9900012    2    1    2    0    0 -0.30936791331E+02  0.21503758759E+02 -0.15286485085E+02  0.50528765810E+02  0.29999714155E+02 0.  0.
        -12    1    1    2    0    0  0.30936791331E+02 -0.21503758759E+02  0.15286485085E+02  0.40659234190E+02  0.00000000000E+00 0.  1.
         11    1    3    3    0    0  0.21646938507E+01  0.90282654866E+00 -0.16523738353E+00  0.23512334844E+01  0.51100000000E-03 0. -1.
        -11    1    3    3    0    0 -0.93393674914E+01 -0.16316644599E+01  0.41596545992E+01  0.10353204368E+02  0.51100000000E-03 0.  1.
         12    1    3    3    0    0 -0.23762117691E+02  0.22232596671E+02 -0.19280902301E+02  0.37824327957E+02  0.00000000000E+00 0. -1.
</event>
<event>
 7    1  0.5487071E-013  0.5052891E+02  0.7816164E-02  0.1300439E+00
        -11   -1    0    0    0    0  0.00000000000E+00  0.00000000000E+00  0.45593999997E+02  0.45594000000E+02  0.51100000000E-03 0.  1.
         11   -1    0    0    0    0 -0.00000000000E+00 -0.00000000000E+00 -0.45593999997E+02  0.45594000000E+02  0.51100000000E-03 0. -1.
    9900012    2    1    2    0    0  0.80394033005E+01 -0.80109210421E+01 -0.39042990143E+02  0.50528905806E+02  0.30000139687E+02 0.  0.
        -12    1    1    2    0    0 -0.80394033005E+01  0.80109210421E+01  0.39042990143E+02  0.40659094194E+02  0.00000000000E+00 0.  1.
         11    1    3    3    0    0  0.15656049132E+01 -0.18828890244E+02 -0.26613277106E+02  0.32638087339E+02  0.51100000000E-03 0. -1.
        -11    1    3    3    0    0  0.57910099398E+00  0.10738874200E+01 -0.24983093786E+01  0.27803133212E+01  0.51100000000E-03 0.  1.
         12    1    3    3    0    0  0.58946973934E+01  0.97440817817E+01 -0.99314036591E+01  0.15110505146E+02  0.00000000000E+00 0. -1.
</event>
<event>
 7    1  0.5487071E-013  0.5052885E+02  0.7816164E-02  0.1300439E+00
        -11   -1    0    0    0    0  0.00000000000E+00  0.00000000000E+00  0.45593999997E+02  0.45594000000E+02  0.51100000000E-03 0. -1.
         11   -1    0    0    0    0 -0.00000000000E+00 -0.00000000000E+00 -0.45593999997E+02  0.45594000000E+02  0.51100000000E-03 0.  1.
    9900012    2    1    2    0    0 -0.83298142143E+01  0.32153906912E+02  0.23450092783E+02  0.50528851139E+02  0.29999973523E+02 0.  0.
        -12    1    1    2    0    0  0.83298142143E+01 -0.32153906912E+02 -0.23450092783E+02  0.40659148861E+02  0.00000000000E+00 0.  1.
         11    1    3    3    0    0  0.68438739272E+00 -0.21738444657E+01  0.25971222831E+01  0.34552901874E+01  0.51100000000E-03 0. -1.
        -11    1    3    3    0    0  0.94831158627E+00  0.27768118751E+01  0.12649387879E+02  0.12985260606E+02  0.51100000000E-03 0.  1.
         12    1    3    3    0    0 -0.99625131933E+01  0.31550939503E+02  0.82035826210E+01  0.34088300346E+02  0.00000000000E+00 0. -1.
</event>
<event>
 7    1  0.5487071E-013  0.5052886E+02  0.7816164E-02  0.1300439E+00
        -11   -1    0    0    0    0  0.00000000000E+00  0.00000000000E+00  0.45593999997E+02  0.45594000000E+02  0.51100000000E-03 0. -1.
         11   -1    0    0    0    0 -0.00000000000E+00 -0.00000000000E+00 -0.45593999997E+02  0.45594000000E+02  0.51100000000E-03 0.  1.
    9900012    2    1    2    0    0 -0.70475548146E+01  0.39059975359E+02  0.88213515323E+01  0.50528856542E+02  0.29999989944E+02 0.  0.
        -12    1    1    2    0    0  0.70475548146E+01 -0.39059975359E+02 -0.88213515323E+01  0.40659143458E+02  0.00000000000E+00 0.  1.
         11    1    3    3    0    0  0.28120661949E+01  0.35952545420E+01 -0.27066300916E+01  0.53065448477E+01  0.51100000000E-03 0. -1.
        -11    1    3    3    0    0  0.45750478280E+01 -0.55642496533E+00 -0.39656932652E+00  0.46257906203E+01  0.51100000000E-03 0.  1.
         12    1    3    3    0    0 -0.14434668838E+02  0.36021145782E+02  0.11924550950E+02  0.40596521074E+02  0.00000000000E+00 0. -1.
</event>
<event>
 7    1  0.5487071E-013  0.5052884E+02  0.7816164E-02  0.1300439E+00
        -11   -1    0    0    0    0  0.00000000000E+00  0.00000000000E+00  0.45593999997E+02  0.45594000000E+02  0.51100000000E-03 0.  1.
         11   -1    0    0    0    0 -0.00000000000E+00 -0.00000000000E+00 -0.45593999997E+02  0.45594000000E+02  0.51100000000E-03 0. -1.
    9900012    2    1    2    0    0  0.35715466538E+02  0.47535701593E+00 -0.19425425956E+02  0.50528835131E+02  0.29999924863E+02 0.  0.
        -12    1    1    2    0    0 -0.35715466538E+02 -0.47535701593E+00  0.19425425956E+02  0.40659164869E+02  0.00000000000E+00 0.  1.
         11    1    3    3    0    0  0.23021100275E+02  0.57888190124E+00 -0.21170518577E+02  0.31280936994E+02  0.51100000000E-03 0. -1.
        -11    1    3    3    0    0  0.84824515454E+01 -0.33646162699E+01 -0.51939801872E+01  0.10500002729E+02  0.51100000000E-03 0.  1.
        -12    1    3    3    0    0  0.42119147175E+01  0.32610913846E+01  0.69390728091E+01  0.87478954072E+01  0.00000000000E+00 0.  1.
</event>
<event>
 7    1  0.5487071E-013  0.5052885E+02  0.7816164E-02  0.1300439E+00
        -11   -1    0    0    0    0  0.00000000000E+00  0.00000000000E+00  0.45593999997E+02  0.45594000000E+02  0.51100000000E-03 0.  1.
         11   -1    0    0    0    0 -0.00000000000E+00 -0.00000000000E+00 -0.45593999997E+02  0.45594000000E+02  0.51100000000E-03 0. -1.
    9900012    2    1    2    0    0 -0.22526073476E+02 -0.32845556733E+02 -0.81799930120E+01  0.50528845200E+02  0.29999955470E+02 0.  0.
        -12    1    1    2    0    0  0.22526073476E+02  0.32845556733E+02  0.81799930120E+01  0.40659154800E+02  0.00000000000E+00 0.  1.
         11    1    3    3    0    0 -0.83399175391E+01 -0.15553402580E+02  0.19010143758E+01  0.17750391891E+02  0.51100000000E-03 0. -1.
        -11    1    3    3    0    0  0.45416857039E+01 -0.46696969431E+01  0.24391334305E+01  0.69557422844E+01  0.51100000000E-03 0.  1.
         12    1    3    3    0    0 -0.18727841641E+02 -0.12622457210E+02 -0.12520140818E+02  0.25822711025E+02  0.00000000000E+00 0. -1.
</event>
<event>
 7    1  0.5487071E-013  0.5052887E+02  0.7816164E-02  0.1300439E+00
        -11   -1    0    0    0    0  0.00000000000E+00  0.00000000000E+00  0.45593999997E+02  0.45594000000E+02  0.51100000000E-03 0. -1.
         11   -1    0    0    0    0 -0.00000000000E+00 -0.00000000000E+00 -0.45593999997E+02  0.45594000000E+02  0.51100000000E-03 0.  1.
    9900012    2    1    2    0    0  0.11780719672E+02  0.38914016320E+02  0.28096696486E+00  0.50528868620E+02  0.30000026657E+02 0.  0.
        -12    1    1    2    0    0 -0.11780719672E+02 -0.38914016320E+02 -0.28096696486E+00  0.40659131380E+02  0.00000000000E+00 0.  1.
         11    1    3    3    0    0  0.75256844624E+01  0.96848867849E+01 -0.14851717401E+00  0.12266010610E+02  0.51100000000E-03 0. -1.
        -11    1    3    3    0    0  0.12566268345E+02  0.11737301881E+02 -0.54260375969E+01  0.18031007732E+02  0.51100000000E-03 0.  1.
        -12    1    3    3    0    0 -0.83112331350E+01  0.17491827654E+02  0.58555217357E+01  0.20231850278E+02  0.00000000000E+00 0.  1.
</event>
<event>
 7    1  0.5487071E-013  0.5052885E+02  0.7816164E-02  0.1300439E+00
        -11   -1    0    0    0    0  0.00000000000E+00  0.00000000000E+00  0.45593999997E+02  0.45594000000E+02  0.51100000000E-03 0.  1.
         11   -1    0    0    0    0 -0.00000000000E+00 -0.00000000000E+00 -0.45593999997E+02  0.45594000000E+02  0.51100000000E-03 0. -1.
    9900012    2    1    2    0    0  0.53277407868E+01  0.39655882953E+02  0.72244264795E+01  0.50528853273E+02  0.29999980007E+02 0.  0.
        -12    1    1    2    0    0 -0.53277407868E+01 -0.39655882953E+02 -0.72244264795E+01  0.40659146727E+02  0.00000000000E+00 0.  1.
         11    1    3    3    0    0  0.65366521328E+01  0.12454541762E+02  0.15032176673E+01  0.14145780120E+02  0.51100000000E-03 0. -1.
        -11    1    3    3    0    0  0.57947116783E+01  0.24755849479E+02  0.10555010700E+02  0.27528876075E+02  0.51100000000E-03 0.  1.
         12    1    3    3    0    0 -0.70036230243E+01  0.24454917124E+01 -0.48338018878E+01  0.88541970766E+01  0.00000000000E+00 0. -1.
</event>
<event>
 7    1  0.5487071E-013  0.5052885E+02  0.7816164E-02  0.1300439E+00
        -11   -1    0    0    0    0  0.00000000000E+00  0.00000000000E+00  0.45593999997E+02  0.45594000000E+02  0.51100000000E-03 0. -1.
         11   -1    0    0    0    0 -0.00000000000E+00 -0.00000000000E+00 -0.45593999997E+02  0.45594000000E+02  0.51100000000E-03 0.  1.
    9900012    2    1    2    0    0  0.38592822053E+02 -0.12702909424E+02  0.15480848940E+01  0.50528851107E+02  0.29999973426E+02 0.  0.
        -12    1    1    2    0    0 -0.38592822053E+02  0.12702909424E+02 -0.15480848940E+01  0.40659148893E+02  0.00000000000E+00 0.  1.
         11    1    3    3    0    0  0.29893659789E+02 -0.83545392880E+01 -0.32607371759E+00  0.31040868974E+02  0.51100000000E-03 0. -1.
        -11    1    3    3    0    0  0.24351355288E+01  0.14841302200E+01 -0.67560655457E+01  0.73332768578E+01  0.51100000000E-03 0.  1.
         12    1    3    3    0    0  0.62640267346E+01 -0.58325003561E+01  0.86302241573E+01  0.12154705276E+02  0.00000000000E+00 0. -1.
</event>
<event>
 7    1  0.5487071E-013  0.5052886E+02  0.7816164E-02  0.1300439E+00
        -11   -1    0    0    0    0  0.00000000000E+00  0.00000000000E+00  0.45593999997E+02  0.45594000000E+02  0.51100000000E-03 0.  1.
         11   -1    0    0    0    0 -0.00000000000E+00 -0.00000000000E+00 -0.45593999997E+02  0.45594000000E+02  0.51100000000E-03 0. -1.
    9900012    2    1    2    0    0 -0.51103750136E+01 -0.26165626834E+02 -0.30698686533E+02  0.50528864308E+02  0.30000013549E+02 0.  0.
        -12    1    1    2    0    0  0.51103750136E+01  0.26165626834E+02  0.30698686533E+02  0.40659135692E+02  0.00000000000E+00 0.  1.
         11    1    3    3    0    0  0.13674755754E+00 -0.62857499611E+01 -0.16952577979E+02  0.18080908518E+02  0.51100000000E-03 0. -1.
        -11    1    3    3    0    0  0.66037994865E+01 -0.22031828021E+01 -0.75783101955E+01  0.10290528062E+02  0.51100000000E-03 0.  1.
        -12    1    3    3    0    0 -0.11850922058E+02 -0.17676694070E+02 -0.61677983594E+01  0.22157427727E+02  0.00000000000E+00 0.  1.
</event>
<event>
 7    1  0.5487071E-013  0.5052879E+02  0.7816164E-02  0.1300439E+00
        -11   -1    0    0    0    0  0.00000000000E+00  0.00000000000E+00  0.45593999997E+02  0.45594000000E+02  0.51100000000E-03 0.  1.
         11   -1    0    0    0    0 -0.00000000000E+00 -0.00000000000E+00 -0.45593999997E+02  0.45594000000E+02  0.51100000000E-03 0. -1.
    9900012    2    1    2    0    0 -0.33347453578E+02  0.53139620826E+01 -0.22646857903E+02  0.50528794080E+02  0.29999800086E+02 0.  0.
        -12    1    1    2    0    0  0.33347453578E+02 -0.53139620826E+01  0.22646857903E+02  0.40659205920E+02  0.00000000000E+00 0.  1.
         11    1    3    3    0    0 -0.11946932794E+02 -0.57436109457E-01 -0.72859450947E+01  0.13993480563E+02  0.51100000000E-03 0. -1.
        -11    1    3    3    0    0 -0.25639849022E+02  0.84520444824E+01 -0.93723711486E+01  0.28577618078E+02  0.51100000000E-03 0.  1.
         12    1    3    3    0    0  0.42393282386E+01 -0.30806462904E+01 -0.59885416597E+01  0.79576954384E+01  0.00000000000E+00 0. -1.
</event>
<event>
 7    1  0.5487071E-013  0.5052886E+02  0.7816164E-02  0.1300439E+00
        -11   -1    0    0    0    0  0.00000000000E+00  0.00000000000E+00  0.45593999997E+02  0.45594000000E+02  0.51100000000E-03 0. -1.
         11   -1    0    0    0    0 -0.00000000000E+00 -0.00000000000E+00 -0.45593999997E+02  0.45594000000E+02  0.51100000000E-03 0.  1.
    9900012    2    1    2    0    0  0.37195783557E+02 -0.13016229112E+02  0.10010864801E+02  0.50528856517E+02  0.29999989870E+02 0.  0.
        -12    1    1    2    0    0 -0.37195783557E+02  0.13016229112E+02 -0.10010864801E+02  0.40659143483E+02  0.00000000000E+00 0.  1.
         11    1    3    3    0    0  0.14729636422E+02 -0.62880134911E+01 -0.35784605477E+01  0.16410566198E+02  0.51100000000E-03 0. -1.
        -11    1    3    3    0    0  0.84990142182E+01 -0.43915894923E+01 -0.49642183471E+01  0.10777883141E+02  0.51100000000E-03 0.  1.
        -12    1    3    3    0    0  0.13967132917E+02 -0.23366261283E+01  0.18553543696E+02  0.23340407178E+02  0.00000000000E+00 0.  1.
</event>
<event>
 7    1  0.5487071E-013  0.5052887E+02  0.7816164E-02  0.1300439E+00
        -11   -1    0    0    0    0  0.00000000000E+00  0.00000000000E+00  0.45593999997E+02  0.45594000000E+02  0.51100000000E-03 0.  1.
         11   -1    0    0    0    0 -0.00000000000E+00 -0.00000000000E+00 -0.45593999997E+02  0.45594000000E+02  0.51100000000E-03 0. -1.
    9900012    2    1    2    0    0 -0.42103646673E+01 -0.14645349435E+02 -0.37695506026E+02  0.50528873039E+02  0.30000040089E+02 0.  0.
        -12    1    1    2    0    0  0.42103646673E+01  0.14645349435E+02  0.37695506026E+02  0.40659126961E+02  0.00000000000E+00 0.  1.
         11    1    3    3    0    0 -0.36760433261E+01  0.28763670218E+01 -0.22717155728E+02  0.23191721506E+02  0.51100000000E-03 0. -1.
        -11    1    3    3    0    0 -0.33119417239E+01  0.14883298073E+01 -0.28658353250E+01  0.46256995113E+01  0.51100000000E-03 0.  1.
        -12    1    3    3    0    0  0.27776203827E+01 -0.19010046264E+02 -0.12112514973E+02  0.22711452021E+02  0.00000000000E+00 0.  1.
</event>
<event>
 7    1  0.5487071E-013  0.5052886E+02  0.7816164E-02  0.1300439E+00
        -11   -1    0    0    0    0  0.00000000000E+00  0.00000000000E+00  0.45593999997E+02  0.45594000000E+02  0.51100000000E-03 0.  1.
         11   -1    0    0    0    0 -0.00000000000E+00 -0.00000000000E+00 -0.45593999997E+02  0.45594000000E+02  0.51100000000E-03 0. -1.
    9900012    2    1    2    0    0 -0.33581493722E+02  0.75020978428E+01 -0.21660273338E+02  0.50528860392E+02  0.30000001646E+02 0.  0.
        -12    1    1    2    0    0  0.33581493722E+02 -0.75020978428E+01  0.21660273338E+02  0.40659139608E+02  0.00000000000E+00 0.  1.
         11    1    3    3    0    0 -0.72029852724E+01  0.12894686531E+02 -0.17474911485E+02  0.22880744508E+02  0.51100000000E-03 0. -1.
        -11    1    3    3    0    0 -0.41442428986E+01 -0.26656106555E+01 -0.65838370312E+00  0.49712874319E+01  0.51100000000E-03 0.  1.
        -12    1    3    3    0    0 -0.22234265551E+02 -0.27269780329E+01 -0.35269781502E+01  0.22676828452E+02  0.00000000000E+00 0.  1.
</event>
<event>
 7    1  0.5487071E-013  0.5052887E+02  0.7816164E-02  0.1300439E+00
        -11   -1    0    0    0    0  0.00000000000E+00  0.00000000000E+00  0.45593999997E+02  0.45594000000E+02  0.51100000000E-03 0. -1.
         11   -1    0    0    0    0 -0.00000000000E+00 -0.00000000000E+00 -0.45593999997E+02  0.45594000000E+02  0.51100000000E-03 0.  1.
    9900012    2    1    2    0    0 -0.66604326844E+01  0.31024613873E+02  0.25421977526E+02  0.50528868543E+02  0.30000026425E+02 0.  0.
        -12    1    1    2    0    0  0.66604326844E+01 -0.31024613873E+02 -0.25421977526E+02  0.40659131457E+02  0.00000000000E+00 0.  1.
         11    1    3    3    0    0 -0.20320931643E+01  0.77075872161E+01  0.97839612156E+01  0.12619912862E+02  0.51100000000E-03 0. -1.
        -11    1    3    3    0    0 -0.13467876315E+01  0.28385831886E+02  0.13838957563E+02  0.31608322250E+02  0.51100000000E-03 0.  1.
        -12    1    3    3    0    0 -0.32815518886E+01 -0.50688052297E+01  0.17990587473E+01  0.63006334309E+01  0.00000000000E+00 0.  1.
</event>
<event>
 7    1  0.5487071E-013  0.5052886E+02  0.7816164E-02  0.1300439E+00
        -11   -1    0    0    0    0  0.00000000000E+00  0.00000000000E+00  0.45593999997E+02  0.45594000000E+02  0.51100000000E-03 0.  1.
         11   -1    0    0    0    0 -0.00000000000E+00 -0.00000000000E+00 -0.45593999997E+02  0.45594000000E+02  0.51100000000E-03 0. -1.
    9900012    2    1    2    0    0 -0.39466628930E+02 -0.36623060279E+01 -0.90630375920E+01  0.50528856687E+02  0.29999990387E+02 0.  0.
        -12    1    1    2    0    0  0.39466628930E+02  0.36623060279E+01  0.90630375920E+01  0.40659143313E+02  0.00000000000E+00 0.  1.
         11    1    3    3    0    0 -0.67393018795E+01  0.65558534562E+00 -0.96773655745E+01  0.11810985848E+02  0.51100000000E-03 0. -1.
        -11    1    3    3    0    0 -0.75204829427E+01 -0.78122062913E+01 -0.60425161402E+01  0.12413711467E+02  0.51100000000E-03 0.  1.
         12    1    3    3    0    0 -0.25206844108E+02  0.34943149178E+01  0.66568441227E+01  0.26304159372E+02  0.00000000000E+00 0. -1.
</event>
<event>
 7    1  0.5487071E-013  0.5052886E+02  0.7816164E-02  0.1300439E+00
        -11   -1    0    0    0    0  0.00000000000E+00  0.00000000000E+00  0.45593999997E+02  0.45594000000E+02  0.51100000000E-03 0.  1.
         11   -1    0    0    0    0 -0.00000000000E+00 -0.00000000000E+00 -0.45593999997E+02  0.45594000000E+02  0.51100000000E-03 0. -1.
    9900012    2    1    2    0    0  0.18144418653E+01  0.30018410718E+02 -0.27363630429E+02  0.50528862632E+02  0.30000008455E+02 0.  0.
        -12    1    1    2    0    0 -0.18144418653E+01 -0.30018410718E+02  0.27363630429E+02  0.40659137368E+02  0.00000000000E+00 0.  1.
         11    1    3    3    0    0 -0.49832338545E+00  0.14473377709E+02 -0.16869181339E+02  0.22232774631E+02  0.51100000000E-03 0. -1.
        -11    1    3    3    0    0  0.18359444568E+01  0.19843936236E+02 -0.12504161548E+02  0.23526719994E+02  0.51100000000E-03 0.  1.
         12    1    3    3    0    0  0.47682079398E+00 -0.42989032263E+01  0.20097124586E+01  0.47693680068E+01  0.00000000000E+00 0. -1.
</event>
<event>
 7    1  0.5487071E-013  0.5052888E+02  0.7816164E-02  0.1300439E+00
        -11   -1    0    0    0    0  0.00000000000E+00  0.00000000000E+00  0.45593999997E+02  0.45594000000E+02  0.51100000000E-03 0.  1.
         11   -1    0    0    0    0 -0.00000000000E+00 -0.00000000000E+00 -0.45593999997E+02  0.45594000000E+02  0.51100000000E-03 0. -1.
    9900012    2    1    2    0    0  0.36152761222E+02  0.48952574934E+01  0.17949319964E+02  0.50528883223E+02  0.30000071046E+02 0.  0.
        -12    1    1    2    0    0 -0.36152761222E+02 -0.48952574934E+01 -0.17949319964E+02  0.40659116777E+02  0.00000000000E+00 0.  1.
         11    1    3    3    0    0  0.63894537353E+01  0.45285361462E+01  0.11168310465E+02  0.13640524828E+02  0.51100000000E-03 0. -1.
        -11    1    3    3    0    0  0.22638857633E+01 -0.73374321295E+01  0.90499622223E+00  0.77318889948E+01  0.51100000000E-03 0.  1.
        -12    1    3    3    0    0  0.27499421723E+02  0.77041534767E+01  0.58760132759E+01  0.29156469401E+02  0.00000000000E+00 0.  1.
</event>
<event>
 7    1  0.5487071E-013  0.5052886E+02  0.7816164E-02  0.1300439E+00
        -11   -1    0    0    0    0  0.00000000000E+00  0.00000000000E+00  0.45593999997E+02  0.45594000000E+02  0.51100000000E-03 0. -1.
         11   -1    0    0    0    0 -0.00000000000E+00 -0.00000000000E+00 -0.45593999997E+02  0.45594000000E+02  0.51100000000E-03 0.  1.
    9900012    2    1    2    0    0 -0.27150913514E+02  0.28042169393E+02  0.11385533748E+02  0.50528858990E+02  0.29999997387E+02 0.  0.
        -12    1    1    2    0    0  0.27150913514E+02 -0.28042169393E+02 -0.11385533748E+02  0.40659141010E+02  0.00000000000E+00 0.  1.
         11    1    3    3    0    0 -0.24074405455E+02  0.20781221029E+02  0.16537429013E+02  0.35845818502E+02  0.51100000000E-03 0.  1.
        -11    1    3    3    0    0 -0.95555753879E+00  0.31772726606E+01  0.35377885050E+01  0.48501648979E+01  0.51100000000E-03 0. -1.
        -12    1    3    3    0    0 -0.21209505206E+01  0.40836757031E+01 -0.86896837699E+01  0.98328755906E+01  0.00000000000E+00 0.  1.
</event>
<event>
 7    1  0.5487071E-013  0.5052886E+02  0.7816164E-02  0.1300439E+00
        -11   -1    0    0    0    0  0.00000000000E+00  0.00000000000E+00  0.45593999997E+02  0.45594000000E+02  0.51100000000E-03 0.  1.
         11   -1    0    0    0    0 -0.00000000000E+00 -0.00000000000E+00 -0.45593999997E+02  0.45594000000E+02  0.51100000000E-03 0. -1.
    9900012    2    1    2    0    0  0.28638307532E+02 -0.90094999680E+00 -0.28847899300E+02  0.50528860029E+02  0.30000000544E+02 0.  0.
        -12    1    1    2    0    0 -0.28638307532E+02  0.90094999680E+00  0.28847899300E+02  0.40659139971E+02  0.00000000000E+00 0.  1.
         11    1    3    3    0    0  0.11996870965E+02 -0.10222812287E+02 -0.16788921572E+02  0.23028215125E+02  0.51100000000E-03 0. -1.
        -11    1    3    3    0    0 -0.93074957516E+00 -0.24584407997E+01 -0.41551342566E+01  0.49168452171E+01  0.51100000000E-03 0.  1.
        -12    1    3    3    0    0  0.17572186142E+02  0.11780303090E+02 -0.79038434711E+01  0.22583799687E+02  0.00000000000E+00 0.  1.
</event>
<event>
 7    1  0.5487071E-013  0.5052886E+02  0.7816164E-02  0.1300439E+00
        -11   -1    0    0    0    0  0.00000000000E+00  0.00000000000E+00  0.45593999997E+02  0.45594000000E+02  0.51100000000E-03 0.  1.
         11   -1    0    0    0    0 -0.00000000000E+00 -0.00000000000E+00 -0.45593999997E+02  0.45594000000E+02  0.51100000000E-03 0. -1.
    9900012    2    1    2    0    0 -0.11992016804E+02 -0.94454450286E+01 -0.37684751656E+02  0.50528863189E+02  0.30000010151E+02 0.  0.
        -12    1    1    2    0    0  0.11992016804E+02  0.94454450286E+01  0.37684751656E+02  0.40659136811E+02  0.00000000000E+00 0.  1.
         11    1    3    3    0    0 -0.46239347878E+01 -0.15918729785E+02 -0.31900350262E+02  0.35950230570E+02  0.51100000000E-03 0. -1.
        -11    1    3    3    0    0 -0.24280964599E+01  0.52187741473E+00 -0.63550479137E+01  0.68230962693E+01  0.51100000000E-03 0.  1.
        -12    1    3    3    0    0 -0.49399855560E+01  0.59514073412E+01  0.57064652020E+00  0.77555363506E+01  0.00000000000E+00 0.  1.
</event>
<event>
 7    1  0.5487071E-013  0.5052885E+02  0.7816164E-02  0.1300439E+00
        -11   -1    0    0    0    0  0.00000000000E+00  0.00000000000E+00  0.45593999997E+02  0.45594000000E+02  0.51100000000E-03 0. -1.
         11   -1    0    0    0    0 -0.00000000000E+00 -0.00000000000E+00 -0.45593999997E+02  0.45594000000E+02  0.51100000000E-03 0.  1.
    9900012    2    1    2    0    0 -0.95311115193E+01 -0.29195965023E+02  0.26644316837E+02  0.50528854902E+02  0.29999984959E+02 0.  0.
        -12    1    1    2    0    0  0.95311115193E+01  0.29195965023E+02 -0.26644316837E+02  0.40659145098E+02  0.00000000000E+00 0.  1.
         11    1    3    3    0    0 -0.21196274457E+01  0.23577603220E+01 -0.16872052712E+01  0.35914504219E+01  0.51100000000E-03 0. -1.
        -11    1    3    3    0    0 -0.47660611278E+01 -0.16316655958E+02  0.26334300204E+02  0.31343962223E+02  0.51100000000E-03 0.  1.
         12    1    3    3    0    0 -0.26454229458E+01 -0.15237069387E+02  0.19972219037E+01  0.15593442256E+02  0.00000000000E+00 0. -1.
</event>
<event>
 7    1  0.5487071E-013  0.5052886E+02  0.7816164E-02  0.1300439E+00
        -11   -1    0    0    0    0  0.00000000000E+00  0.00000000000E+00  0.45593999997E+02  0.45594000000E+02  0.51100000000E-03 0.  1.
         11   -1    0    0    0    0 -0.00000000000E+00 -0.00000000000E+00 -0.45593999997E+02  0.45594000000E+02  0.51100000000E-03 0. -1.
    9900012    2    1    2    0    0 -0.38835909388E+02 -0.11054942599E+02 -0.47671661563E+01  0.50528862195E+02  0.30000007128E+02 0.  0.
        -12    1    1    2    0    0  0.38835909388E+02  0.11054942599E+02  0.47671661563E+01  0.40659137805E+02  0.00000000000E+00 0.  1.
         11    1    3    3    0    0 -0.81095203595E+01  0.57876000107E+01  0.58946717532E+01  0.11576173361E+02  0.51100000000E-03 0. -1.
        -11    1    3    3    0    0 -0.60872093090E+01 -0.74731482756E+01  0.17832295916E+01  0.98021411109E+01  0.51100000000E-03 0.  1.
         12    1    3    3    0    0 -0.24639179720E+02 -0.93693943337E+01 -0.12445067501E+02  0.29150547723E+02  0.00000000000E+00 0. -1.
</event>
<event>
 7    1  0.5487071E-013  0.5052885E+02  0.7816164E-02  0.1300439E+00
        -11   -1    0    0    0    0  0.00000000000E+00  0.00000000000E+00  0.45593999997E+02  0.45594000000E+02  0.51100000000E-03 0.  1.
         11   -1    0    0    0    0 -0.00000000000E+00 -0.00000000000E+00 -0.45593999997E+02  0.45594000000E+02  0.51100000000E-03 0. -1.
    9900012    2    1    2    0    0 -0.17647206834E+02 -0.10220281577E+02 -0.35175107946E+02  0.50528852400E+02  0.29999977356E+02 0.  0.
        -12    1    1    2    0    0  0.17647206834E+02  0.10220281577E+02  0.35175107946E+02  0.40659147600E+02  0.00000000000E+00 0.  1.
         11    1    3    3    0    0 -0.12485284137E+02 -0.26530875389E+01 -0.94125303481E+01  0.15859285018E+02  0.51100000000E-03 0. -1.
        -11    1    3    3    0    0 -0.12530559118E+02 -0.93244324744E+01 -0.17719913801E+02  0.23621077413E+02  0.51100000000E-03 0.  1.
        -12    1    3    3    0    0  0.73686364218E+01  0.17572384363E+01 -0.80426637964E+01  0.11048489968E+02  0.00000000000E+00 0.  1.
</event>
<event>
 7    1  0.5487071E-013  0.5052886E+02  0.7816164E-02  0.1300439E+00
        -11   -1    0    0    0    0  0.00000000000E+00  0.00000000000E+00  0.45593999997E+02  0.45594000000E+02  0.51100000000E-03 0.  1.
         11   -1    0    0    0    0 -0.00000000000E+00 -0.00000000000E+00 -0.45593999997E+02  0.45594000000E+02  0.51100000000E-03 0. -1.
    9900012    2    1    2    0    0  0.35941224690E+02  0.91720217994E+01 -0.16651373071E+02  0.50528857839E+02  0.29999993886E+02 0.  0.
        -12    1    1    2    0    0 -0.35941224690E+02 -0.91720217994E+01  0.16651373071E+02  0.40659142161E+02  0.00000000000E+00 0.  1.
         11    1    3    3    0    0  0.16904024708E+02  0.13880510404E+02 -0.20608466844E+00  0.21873662052E+02  0.51100000000E-03 0. -1.
        -11    1    3    3    0    0  0.17758176463E+01  0.30968886794E+01 -0.16764454582E-02  0.35699090853E+01  0.51100000000E-03 0.  1.
         12    1    3    3    0    0  0.17261382336E+02 -0.78053772837E+01 -0.16443611958E+02  0.25085286702E+02  0.00000000000E+00 0. -1.
</event>
<event>
 7    1  0.5487071E-013  0.5052886E+02  0.7816164E-02  0.1300439E+00
        -11   -1    0    0    0    0  0.00000000000E+00  0.00000000000E+00  0.45593999997E+02  0.45594000000E+02  0.51100000000E-03 0.  1.
         11   -1    0    0    0    0 -0.00000000000E+00 -0.00000000000E+00 -0.45593999997E+02  0.45594000000E+02  0.51100000000E-03 0. -1.
    9900012    2    1    2    0    0  0.94142146674E+01 -0.35386293030E+02 -0.17673395128E+02  0.50528855056E+02  0.29999985428E+02 0.  0.
        -12    1    1    2    0    0 -0.94142146674E+01  0.35386293030E+02  0.17673395128E+02  0.40659144944E+02  0.00000000000E+00 0.  1.
         11    1    3    3    0    0  0.38145544366E+01 -0.10563955868E+01  0.17451065133E+01  0.43257593772E+01  0.51100000000E-03 0. -1.
        -11    1    3    3    0    0 -0.71148339749E+01 -0.13720686140E+02 -0.48332353268E+00  0.15463236807E+02  0.51100000000E-03 0.  1.
         12    1    3    3    0    0  0.12714494206E+02 -0.20609211303E+02 -0.18935178109E+02  0.30739858872E+02  0.00000000000E+00 0. -1.
</event>
<event>
 7    1  0.5487071E-013  0.5052886E+02  0.7816164E-02  0.1300439E+00
        -11   -1    0    0    0    0  0.00000000000E+00  0.00000000000E+00  0.45593999997E+02  0.45594000000E+02  0.51100000000E-03 0.  1.
         11   -1    0    0    0    0 -0.00000000000E+00 -0.00000000000E+00 -0.45593999997E+02  0.45594000000E+02  0.51100000000E-03 0. -1.
    9900012    2    1    2    0    0  0.84877725596E+01 -0.17276587138E+02 -0.35814005208E+02  0.50528859389E+02  0.29999998600E+02 0.  0.
        -12    1    1    2    0    0 -0.84877725596E+01  0.17276587138E+02  0.35814005208E+02  0.40659140611E+02  0.00000000000E+00 0.  1.
         11    1    3    3    0    0 -0.56987267274E+01 -0.37883606954E+01 -0.15521097685E+02  0.16962654176E+02  0.51100000000E-03 0. -1.
        -11    1    3    3    0    0 -0.32200718884E+01  0.69195780115E+00  0.13833641059E-01  0.32936089925E+01  0.51100000000E-03 0.  1.
        -12    1    3    3    0    0  0.17406571175E+02 -0.14180184244E+02 -0.20306741164E+02  0.30272596221E+02  0.00000000000E+00 0.  1.
</event>
<event>
 7    1  0.5487071E-013  0.5052886E+02  0.7816164E-02  0.1300439E+00
        -11   -1    0    0    0    0  0.00000000000E+00  0.00000000000E+00  0.45593999997E+02  0.45594000000E+02  0.51100000000E-03 0.  1.
         11   -1    0    0    0    0 -0.00000000000E+00 -0.00000000000E+00 -0.45593999997E+02  0.45594000000E+02  0.51100000000E-03 0. -1.
    9900012    2    1    2    0    0 -0.17255296919E+01  0.39105969832E+01 -0.40433835517E+02  0.50528864789E+02  0.30000015014E+02 0.  0.
        -12    1    1    2    0    0  0.17255296919E+01 -0.39105969832E+01  0.40433835517E+02  0.40659135211E+02  0.00000000000E+00 0.  1.
         11    1    3    3    0    0  0.85905082083E+01  0.31410519850E+01 -0.18293285231E+02  0.20452562765E+02  0.51100000000E-03 0. -1.
        -11    1    3    3    0    0 -0.35200737150E+01  0.89526456950E+01 -0.90373251945E+01  0.13199016283E+02  0.51100000000E-03 0.  1.
         12    1    3    3    0    0 -0.67959641852E+01 -0.81831006968E+01 -0.13103225091E+02  0.16877285741E+02  0.00000000000E+00 0. -1.
</event>
<event>
 7    1  0.5487071E-013  0.5052887E+02  0.7816164E-02  0.1300439E+00
        -11   -1    0    0    0    0  0.00000000000E+00  0.00000000000E+00  0.45593999997E+02  0.45594000000E+02  0.51100000000E-03 0.  1.
         11   -1    0    0    0    0 -0.00000000000E+00 -0.00000000000E+00 -0.45593999997E+02  0.45594000000E+02  0.51100000000E-03 0. -1.
    9900012    2    1    2    0    0  0.13001709323E+02  0.28742647203E+02 -0.25651136843E+02  0.50528867756E+02  0.30000024030E+02 0.  0.
        -12    1    1    2    0    0 -0.13001709323E+02 -0.28742647203E+02  0.25651136843E+02  0.40659132244E+02  0.00000000000E+00 0.  1.
         11    1    3    3    0    0  0.27731389745E+01  0.29139921625E+01 -0.10055302060E+02  0.10830085404E+02  0.51100000000E-03 0.  1.
        -11    1    3    3    0    0  0.66095664681E+01  0.12768368358E+02  0.48461273366E+01  0.15172427289E+02  0.51100000000E-03 0. -1.
         12    1    3    3    0    0  0.36190038801E+01  0.13060286682E+02 -0.20441962120E+02  0.24526355062E+02  0.00000000000E+00 0. -1.
</event>
<event>
 7    1  0.5487071E-013  0.5052884E+02  0.7816164E-02  0.1300439E+00
        -11   -1    0    0    0    0  0.00000000000E+00  0.00000000000E+00  0.45593999997E+02  0.45594000000E+02  0.51100000000E-03 0.  1.
         11   -1    0    0    0    0 -0.00000000000E+00 -0.00000000000E+00 -0.45593999997E+02  0.45594000000E+02  0.51100000000E-03 0. -1.
    9900012    2    1    2    0    0 -0.24797373223E+02 -0.29700442901E+02 -0.12495664470E+02  0.50528835500E+02  0.29999925986E+02 0.  0.
        -12    1    1    2    0    0  0.24797373223E+02  0.29700442901E+02  0.12495664470E+02  0.40659164500E+02  0.00000000000E+00 0.  1.
         11    1    3    3    0    0 -0.14049203676E+02 -0.20498497529E+02 -0.69387458678E+01  0.25801448009E+02  0.51100000000E-03 0. -1.
        -11    1    3    3    0    0 -0.13450753621E+02 -0.10262155257E+02 -0.98258782739E+01  0.19564827820E+02  0.51100000000E-03 0.  1.
        -12    1    3    3    0    0  0.27025840742E+01  0.10602098852E+01  0.42689596721E+01  0.51625596714E+01  0.00000000000E+00 0.  1.
</event>
<event>
 7    1  0.5487071E-013  0.5052885E+02  0.7816164E-02  0.1300439E+00
        -11   -1    0    0    0    0  0.00000000000E+00  0.00000000000E+00  0.45593999997E+02  0.45594000000E+02  0.51100000000E-03 0.  1.
         11   -1    0    0    0    0 -0.00000000000E+00 -0.00000000000E+00 -0.45593999997E+02  0.45594000000E+02  0.51100000000E-03 0. -1.
    9900012    2    1    2    0    0  0.33013240622E+02  0.49829131592E+01 -0.23204807975E+02  0.50528848593E+02  0.29999965784E+02 0.  0.
        -12    1    1    2    0    0 -0.33013240622E+02 -0.49829131592E+01  0.23204807975E+02  0.40659151407E+02  0.00000000000E+00 0.  1.
         11    1    3    3    0    0  0.21403102140E+01 -0.24315012183E+01 -0.15768883325E+01  0.36027354970E+01  0.51100000000E-03 0. -1.
        -11    1    3    3    0    0 -0.25943995733E+01 -0.51780580285E+01 -0.19491568665E+01  0.61108433824E+01  0.51100000000E-03 0.  1.
        -12    1    3    3    0    0  0.33467329982E+02  0.12592472406E+02 -0.19678762776E+02  0.40815269714E+02  0.00000000000E+00 0.  1.
</event>
<event>
 7    1  0.5487071E-013  0.5052885E+02  0.7816164E-02  0.1300439E+00
        -11   -1    0    0    0    0  0.00000000000E+00  0.00000000000E+00  0.45593999997E+02  0.45594000000E+02  0.51100000000E-03 0. -1.
         11   -1    0    0    0    0 -0.00000000000E+00 -0.00000000000E+00 -0.45593999997E+02  0.45594000000E+02  0.51100000000E-03 0.  1.
    9900012    2    1    2    0    0  0.27799392933E+02 -0.31870919236E+00  0.29669152330E+02  0.50528850685E+02  0.29999972143E+02 0.  0.
        -12    1    1    2    0    0 -0.27799392933E+02  0.31870919236E+00 -0.29669152330E+02  0.40659149315E+02  0.00000000000E+00 0.  1.
         11    1    3    3    0    0  0.17268317378E+02 -0.26692387781E+01  0.11636191278E+02  0.20993345814E+02  0.51100000000E-03 0. -1.
        -11    1    3    3    0    0  0.47446537285E+01 -0.87698495963E+01  0.40667393797E+01  0.10768489699E+02  0.51100000000E-03 0.  1.
        -12    1    3    3    0    0  0.57864218262E+01  0.11120379182E+02  0.13966221672E+02  0.18767015173E+02  0.00000000000E+00 0.  1.
</event>
<event>
 7    1  0.5487071E-013  0.5052886E+02  0.7816164E-02  0.1300439E+00
        -11   -1    0    0    0    0  0.00000000000E+00  0.00000000000E+00  0.45593999997E+02  0.45594000000E+02  0.51100000000E-03 0.  1.
         11   -1    0    0    0    0 -0.00000000000E+00 -0.00000000000E+00 -0.45593999997E+02  0.45594000000E+02  0.51100000000E-03 0. -1.
    9900012    2    1    2    0    0 -0.23597436454E+02 -0.12753017357E+02 -0.30556298907E+02  0.50528857587E+02  0.29999993120E+02 0.  0.
        -12    1    1    2    0    0  0.23597436454E+02  0.12753017357E+02  0.30556298907E+02  0.40659142413E+02  0.00000000000E+00 0.  1.
         11    1    3    3    0    0 -0.42480913681E+01  0.42110669371E+00 -0.40072063011E+01  0.58550246558E+01  0.51100000000E-03 0. -1.
        -11    1    3    3    0    0 -0.71210028676E+01  0.20367811509E+01  0.40037494545E+01  0.84194518380E+01  0.51100000000E-03 0.  1.
         12    1    3    3    0    0 -0.12228342218E+02 -0.15210905201E+02 -0.30552842060E+02  0.36254381093E+02  0.00000000000E+00 0. -1.
</event>
<event>
 7    1  0.5487071E-013  0.5052887E+02  0.7816164E-02  0.1300439E+00
        -11   -1    0    0    0    0  0.00000000000E+00  0.00000000000E+00  0.45593999997E+02  0.45594000000E+02  0.51100000000E-03 0.  1.
         11   -1    0    0    0    0 -0.00000000000E+00 -0.00000000000E+00 -0.45593999997E+02  0.45594000000E+02  0.51100000000E-03 0. -1.
    9900012    2    1    2    0    0 -0.11525784966E+02  0.24591924593E+02 -0.30258199661E+02  0.50528866696E+02  0.30000020809E+02 0.  0.
        -12    1    1    2    0    0  0.11525784966E+02 -0.24591924593E+02  0.30258199661E+02  0.40659133304E+02  0.00000000000E+00 0.  1.
         11    1    3    3    0    0 -0.58265619405E+01  0.13681008347E+02 -0.12109392763E+02  0.19176970740E+02  0.51100000000E-03 0. -1.
        -11    1    3    3    0    0  0.52098815654E+00  0.16598889099E+02 -0.89114186777E+01  0.18846960792E+02  0.51100000000E-03 0.  1.
         12    1    3    3    0    0 -0.62202111817E+01 -0.56879728522E+01 -0.92373882210E+01  0.12504935164E+02  0.00000000000E+00 0. -1.
</event>
<event>
 7    1  0.5487071E-013  0.5052886E+02  0.7816164E-02  0.1300439E+00
        -11   -1    0    0    0    0  0.00000000000E+00  0.00000000000E+00  0.45593999997E+02  0.45594000000E+02  0.51100000000E-03 0.  1.
         11   -1    0    0    0    0 -0.00000000000E+00 -0.00000000000E+00 -0.45593999997E+02  0.45594000000E+02  0.51100000000E-03 0. -1.
    9900012    2    1    2    0    0  0.21552821851E+02 -0.32285710839E+02 -0.12094397653E+02  0.50528859469E+02  0.29999998843E+02 0.  0.
        -12    1    1    2    0    0 -0.21552821851E+02  0.32285710839E+02  0.12094397653E+02  0.40659140531E+02  0.00000000000E+00 0.  1.
         11    1    3    3    0    0  0.22113329033E+01 -0.23524513789E+02 -0.12620517104E+02  0.26787500713E+02  0.51100000000E-03 0. -1.
        -11    1    3    3    0    0  0.19310939336E+01 -0.28795630535E+01 -0.35020548120E+01  0.49280214413E+01  0.51100000000E-03 0.  1.
        -12    1    3    3    0    0  0.17410395014E+02 -0.58816339961E+01  0.40281742631E+01  0.18813337314E+02  0.00000000000E+00 0.  1.
</event>
<event>
 7    1  0.5487071E-013  0.5052885E+02  0.7816164E-02  0.1300439E+00
        -11   -1    0    0    0    0  0.00000000000E+00  0.00000000000E+00  0.45593999997E+02  0.45594000000E+02  0.51100000000E-03 0. -1.
         11   -1    0    0    0    0 -0.00000000000E+00 -0.00000000000E+00 -0.45593999997E+02  0.45594000000E+02  0.51100000000E-03 0.  1.
    9900012    2    1    2    0    0 -0.30088614696E+02 -0.27248734255E+02 -0.23125572679E+01  0.50528853748E+02  0.29999981453E+02 0.  0.
        -12    1    1    2    0    0  0.30088614696E+02  0.27248734255E+02  0.23125572679E+01  0.40659146252E+02  0.00000000000E+00 0.  1.
         11    1    3    3    0    0 -0.80823153669E+01  0.13185245507E+00  0.18022700507E+01  0.82818708247E+01  0.51100000000E-03 0. -1.
        -11    1    3    3    0    0  0.10885463435E+01 -0.12024110125E+02 -0.76429876337E+01  0.14289136352E+02  0.51100000000E-03 0.  1.
         12    1    3    3    0    0 -0.23094845673E+02 -0.15356476584E+02  0.35281603151E+01  0.27957846572E+02  0.00000000000E+00 0. -1.
</event>
<event>
 7    1  0.5487071E-013  0.5052889E+02  0.7816164E-02  0.1300439E+00
        -11   -1    0    0    0    0  0.00000000000E+00  0.00000000000E+00  0.45593999997E+02  0.45594000000E+02  0.51100000000E-03 0. -1.
         11   -1    0    0    0    0 -0.00000000000E+00 -0.00000000000E+00 -0.45593999997E+02  0.45594000000E+02  0.51100000000E-03 0.  1.
    9900012    2    1    2    0    0  0.31517907651E+02  0.15870179278E+02  0.20197090985E+02  0.50528885681E+02  0.30000078515E+02 0.  0.
        -12    1    1    2    0    0 -0.31517907651E+02 -0.15870179278E+02 -0.20197090985E+02  0.40659114319E+02  0.00000000000E+00 0.  1.
         11    1    3    3    0    0  0.11294804030E+02 -0.93527703090E+00  0.49348831194E+01  0.12361246412E+02  0.51100000000E-03 0. -1.
        -11    1    3    3    0    0 -0.39421611373E+01 -0.12753419547E+01  0.45212505477E+01  0.61326045291E+01  0.51100000000E-03 0.  1.
         12    1    3    3    0    0  0.24165264758E+02  0.18080798263E+02  0.10740957318E+02  0.32035034739E+02  0.00000000000E+00 0. -1.
</event>
<event>
 7    1  0.5487071E-013  0.5052886E+02  0.7816164E-02  0.1300439E+00
        -11   -1    0    0    0    0  0.00000000000E+00  0.00000000000E+00  0.45593999997E+02  0.45594000000E+02  0.51100000000E-03 0.  1.
         11   -1    0    0    0    0 -0.00000000000E+00 -0.00000000000E+00 -0.45593999997E+02  0.45594000000E+02  0.51100000000E-03 0. -1.
    9900012    2    1    2    0    0  0.27166304051E+02  0.27631582494E+02 -0.12314754521E+02  0.50528860734E+02  0.30000002688E+02 0.  0.
        -12    1    1    2    0    0 -0.27166304051E+02 -0.27631582494E+02  0.12314754521E+02  0.40659139266E+02  0.00000000000E+00 0.  1.
         11    1    3    3    0    0  0.12363879920E+02  0.12719693066E+02 -0.16334175786E+02  0.24113511093E+02  0.51100000000E-03 0. -1.
        -11    1    3    3    0    0 -0.83590934680E-01 -0.20367958487E+01  0.32599419965E+01  0.38448337877E+01  0.51100000000E-03 0.  1.
        -12    1    3    3    0    0  0.14886015065E+02  0.16948685277E+02  0.75947926859E+00  0.22570515854E+02  0.00000000000E+00 0.  1.
</event>
<event>
 7    1  0.5487071E-013  0.5052886E+02  0.7816164E-02  0.1300439E+00
        -11   -1    0    0    0    0  0.00000000000E+00  0.00000000000E+00  0.45593999997E+02  0.45594000000E+02  0.51100000000E-03 0.  1.
         11   -1    0    0    0    0 -0.00000000000E+00 -0.00000000000E+00 -0.45593999997E+02  0.45594000000E+02  0.51100000000E-03 0. -1.
    9900012    2    1    2    0    0 -0.59201812638E+01 -0.25518874938E+02 -0.31095084047E+02  0.50528858639E+02  0.29999996320E+02 0.  0.
        -12    1    1    2    0    0  0.59201812638E+01  0.25518874938E+02  0.31095084047E+02  0.40659141361E+02  0.00000000000E+00 0.  1.
         11    1    3    3    0    0 -0.13855056292E+00 -0.13096945615E+02 -0.76868336849E+01  0.15186724237E+02  0.51100000000E-03 0. -1.
        -11    1    3    3    0    0  0.32256802499E+01 -0.13488562617E+02 -0.48614923712E+01  0.14696273095E+02  0.51100000000E-03 0.  1.
        -12    1    3    3    0    0 -0.90073109508E+01  0.10666332936E+01 -0.18546757991E+02  0.20645861307E+02  0.00000000000E+00 0.  1.
</event>
<event>
 7    1  0.5487071E-013  0.5052886E+02  0.7816164E-02  0.1300439E+00
        -11   -1    0    0    0    0  0.00000000000E+00  0.00000000000E+00  0.45593999997E+02  0.45594000000E+02  0.51100000000E-03 0. -1.
         11   -1    0    0    0    0 -0.00000000000E+00 -0.00000000000E+00 -0.45593999997E+02  0.45594000000E+02  0.51100000000E-03 0.  1.
    9900012    2    1    2    0    0  0.21837123586E+02 -0.30095271271E+02 -0.16449327535E+02  0.50528859629E+02  0.29999999328E+02 0.  0.
        -12    1    1    2    0    0 -0.21837123586E+02  0.30095271271E+02  0.16449327535E+02  0.40659140371E+02  0.00000000000E+00 0.  1.
         11    1    3    3    0    0  0.13842031029E+02 -0.14217614635E+02 -0.10578587825E+02  0.22486638467E+02  0.51100000000E-03 0. -1.
        -11    1    3    3    0    0  0.79873758688E+01 -0.20196851923E+02 -0.81018173652E+01  0.23180820645E+02  0.51100000000E-03 0.  1.
         12    1    3    3    0    0  0.77166879955E-02  0.43191952877E+01  0.22310776555E+01  0.48614005169E+01  0.00000000000E+00 0. -1.
</event>
<event>
 7    1  0.5487071E-013  0.5052886E+02  0.7816164E-02  0.1300439E+00
        -11   -1    0    0    0    0  0.00000000000E+00  0.00000000000E+00  0.45593999997E+02  0.45594000000E+02  0.51100000000E-03 0.  1.
         11   -1    0    0    0    0 -0.00000000000E+00 -0.00000000000E+00 -0.45593999997E+02  0.45594000000E+02  0.51100000000E-03 0. -1.
    9900012    2    1    2    0    0  0.35771603190E+02  0.78115119794E+01 -0.17678749718E+02  0.50528861965E+02  0.30000006428E+02 0.  0.
        -12    1    1    2    0    0 -0.35771603190E+02 -0.78115119794E+01  0.17678749718E+02  0.40659138035E+02  0.00000000000E+00 0.  1.
         11    1    3    3    0    0  0.25682305376E+02 -0.53299856803E+01 -0.82089298336E+01  0.27484106063E+02  0.51100000000E-03 0. -1.
        -11    1    3    3    0    0  0.20776271752E+01 -0.26104569041E+01 -0.15612104239E+01  0.36835306672E+01  0.51100000000E-03 0.  1.
         12    1    3    3    0    0  0.80116706382E+01  0.15751954564E+02 -0.79086094603E+01  0.19361225235E+02  0.00000000000E+00 0. -1.
</event>
<event>
 7    1  0.5487071E-013  0.5052892E+02  0.7816164E-02  0.1300439E+00
        -11   -1    0    0    0    0  0.00000000000E+00  0.00000000000E+00  0.45593999997E+02  0.45594000000E+02  0.51100000000E-03 0.  1.
         11   -1    0    0    0    0 -0.00000000000E+00 -0.00000000000E+00 -0.45593999997E+02  0.45594000000E+02  0.51100000000E-03 0. -1.
    9900012    2    1    2    0    0 -0.67466738475E+01 -0.38435594781E+02 -0.11417001595E+02  0.50528923773E+02  0.30000194301E+02 0.  0.
        -12    1    1    2    0    0  0.67466738475E+01  0.38435594781E+02  0.11417001595E+02  0.40659076227E+02  0.00000000000E+00 0.  1.
         11    1    3    3    0    0  0.15789280335E+01 -0.24709405171E+02  0.45106062471E+01  0.25167305907E+02  0.51100000000E-03 0. -1.
        -11    1    3    3    0    0 -0.61941750283E-01 -0.29910366732E+01 -0.10241179309E+02  0.10669202925E+02  0.51100000000E-03 0.  1.
        -12    1    3    3    0    0 -0.82636601307E+01 -0.10735152937E+02 -0.56864285326E+01  0.14692414941E+02  0.00000000000E+00 0.  1.
</event>
<event>
 7    1  0.5487071E-013  0.5052886E+02  0.7816164E-02  0.1300439E+00
        -11   -1    0    0    0    0  0.00000000000E+00  0.00000000000E+00  0.45593999997E+02  0.45594000000E+02  0.51100000000E-03 0. -1.
         11   -1    0    0    0    0 -0.00000000000E+00 -0.00000000000E+00 -0.45593999997E+02  0.45594000000E+02  0.51100000000E-03 0.  1.
    9900012    2    1    2    0    0 -0.31014172492E+01 -0.36582557947E+02  0.17471797524E+02  0.50528855351E+02  0.29999986325E+02 0.  0.
        -12    1    1    2    0    0  0.31014172492E+01  0.36582557947E+02 -0.17471797524E+02  0.40659144649E+02  0.00000000000E+00 0.  1.
         11    1    3    3    0    0 -0.56231770206E+01 -0.75679461317E+01  0.15057242407E+02  0.17765541861E+02  0.51100000000E-03 0. -1.
        -11    1    3    3    0    0 -0.61814414511E+01 -0.11787283938E+02  0.19897808837E+01  0.13457693311E+02  0.51100000000E-03 0.  1.
         12    1    3    3    0    0  0.87032012225E+01 -0.17227327877E+02  0.42477423322E+00  0.19305620178E+02  0.00000000000E+00 0. -1.
</event>
<event>
 7    1  0.5487071E-013  0.5052888E+02  0.7816164E-02  0.1300439E+00
        -11   -1    0    0    0    0  0.00000000000E+00  0.00000000000E+00  0.45593999997E+02  0.45594000000E+02  0.51100000000E-03 0. -1.
         11   -1    0    0    0    0 -0.00000000000E+00 -0.00000000000E+00 -0.45593999997E+02  0.45594000000E+02  0.51100000000E-03 0.  1.
    9900012    2    1    2    0    0  0.35931671291E+02 -0.10270372106E+02  0.16018702512E+02  0.50528875869E+02  0.30000048691E+02 0.  0.
        -12    1    1    2    0    0 -0.35931671291E+02  0.10270372106E+02 -0.16018702512E+02  0.40659124131E+02  0.00000000000E+00 0.  1.
         11    1    3    3    0    0  0.21041918092E+02 -0.43169058313E+01  0.13073765700E+02  0.25146000533E+02  0.51100000000E-03 0. -1.
        -11    1    3    3    0    0  0.19050355772E+02 -0.15502143263E+01  0.16212898581E+01  0.19181965503E+02  0.51100000000E-03 0.  1.
        -12    1    3    3    0    0 -0.41606025735E+01 -0.44032519485E+01  0.13236469536E+01  0.62009098327E+01  0.00000000000E+00 0.  1.
</event>
<event>
 7    1  0.5487071E-013  0.5052887E+02  0.7816164E-02  0.1300439E+00
        -11   -1    0    0    0    0  0.00000000000E+00  0.00000000000E+00  0.45593999997E+02  0.45594000000E+02  0.51100000000E-03 0.  1.
         11   -1    0    0    0    0 -0.00000000000E+00 -0.00000000000E+00 -0.45593999997E+02  0.45594000000E+02  0.51100000000E-03 0. -1.
    9900012    2    1    2    0    0  0.32516486296E+02 -0.58058941097E+01 -0.23709369487E+02  0.50528874470E+02  0.30000044438E+02 0.  0.
        -12    1    1    2    0    0 -0.32516486296E+02  0.58058941097E+01  0.23709369487E+02  0.40659125530E+02  0.00000000000E+00 0.  1.
         11    1    3    3    0    0  0.44047429220E+01 -0.77089278961E+01 -0.12229025846E+02  0.15112193849E+02  0.51100000000E-03 0. -1.
        -11    1    3    3    0    0  0.54861277507E+01  0.48662628891E+01  0.34940875926E+01  0.81232235331E+01  0.51100000000E-03 0.  1.
         12    1    3    3    0    0  0.22625615623E+02 -0.29632291026E+01 -0.14974431233E+02  0.27293457088E+02  0.00000000000E+00 0. -1.
</event>
<event>
 7    1  0.5487071E-013  0.5052886E+02  0.7816164E-02  0.1300439E+00
        -11   -1    0    0    0    0  0.00000000000E+00  0.00000000000E+00  0.45593999997E+02  0.45594000000E+02  0.51100000000E-03 0.  1.
         11   -1    0    0    0    0 -0.00000000000E+00 -0.00000000000E+00 -0.45593999997E+02  0.45594000000E+02  0.51100000000E-03 0. -1.
    9900012    2    1    2    0    0 -0.35207983676E+02 -0.54887645439E+01 -0.19581545861E+02  0.50528860940E+02  0.30000003315E+02 0.  0.
        -12    1    1    2    0    0  0.35207983676E+02  0.54887645439E+01  0.19581545861E+02  0.40659139060E+02  0.00000000000E+00 0.  1.
         11    1    3    3    0    0  0.82553346406E-02 -0.13670210142E+01 -0.64383757572E+01  0.65819068100E+01  0.51100000000E-03 0. -1.
        -11    1    3    3    0    0 -0.30860875355E+01  0.38640683051E+01 -0.94089079550E+01  0.10629323088E+02  0.51100000000E-03 0.  1.
         12    1    3    3    0    0 -0.32130151475E+02 -0.79858118348E+01 -0.37342621488E+01  0.33317631042E+02  0.00000000000E+00 0. -1.
</event>
<event>
 7    1  0.5487071E-013  0.5052886E+02  0.7816164E-02  0.1300439E+00
        -11   -1    0    0    0    0  0.00000000000E+00  0.00000000000E+00  0.45593999997E+02  0.45594000000E+02  0.51100000000E-03 0.  1.
         11   -1    0    0    0    0 -0.00000000000E+00 -0.00000000000E+00 -0.45593999997E+02  0.45594000000E+02  0.51100000000E-03 0. -1.
    9900012    2    1    2    0    0  0.55659556099E+01  0.28071223419E+02 -0.28882387062E+02  0.50528859226E+02  0.29999998104E+02 0.  0.
        -12    1    1    2    0    0 -0.55659556099E+01 -0.28071223419E+02  0.28882387062E+02  0.40659140774E+02  0.00000000000E+00 0.  1.
         11    1    3    3    0    0  0.42336421553E+00 -0.15136136175E+01  0.24590242724E+01  0.29184009450E+01  0.51100000000E-03 0. -1.
        -11    1    3    3    0    0  0.39800814466E+01  0.58705500664E+01  0.13369442943E+01  0.72174667793E+01  0.51100000000E-03 0.  1.
         12    1    3    3    0    0  0.11625099477E+01  0.23714286970E+02 -0.32678355629E+02  0.40392991502E+02  0.00000000000E+00 0. -1.
</event>
<event>
 7    1  0.5487071E-013  0.5052886E+02  0.7816164E-02  0.1300439E+00
        -11   -1    0    0    0    0  0.00000000000E+00  0.00000000000E+00  0.45593999997E+02  0.45594000000E+02  0.51100000000E-03 0.  1.
         11   -1    0    0    0    0 -0.00000000000E+00 -0.00000000000E+00 -0.45593999997E+02  0.45594000000E+02  0.51100000000E-03 0. -1.
    9900012    2    1    2    0    0  0.25516387260E+02  0.20581942186E+02 -0.24051271864E+02  0.50528855380E+02  0.29999986413E+02 0.  0.
        -12    1    1    2    0    0 -0.25516387260E+02 -0.20581942186E+02  0.24051271864E+02  0.40659144620E+02  0.00000000000E+00 0.  1.
         11    1    3    3    0    0  0.65864443830E+01  0.27898394848E+01  0.50069901797E+01  0.87312315788E+01  0.51100000000E-03 0. -1.
        -11    1    3    3    0    0  0.11611477957E+01 -0.23586810218E+01 -0.67192926777E+00  0.27135087190E+01  0.51100000000E-03 0.  1.
         12    1    3    3    0    0  0.17768795082E+02  0.20150783723E+02 -0.28386332776E+02  0.39084115082E+02  0.00000000000E+00 0. -1.
</event>
<event>
 7    1  0.5487071E-013  0.5052887E+02  0.7816164E-02  0.1300439E+00
        -11   -1    0    0    0    0  0.00000000000E+00  0.00000000000E+00  0.45593999997E+02  0.45594000000E+02  0.51100000000E-03 0.  1.
         11   -1    0    0    0    0 -0.00000000000E+00 -0.00000000000E+00 -0.45593999997E+02  0.45594000000E+02  0.51100000000E-03 0. -1.
    9900012    2    1    2    0    0 -0.33811005890E+02  0.20699499533E+02 -0.90283878029E+01  0.50528865891E+02  0.30000018363E+02 0.  0.
        -12    1    1    2    0    0  0.33811005890E+02 -0.20699499533E+02  0.90283878029E+01  0.40659134109E+02  0.00000000000E+00 0.  1.
         11    1    3    3    0    0 -0.29302690313E+02  0.51130717791E+01 -0.19878418952E+01  0.29811787572E+02  0.51100000000E-03 0. -1.
        -11    1    3    3    0    0 -0.79867252387E+01  0.89939555625E+01 -0.42050507441E+01  0.12742113982E+02  0.51100000000E-03 0.  1.
        -12    1    3    3    0    0  0.34784096617E+01  0.65924721909E+01 -0.28354951637E+01  0.79749643376E+01  0.00000000000E+00 0.  1.
</event>
<event>
 7    1  0.5487071E-013  0.5052886E+02  0.7816164E-02  0.1300439E+00
        -11   -1    0    0    0    0  0.00000000000E+00  0.00000000000E+00  0.45593999997E+02  0.45594000000E+02  0.51100000000E-03 0.  1.
         11   -1    0    0    0    0 -0.00000000000E+00 -0.00000000000E+00 -0.45593999997E+02  0.45594000000E+02  0.51100000000E-03 0. -1.
    9900012    2    1    2    0    0 -0.13026045336E+01 -0.87160209560E+00 -0.40628922842E+02  0.50528857854E+02  0.29999993932E+02 0.  0.
        -12    1    1    2    0    0  0.13026045336E+01  0.87160209560E+00  0.40628922842E+02  0.40659142146E+02  0.00000000000E+00 0.  1.
         11    1    3    3    0    0 -0.36628069302E+01  0.20634216276E+01 -0.50071053173E+01  0.65379635469E+01  0.51100000000E-03 0. -1.
        -11    1    3    3    0    0  0.99415027208E+01 -0.61197519457E+01 -0.57603891349E+01  0.13017946208E+02  0.51100000000E-03 0.  1.
         12    1    3    3    0    0 -0.75813003242E+01  0.31847282225E+01 -0.29861428390E+02  0.30972948099E+02  0.00000000000E+00 0. -1.
</event>
<event>
 7    1  0.5487071E-013  0.5052886E+02  0.7816164E-02  0.1300439E+00
        -11   -1    0    0    0    0  0.00000000000E+00  0.00000000000E+00  0.45593999997E+02  0.45594000000E+02  0.51100000000E-03 0.  1.
         11   -1    0    0    0    0 -0.00000000000E+00 -0.00000000000E+00 -0.45593999997E+02  0.45594000000E+02  0.51100000000E-03 0. -1.
    9900012    2    1    2    0    0  0.19068620462E+02 -0.14780536482E+02 -0.32727498446E+02  0.50528859582E+02  0.29999999185E+02 0.  0.
        -12    1    1    2    0    0 -0.19068620462E+02  0.14780536482E+02  0.32727498446E+02  0.40659140418E+02  0.00000000000E+00 0.  1.
         11    1    3    3    0    0 -0.20646708199E+01 -0.20161220743E+01 -0.20008316979E+01  0.35115440418E+01  0.51100000000E-03 0. -1.
        -11    1    3    3    0    0 -0.46288717388E+01 -0.32059182129E+01  0.21614915475E+00  0.56348101903E+01  0.51100000000E-03 0.  1.
         12    1    3    3    0    0  0.25762163021E+02 -0.95584961951E+01 -0.30942815902E+02  0.41382505350E+02  0.00000000000E+00 0. -1.
</event>
<event>
 7    1  0.5487071E-013  0.5052887E+02  0.7816164E-02  0.1300439E+00
        -11   -1    0    0    0    0  0.00000000000E+00  0.00000000000E+00  0.45593999997E+02  0.45594000000E+02  0.51100000000E-03 0.  1.
         11   -1    0    0    0    0 -0.00000000000E+00 -0.00000000000E+00 -0.45593999997E+02  0.45594000000E+02  0.51100000000E-03 0. -1.
    9900012    2    1    2    0    0  0.35379818380E+02  0.18401883811E+02 -0.79249111835E+01  0.50528867033E+02  0.30000021833E+02 0.  0.
        -12    1    1    2    0    0 -0.35379818380E+02 -0.18401883811E+02  0.79249111835E+01  0.40659132967E+02  0.00000000000E+00 0.  1.
         11    1    3    3    0    0  0.14581681792E+02  0.33736140894E+01  0.87425047187E+00  0.14992365726E+02  0.51100000000E-03 0.  1.
        -11    1    3    3    0    0  0.14204871079E+02 -0.35849443257E+01 -0.29778557190E+01  0.14949843248E+02  0.51100000000E-03 0. -1.
         12    1    3    3    0    0  0.65932655081E+01  0.18613214047E+02 -0.58213059364E+01  0.20586658059E+02  0.00000000000E+00 0. -1.
</event>
<event>
 7    1  0.5487071E-013  0.5052888E+02  0.7816164E-02  0.1300439E+00
        -11   -1    0    0    0    0  0.00000000000E+00  0.00000000000E+00  0.45593999997E+02  0.45594000000E+02  0.51100000000E-03 0.  1.
         11   -1    0    0    0    0 -0.00000000000E+00 -0.00000000000E+00 -0.45593999997E+02  0.45594000000E+02  0.51100000000E-03 0. -1.
    9900012    2    1    2    0    0  0.20495236775E+02 -0.25952490087E+02 -0.23655390886E+02  0.50528880603E+02  0.30000063081E+02 0.  0.
        -12    1    1    2    0    0 -0.20495236775E+02  0.25952490087E+02  0.23655390886E+02  0.40659119397E+02  0.00000000000E+00 0.  1.
         11    1    3    3    0    0 -0.65953060693E-01 -0.77129716051E+01 -0.12732801109E+02  0.14886856792E+02  0.51100000000E-03 0. -1.
        -11    1    3    3    0    0 -0.22616415395E+00  0.29517426070E+01 -0.43115179130E+01  0.52300211871E+01  0.51100000000E-03 0.  1.
         12    1    3    3    0    0  0.20787353989E+02 -0.21191261089E+02 -0.66110718634E+01  0.30412002624E+02  0.00000000000E+00 0. -1.
</event>
<event>
 7    1  0.5487071E-013  0.5052886E+02  0.7816164E-02  0.1300439E+00
        -11   -1    0    0    0    0  0.00000000000E+00  0.00000000000E+00  0.45593999997E+02  0.45594000000E+02  0.51100000000E-03 0.  1.
         11   -1    0    0    0    0 -0.00000000000E+00 -0.00000000000E+00 -0.45593999997E+02  0.45594000000E+02  0.51100000000E-03 0. -1.
    9900012    2    1    2    0    0  0.21781931149E+02 -0.22981383721E+02 -0.25506254911E+02  0.50528861275E+02  0.30000004331E+02 0.  0.
        -12    1    1    2    0    0 -0.21781931149E+02  0.22981383721E+02  0.25506254911E+02  0.40659138725E+02  0.00000000000E+00 0.  1.
         11    1    3    3    0    0  0.19296745235E+02 -0.11562104649E+02 -0.18953667688E+02  0.29415780793E+02  0.51100000000E-03 0. -1.
        -11    1    3    3    0    0 -0.34483712489E+01  0.10339886040E+01 -0.63704129816E+01  0.73172780814E+01  0.51100000000E-03 0.  1.
        -12    1    3    3    0    0  0.59335571625E+01 -0.12453267676E+02 -0.18217424054E+00  0.13795802400E+02  0.00000000000E+00 0.  1.
</event>
<event>
 7    1  0.5487071E-013  0.5052884E+02  0.7816164E-02  0.1300439E+00
        -11   -1    0    0    0    0  0.00000000000E+00  0.00000000000E+00  0.45593999997E+02  0.45594000000E+02  0.51100000000E-03 0. -1.
         11   -1    0    0    0    0 -0.00000000000E+00 -0.00000000000E+00 -0.45593999997E+02  0.45594000000E+02  0.51100000000E-03 0.  1.
    9900012    2    1    2    0    0 -0.31442996934E-01  0.40304780048E+02  0.53564286986E+01  0.50528836066E+02  0.29999927707E+02 0.  0.
        -12    1    1    2    0    0  0.31442996934E-01 -0.40304780048E+02 -0.53564286986E+01  0.40659163934E+02  0.00000000000E+00 0.  1.
         11    1    3    3    0    0  0.27339216896E+01  0.40886874068E+01 -0.15465824713E+00  0.49209360848E+01  0.51100000000E-03 0. -1.
        -11    1    3    3    0    0 -0.60206426665E+01  0.28455210191E+02 -0.75692976758E+01  0.30053974658E+02  0.51100000000E-03 0.  1.
        -12    1    3    3    0    0  0.32552779799E+01  0.77608824501E+01  0.13080384622E+02  0.15553925324E+02  0.00000000000E+00 0.  1.
</event>
<event>
 7    1  0.5487071E-013  0.5052886E+02  0.7816164E-02  0.1300439E+00
        -11   -1    0    0    0    0  0.00000000000E+00  0.00000000000E+00  0.45593999997E+02  0.45594000000E+02  0.51100000000E-03 0. -1.
         11   -1    0    0    0    0 -0.00000000000E+00 -0.00000000000E+00 -0.45593999997E+02  0.45594000000E+02  0.51100000000E-03 0.  1.
    9900012    2    1    2    0    0  0.38006018766E+02  0.14233368932E+02 -0.24736833245E+01  0.50528863723E+02  0.30000011771E+02 0.  0.
        -12    1    1    2    0    0 -0.38006018766E+02 -0.14233368932E+02  0.24736833245E+01  0.40659136277E+02  0.00000000000E+00 0.  1.
         11    1    3    3    0    0  0.12195954853E+02  0.80831451768E+01  0.47786102162E+01  0.15392000084E+02  0.51100000000E-03 0. -1.
        -11    1    3    3    0    0  0.25832761249E+02  0.55851005465E+01  0.13994568215E+01  0.26466646586E+02  0.51100000000E-03 0.  1.
        -12    1    3    3    0    0 -0.22697335480E-01  0.56512320871E+00 -0.86517503621E+01  0.86702170526E+01  0.00000000000E+00 0.  1.
</event>
<event>
 7    1  0.5487071E-013  0.5052886E+02  0.7816164E-02  0.1300439E+00
        -11   -1    0    0    0    0  0.00000000000E+00  0.00000000000E+00  0.45593999997E+02  0.45594000000E+02  0.51100000000E-03 0. -1.
         11   -1    0    0    0    0 -0.00000000000E+00 -0.00000000000E+00 -0.45593999997E+02  0.45594000000E+02  0.51100000000E-03 0.  1.
    9900012    2    1    2    0    0 -0.25445903061E+02  0.27387285967E+02  0.15987751735E+02  0.50528860550E+02  0.30000002129E+02 0.  0.
        -12    1    1    2    0    0  0.25445903061E+02 -0.27387285967E+02 -0.15987751735E+02  0.40659139450E+02  0.00000000000E+00 0.  1.
         11    1    3    3    0    0 -0.13665688134E+02  0.14062473972E+02  0.33134816057E+01  0.19886763613E+02  0.51100000000E-03 0. -1.
        -11    1    3    3    0    0 -0.48270755416E+01 -0.16916227886E+01  0.13126482212E+02  0.14087823873E+02  0.51100000000E-03 0.  1.
         12    1    3    3    0    0 -0.69531393858E+01  0.15016434784E+02 -0.45221208322E+00  0.16554273065E+02  0.00000000000E+00 0. -1.
</event>
<event>
 7    1  0.5487071E-013  0.5052886E+02  0.7816164E-02  0.1300439E+00
        -11   -1    0    0    0    0  0.00000000000E+00  0.00000000000E+00  0.45593999997E+02  0.45594000000E+02  0.51100000000E-03 0.  1.
         11   -1    0    0    0    0 -0.00000000000E+00 -0.00000000000E+00 -0.45593999997E+02  0.45594000000E+02  0.51100000000E-03 0. -1.
    9900012    2    1    2    0    0  0.10907817645E+01 -0.39167346906E+02 -0.10857938190E+02  0.50528859696E+02  0.29999999532E+02 0.  0.
        -12    1    1    2    0    0 -0.10907817645E+01  0.39167346906E+02  0.10857938190E+02  0.40659140304E+02  0.00000000000E+00 0.  1.
         11    1    3    3    0    0 -0.28790091929E+01 -0.81987888533E+01  0.74844338438E+01  0.11468460351E+02  0.51100000000E-03 0. -1.
        -11    1    3    3    0    0 -0.25908996876E+01  0.19905645981E+00 -0.18769229048E+01  0.32054991058E+01  0.51100000000E-03 0.  1.
         12    1    3    3    0    0  0.65606906451E+01 -0.31167614513E+02 -0.16465449129E+02  0.35854900239E+02  0.00000000000E+00 0. -1.
</event>
<event>
 7    1  0.5822193E-013  0.5052886E+02  0.7816164E-02  0.1300439E+00
        -11   -1    0    0    0    0  0.00000000000E+00  0.00000000000E+00  0.45593999997E+02  0.45594000000E+02  0.51100000000E-03 0. -1.
         11   -1    0    0    0    0 -0.00000000000E+00 -0.00000000000E+00 -0.45593999997E+02  0.45594000000E+02  0.51100000000E-03 0.  1.
    9900012    2    1    2    0    0  0.14077693378E+02 -0.19430810850E+02  0.32824193982E+02  0.50528861154E+02  0.30000003964E+02 0.  0.
        -12    1    1    2    0    0 -0.14077693378E+02  0.19430810850E+02 -0.32824193982E+02  0.40659138846E+02  0.00000000000E+00 0.  1.
         11    1    3    3    0    0  0.12825266278E+02 -0.86206714596E+01  0.25017603700E+02  0.29405508441E+02  0.51100000000E-03 0. -1.
        -11    1    3    3    0    0  0.67060423484E+01 -0.10857056599E+02  0.16000275735E+01  0.12861056351E+02  0.51100000000E-03 0.  1.
        -12    1    3    3    0    0 -0.54536152491E+01  0.46917209061E-01  0.62065627087E+01  0.82622963616E+01  0.00000000000E+00 0.  1.
</event>
<event>
 7    1  0.5487071E-013  0.5052884E+02  0.7816164E-02  0.1300439E+00
        -11   -1    0    0    0    0  0.00000000000E+00  0.00000000000E+00  0.45593999997E+02  0.45594000000E+02  0.51100000000E-03 0. -1.
         11   -1    0    0    0    0 -0.00000000000E+00 -0.00000000000E+00 -0.45593999997E+02  0.45594000000E+02  0.51100000000E-03 0.  1.
    9900012    2    1    2    0    0  0.19405423626E+02  0.33342841601E+02  0.12839453787E+02  0.50528842044E+02  0.29999945876E+02 0.  0.
        -12    1    1    2    0    0 -0.19405423626E+02 -0.33342841601E+02 -0.12839453787E+02  0.40659157956E+02  0.00000000000E+00 0.  1.
         11    1    3    3    0    0  0.30582797386E+01  0.25677406287E+01  0.94888907431E+01  0.10294921791E+02  0.51100000000E-03 0. -1.
        -11    1    3    3    0    0  0.10195236606E+02  0.22651715247E+01  0.36587574373E+01  0.11066180811E+02  0.51100000000E-03 0.  1.
         12    1    3    3    0    0  0.61519072815E+01  0.28509929448E+02 -0.30819439357E+00  0.29167739441E+02  0.00000000000E+00 0. -1.
</event>
<event>
 7    1  0.5487071E-013  0.5052884E+02  0.7816164E-02  0.1300439E+00
        -11   -1    0    0    0    0  0.00000000000E+00  0.00000000000E+00  0.45593999997E+02  0.45594000000E+02  0.51100000000E-03 0.  1.
         11   -1    0    0    0    0 -0.00000000000E+00 -0.00000000000E+00 -0.45593999997E+02  0.45594000000E+02  0.51100000000E-03 0. -1.
    9900012    2    1    2    0    0  0.29357813421E+02 -0.14887640530E+02 -0.23867216216E+02  0.50528842860E+02  0.29999948358E+02 0.  0.
        -12    1    1    2    0    0 -0.29357813421E+02  0.14887640530E+02  0.23867216216E+02  0.40659157140E+02  0.00000000000E+00 0.  1.
         11    1    3    3    0    0 -0.29172683348E+01  0.61459750845E+00 -0.39819341338E+01  0.49743325524E+01  0.51100000000E-03 0. -1.
        -11    1    3    3    0    0  0.35686747925E+01  0.23906281671E+01  0.25209005065E+01  0.49805102583E+01  0.51100000000E-03 0.  1.
         12    1    3    3    0    0  0.28706406964E+02 -0.17892866206E+02 -0.22406182588E+02  0.40574000049E+02  0.00000000000E+00 0. -1.
</event>
<event>
 7    1  0.5487071E-013  0.5052885E+02  0.7816164E-02  0.1300439E+00
        -11   -1    0    0    0    0  0.00000000000E+00  0.00000000000E+00  0.45593999997E+02  0.45594000000E+02  0.51100000000E-03 0.  1.
         11   -1    0    0    0    0 -0.00000000000E+00 -0.00000000000E+00 -0.45593999997E+02  0.45594000000E+02  0.51100000000E-03 0. -1.
    9900012    2    1    2    0    0  0.35291087330E+02 -0.20051194146E+02  0.23780045073E+01  0.50528854202E+02  0.29999982833E+02 0.  0.
        -12    1    1    2    0    0 -0.35291087330E+02  0.20051194146E+02 -0.23780045073E+01  0.40659145798E+02  0.00000000000E+00 0.  1.
         11    1    3    3    0    0  0.17072506445E+02 -0.15361452772E+01 -0.42766457475E+01  0.17666915909E+02  0.51100000000E-03 0. -1.
        -11    1    3    3    0    0  0.89034570730E+01 -0.49425440095E+01 -0.62471529457E+01  0.11946849347E+02  0.51100000000E-03 0.  1.
        -12    1    3    3    0    0  0.93151238111E+01 -0.13572504859E+02  0.12901803200E+02  0.20915088945E+02  0.00000000000E+00 0.  1.
</event>
<event>
 7    1  0.5487071E-013  0.5052886E+02  0.7816164E-02  0.1300439E+00
        -11   -1    0    0    0    0  0.00000000000E+00  0.00000000000E+00  0.45593999997E+02  0.45594000000E+02  0.51100000000E-03 0.  1.
         11   -1    0    0    0    0 -0.00000000000E+00 -0.00000000000E+00 -0.45593999997E+02  0.45594000000E+02  0.51100000000E-03 0. -1.
    9900012    2    1    2    0    0 -0.28795177191E+02  0.25146906514E+02 -0.13843281930E+02  0.50528860913E+02  0.30000003230E+02 0.  0.
        -12    1    1    2    0    0  0.28795177191E+02 -0.25146906514E+02  0.13843281930E+02  0.40659139087E+02  0.00000000000E+00 0.  1.
         11    1    3    3    0    0 -0.98404369103E+01  0.17776417465E+02 -0.99638725005E+01  0.22629935306E+02  0.51100000000E-03 0. -1.
        -11    1    3    3    0    0 -0.38959955024E+01 -0.29127260186E+01 -0.78516677745E+01  0.92364192692E+01  0.51100000000E-03 0.  1.
         12    1    3    3    0    0 -0.15058744779E+02  0.10283215068E+02  0.39722583450E+01  0.18662506338E+02  0.00000000000E+00 0. -1.
</event>
<event>
 7    1  0.5487071E-013  0.5052886E+02  0.7816164E-02  0.1300439E+00
        -11   -1    0    0    0    0  0.00000000000E+00  0.00000000000E+00  0.45593999997E+02  0.45594000000E+02  0.51100000000E-03 0.  1.
         11   -1    0    0    0    0 -0.00000000000E+00 -0.00000000000E+00 -0.45593999997E+02  0.45594000000E+02  0.51100000000E-03 0. -1.
    9900012    2    1    2    0    0 -0.22205826500E+02 -0.23207160393E+02 -0.24929796915E+02  0.50528858368E+02  0.29999995495E+02 0.  0.
        -12    1    1    2    0    0  0.22205826500E+02  0.23207160393E+02  0.24929796915E+02  0.40659141632E+02  0.00000000000E+00 0.  1.
         11    1    3    3    0    0 -0.18752521668E+02 -0.13269063868E+02 -0.85553963167E+01  0.24513668253E+02  0.51100000000E-03 0. -1.
        -11    1    3    3    0    0 -0.62545587429E+00 -0.18338168387E+01  0.37033723726E+01  0.41795988372E+01  0.51100000000E-03 0.  1.
        -12    1    3    3    0    0 -0.28278489579E+01 -0.81042796861E+01 -0.20077772971E+02  0.21835591277E+02  0.00000000000E+00 0.  1.
</event>
<event>
 7    1  0.5487071E-013  0.5052889E+02  0.7816164E-02  0.1300439E+00
        -11   -1    0    0    0    0  0.00000000000E+00  0.00000000000E+00  0.45593999997E+02  0.45594000000E+02  0.51100000000E-03 0. -1.
         11   -1    0    0    0    0 -0.00000000000E+00 -0.00000000000E+00 -0.45593999997E+02  0.45594000000E+02  0.51100000000E-03 0.  1.
    9900012    2    1    2    0    0 -0.61022433064E+01  0.38568815696E+02  0.11330147301E+02  0.50528890867E+02  0.30000094280E+02 0.  0.
        -12    1    1    2    0    0  0.61022433064E+01 -0.38568815696E+02 -0.11330147301E+02  0.40659109133E+02  0.00000000000E+00 0.  1.
         11    1    3    3    0    0 -0.42463445568E+01 -0.20417368675E+01  0.20049523999E+01  0.51205435178E+01  0.51100000000E-03 0. -1.
        -11    1    3    3    0    0  0.10235569244E+01 -0.12747777739E+01  0.23285617850E+01  0.28451585892E+01  0.51100000000E-03 0.  1.
         12    1    3    3    0    0 -0.28794556740E+01  0.41885330338E+02  0.69966331162E+01  0.42563188760E+02  0.00000000000E+00 0. -1.
</event>
<event>
 7    1  0.5487071E-013  0.5052886E+02  0.7816164E-02  0.1300439E+00
        -11   -1    0    0    0    0  0.00000000000E+00  0.00000000000E+00  0.45593999997E+02  0.45594000000E+02  0.51100000000E-03 0.  1.
         11   -1    0    0    0    0 -0.00000000000E+00 -0.00000000000E+00 -0.45593999997E+02  0.45594000000E+02  0.51100000000E-03 0. -1.
    9900012    2    1    2    0    0 -0.17695317949E+02  0.89858305592E+00 -0.36595542453E+02  0.50528862574E+02  0.30000008280E+02 0.  0.
        -12    1    1    2    0    0  0.17695317949E+02 -0.89858305592E+00  0.36595542453E+02  0.40659137426E+02  0.00000000000E+00 0.  1.
         11    1    3    3    0    0 -0.13828815493E+01  0.24551062693E+01 -0.17085787598E+02  0.17316582985E+02  0.51100000000E-03 0. -1.
        -11    1    3    3    0    0 -0.66392998361E+01 -0.77428310522E+01  0.42361069646E+00  0.10208387791E+02  0.51100000000E-03 0.  1.
         12    1    3    3    0    0 -0.96731365635E+01  0.61863078388E+01 -0.19933365551E+02  0.23003891798E+02  0.00000000000E+00 0. -1.
</event>
<event>
 7    1  0.5487071E-013  0.5052886E+02  0.7816164E-02  0.1300439E+00
        -11   -1    0    0    0    0  0.00000000000E+00  0.00000000000E+00  0.45593999997E+02  0.45594000000E+02  0.51100000000E-03 0. -1.
         11   -1    0    0    0    0 -0.00000000000E+00 -0.00000000000E+00 -0.45593999997E+02  0.45594000000E+02  0.51100000000E-03 0.  1.
    9900012    2    1    2    0    0 -0.35487968762E+02  0.19639845144E+02  0.28366199677E+01  0.50528857646E+02  0.29999993300E+02 0.  0.
        -12    1    1    2    0    0  0.35487968762E+02 -0.19639845144E+02 -0.28366199677E+01  0.40659142354E+02  0.00000000000E+00 0.  1.
         11    1    3    3    0    0 -0.16112800966E+02  0.14498396600E+02  0.10058286265E+02  0.23895501288E+02  0.51100000000E-03 0. -1.
        -11    1    3    3    0    0 -0.19503231991E+02  0.54808327580E+01 -0.87633105417E+00  0.20277661162E+02  0.51100000000E-03 0.  1.
         12    1    3    3    0    0  0.12806419450E+00 -0.33938421419E+00 -0.63453352431E+01  0.63556951964E+01  0.00000000000E+00 0. -1.
</event>
<event>
 7    1  0.5487071E-013  0.5052888E+02  0.7816164E-02  0.1300439E+00
        -11   -1    0    0    0    0  0.00000000000E+00  0.00000000000E+00  0.45593999997E+02  0.45594000000E+02  0.51100000000E-03 0.  1.
         11   -1    0    0    0    0 -0.00000000000E+00 -0.00000000000E+00 -0.45593999997E+02  0.45594000000E+02  0.51100000000E-03 0. -1.
    9900012    2    1    2    0    0  0.15138020491E+02 -0.38459450781E+00 -0.37734025521E+02  0.50528877293E+02  0.30000053020E+02 0.  0.
        -12    1    1    2    0    0 -0.15138020491E+02  0.38459450781E+00  0.37734025521E+02  0.40659122707E+02  0.00000000000E+00 0.  1.
         11    1    3    3    0    0  0.79638564803E+01 -0.76020454515E+00 -0.11326259974E+02  0.13866689808E+02  0.51100000000E-03 0. -1.
        -11    1    3    3    0    0  0.13588715852E+02 -0.13655522311E+01 -0.54994739965E+01  0.14722844355E+02  0.51100000000E-03 0.  1.
        -12    1    3    3    0    0 -0.64145518420E+01  0.17411622684E+01 -0.20908291550E+02  0.21939343129E+02  0.00000000000E+00 0.  1.
</event>
<event>
 7    1  0.5487071E-013  0.5052886E+02  0.7816164E-02  0.1300439E+00
        -11   -1    0    0    0    0  0.00000000000E+00  0.00000000000E+00  0.45593999997E+02  0.45594000000E+02  0.51100000000E-03 0.  1.
         11   -1    0    0    0    0 -0.00000000000E+00 -0.00000000000E+00 -0.45593999997E+02  0.45594000000E+02  0.51100000000E-03 0. -1.
    9900012    2    1    2    0    0  0.19712524156E+02  0.34899061586E+02 -0.68291844333E+01  0.50528857507E+02  0.29999992879E+02 0.  0.
        -12    1    1    2    0    0 -0.19712524156E+02 -0.34899061586E+02  0.68291844333E+01  0.40659142493E+02  0.00000000000E+00 0.  1.
         11    1    3    3    0    0 -0.62220149598E+01  0.75946818731E+01 -0.23508617787E+01  0.10095504657E+02  0.51100000000E-03 0. -1.
        -11    1    3    3    0    0  0.92035856822E+00  0.27650663684E+00  0.27418779627E+01  0.29054106143E+01  0.51100000000E-03 0.  1.
         12    1    3    3    0    0  0.25014180548E+02  0.27027873076E+02 -0.72202006174E+01  0.37527942236E+02  0.00000000000E+00 0. -1.
</event>
<event>
 7    1  0.5487071E-013  0.5052879E+02  0.7816164E-02  0.1300439E+00
        -11   -1    0    0    0    0  0.00000000000E+00  0.00000000000E+00  0.45593999997E+02  0.45594000000E+02  0.51100000000E-03 0. -1.
         11   -1    0    0    0    0 -0.00000000000E+00 -0.00000000000E+00 -0.45593999997E+02  0.45594000000E+02  0.51100000000E-03 0.  1.
    9900012    2    1    2    0    0  0.16184682540E+02 -0.25096923642E+02  0.27592969761E+02  0.50528788185E+02  0.29999782166E+02 0.  0.
        -12    1    1    2    0    0 -0.16184682540E+02  0.25096923642E+02 -0.27592969761E+02  0.40659211815E+02  0.00000000000E+00 0.  1.
         11    1    3    3    0    0  0.67787431507E+01 -0.20208675307E+01  0.59360400367E+01  0.92342750586E+01  0.51100000000E-03 0. -1.
        -11    1    3    3    0    0  0.66852971562E+01  0.39087794013E+01  0.26869873082E+01  0.81970516364E+01  0.51100000000E-03 0.  1.
         12    1    3    3    0    0  0.27206422328E+01 -0.26984835512E+02  0.18969942416E+02  0.33097461490E+02  0.00000000000E+00 0. -1.
</event>
<event>
 7    1  0.5487071E-013  0.5052886E+02  0.7816164E-02  0.1300439E+00
        -11   -1    0    0    0    0  0.00000000000E+00  0.00000000000E+00  0.45593999997E+02  0.45594000000E+02  0.51100000000E-03 0.  1.
         11   -1    0    0    0    0 -0.00000000000E+00 -0.00000000000E+00 -0.45593999997E+02  0.45594000000E+02  0.51100000000E-03 0. -1.
    9900012    2    1    2    0    0  0.88125629231E+01 -0.23865489481E+02 -0.31716599105E+02  0.50528861885E+02  0.30000006187E+02 0.  0.
        -12    1    1    2    0    0 -0.88125629231E+01  0.23865489481E+02  0.31716599105E+02  0.40659138115E+02  0.00000000000E+00 0.  1.
         11    1    3    3    0    0 -0.16262991778E+01 -0.28001862791E+01  0.95004332325E+00  0.33746814354E+01  0.51100000000E-03 0. -1.
        -11    1    3    3    0    0  0.65064493270E+01 -0.22495952079E+02 -0.12475055625E+02  0.26533540206E+02  0.51100000000E-03 0.  1.
         12    1    3    3    0    0  0.39324127740E+01  0.14306488766E+01 -0.20191586803E+02  0.20620640244E+02  0.00000000000E+00 0. -1.
</event>
<event>
 7    1  0.5487071E-013  0.5052886E+02  0.7816164E-02  0.1300439E+00
        -11   -1    0    0    0    0  0.00000000000E+00  0.00000000000E+00  0.45593999997E+02  0.45594000000E+02  0.51100000000E-03 0.  1.
         11   -1    0    0    0    0 -0.00000000000E+00 -0.00000000000E+00 -0.45593999997E+02  0.45594000000E+02  0.51100000000E-03 0. -1.
    9900012    2    1    2    0    0  0.28066398043E+02  0.74979422638E+01 -0.28446859488E+02  0.50528860166E+02  0.30000000961E+02 0.  0.
        -12    1    1    2    0    0 -0.28066398043E+02 -0.74979422638E+01  0.28446859488E+02  0.40659139834E+02  0.00000000000E+00 0.  1.
         11    1    3    3    0    0 -0.43737842110E+01  0.94728975196E+00 -0.88661301279E+01  0.99315461991E+01  0.51100000000E-03 0. -1.
        -11    1    3    3    0    0  0.11512657996E+01 -0.20103377986E+01 -0.39724928317E+01  0.45986487760E+01  0.51100000000E-03 0.  1.
         12    1    3    3    0    0  0.31288916455E+02  0.85609903105E+01 -0.15608236528E+02  0.35998665191E+02  0.00000000000E+00 0. -1.
</event>
<event>
 7    1  0.5487071E-013  0.5052886E+02  0.7816164E-02  0.1300439E+00
        -11   -1    0    0    0    0  0.00000000000E+00  0.00000000000E+00  0.45593999997E+02  0.45594000000E+02  0.51100000000E-03 0.  1.
         11   -1    0    0    0    0 -0.00000000000E+00 -0.00000000000E+00 -0.45593999997E+02  0.45594000000E+02  0.51100000000E-03 0. -1.
    9900012    2    1    2    0    0 -0.31342980475E+02 -0.25825198078E+02 -0.19601440203E+01  0.50528862707E+02  0.30000008685E+02 0.  0.
        -12    1    1    2    0    0  0.31342980475E+02  0.25825198078E+02  0.19601440203E+01  0.40659137293E+02  0.00000000000E+00 0.  1.
         11    1    3    3    0    0  0.36043808006E+01 -0.60336978364E+01  0.37039804693E+01  0.79445920043E+01  0.51100000000E-03 0. -1.
        -11    1    3    3    0    0 -0.34147523464E+00 -0.29521193444E+01  0.16660230782E+01  0.34069410206E+01  0.51100000000E-03 0.  1.
         12    1    3    3    0    0 -0.34605886041E+02 -0.16839380897E+02 -0.73301475679E+01  0.39177329682E+02  0.00000000000E+00 0. -1.
</event>
<event>
 7    1  0.5487071E-013  0.5052885E+02  0.7816164E-02  0.1300439E+00
        -11   -1    0    0    0    0  0.00000000000E+00  0.00000000000E+00  0.45593999997E+02  0.45594000000E+02  0.51100000000E-03 0.  1.
         11   -1    0    0    0    0 -0.00000000000E+00 -0.00000000000E+00 -0.45593999997E+02  0.45594000000E+02  0.51100000000E-03 0. -1.
    9900012    2    1    2    0    0  0.15666195909E+01 -0.22510391794E+02 -0.33822981053E+02  0.50528854867E+02  0.29999984854E+02 0.  0.
        -12    1    1    2    0    0 -0.15666195909E+01  0.22510391794E+02  0.33822981053E+02  0.40659145133E+02  0.00000000000E+00 0.  1.
         11    1    3    3    0    0  0.10879117860E+01 -0.65287444168E+01 -0.33044087785E+01  0.73977816506E+01  0.51100000000E-03 0. -1.
        -11    1    3    3    0    0  0.37654752780E+01 -0.21282391966E+02 -0.14729823814E+02  0.26155051553E+02  0.51100000000E-03 0.  1.
         12    1    3    3    0    0 -0.32867674731E+01  0.53007445887E+01 -0.15788748460E+02  0.16976021664E+02  0.00000000000E+00 0. -1.
</event>
<event>
 7    1  0.5487071E-013  0.5052886E+02  0.7816164E-02  0.1300439E+00
        -11   -1    0    0    0    0  0.00000000000E+00  0.00000000000E+00  0.45593999997E+02  0.45594000000E+02  0.51100000000E-03 0.  1.
         11   -1    0    0    0    0 -0.00000000000E+00 -0.00000000000E+00 -0.45593999997E+02  0.45594000000E+02  0.51100000000E-03 0. -1.
    9900012    2    1    2    0    0  0.20978693751E+02 -0.11208066834E+02 -0.32976348162E+02  0.50528857218E+02  0.29999991999E+02 0.  0.
        -12    1    1    2    0    0 -0.20978693751E+02  0.11208066834E+02  0.32976348162E+02  0.40659142782E+02  0.00000000000E+00 0.  1.
         11    1    3    3    0    0  0.27075938992E+01 -0.85420721290E+01 -0.10821007151E+02  0.14049635476E+02  0.51100000000E-03 0. -1.
        -11    1    3    3    0    0  0.17022028561E+02 -0.83230892040E+01 -0.69072091583E+01  0.20167617828E+02  0.51100000000E-03 0.  1.
        -12    1    3    3    0    0  0.12490712910E+01  0.56570944986E+01 -0.15248131852E+02  0.16311603914E+02  0.00000000000E+00 0.  1.
</event>
<event>
 7    1  0.5487071E-013  0.5052886E+02  0.7816164E-02  0.1300439E+00
        -11   -1    0    0    0    0  0.00000000000E+00  0.00000000000E+00  0.45593999997E+02  0.45594000000E+02  0.51100000000E-03 0.  1.
         11   -1    0    0    0    0 -0.00000000000E+00 -0.00000000000E+00 -0.45593999997E+02  0.45594000000E+02  0.51100000000E-03 0. -1.
    9900012    2    1    2    0    0 -0.30598832209E+02  0.17136574829E+02 -0.20572186687E+02  0.50528860874E+02  0.30000003111E+02 0.  0.
        -12    1    1    2    0    0  0.30598832209E+02 -0.17136574829E+02  0.20572186687E+02  0.40659139126E+02  0.00000000000E+00 0.  1.
         11    1    3    3    0    0 -0.77464152044E+01  0.94540261687E+01 -0.53419049867E+01  0.13338722145E+02  0.51100000000E-03 0. -1.
        -11    1    3    3    0    0 -0.19770092184E+02  0.99538332469E+01 -0.20838027224E+02  0.30399978949E+02  0.51100000000E-03 0.  1.
        -12    1    3    3    0    0 -0.30823248205E+01 -0.22712845867E+01  0.56077455234E+01  0.67901597792E+01  0.00000000000E+00 0.  1.
</event>
<event>
 7    1  0.5487071E-013  0.5052883E+02  0.7816164E-02  0.1300439E+00
        -11   -1    0    0    0    0  0.00000000000E+00  0.00000000000E+00  0.45593999997E+02  0.45594000000E+02  0.51100000000E-03 0.  1.
         11   -1    0    0    0    0 -0.00000000000E+00 -0.00000000000E+00 -0.45593999997E+02  0.45594000000E+02  0.51100000000E-03 0. -1.
    9900012    2    1    2    0    0  0.40420175321E+02  0.36891857153E-01  0.44017962923E+01  0.50528834433E+02  0.29999922744E+02 0.  0.
        -12    1    1    2    0    0 -0.40420175321E+02 -0.36891857153E-01 -0.44017962923E+01  0.40659165567E+02  0.00000000000E+00 0.  1.
         11    1    3    3    0    0  0.16367595421E+01 -0.82229746925E+00  0.33515873628E+01  0.38194624018E+01  0.51100000000E-03 0.  1.
        -11    1    3    3    0    0  0.72797427080E+01 -0.96721601303E+01  0.53119697649E+01  0.13219771500E+02  0.51100000000E-03 0. -1.
         12    1    3    3    0    0  0.31503673071E+02  0.10531349457E+02 -0.42617608354E+01  0.33489600531E+02  0.00000000000E+00 0. -1.
</event>
<event>
 7    1  0.5487071E-013  0.5052886E+02  0.7816164E-02  0.1300439E+00
        -11   -1    0    0    0    0  0.00000000000E+00  0.00000000000E+00  0.45593999997E+02  0.45594000000E+02  0.51100000000E-03 0.  1.
         11   -1    0    0    0    0 -0.00000000000E+00 -0.00000000000E+00 -0.45593999997E+02  0.45594000000E+02  0.51100000000E-03 0. -1.
    9900012    2    1    2    0    0 -0.44580011992E+01  0.18844849173E+02 -0.35751414216E+02  0.50528859164E+02  0.29999997915E+02 0.  0.
        -12    1    1    2    0    0  0.44580011992E+01 -0.18844849173E+02  0.35751414216E+02  0.40659140836E+02  0.00000000000E+00 0.  1.
         11    1    3    3    0    0 -0.14711141776E+01  0.23320941304E+01 -0.14269971797E+01  0.31046998516E+01  0.51100000000E-03 0.  1.
        -11    1    3    3    0    0  0.12603720519E+02  0.64277453739E+01 -0.15368966414E+02  0.20889586171E+02  0.51100000000E-03 0. -1.
         12    1    3    3    0    0 -0.15590607540E+02  0.10085009669E+02 -0.18955450622E+02  0.26534573141E+02  0.00000000000E+00 0. -1.
</event>
<event>
 7    1  0.5487071E-013  0.5052886E+02  0.7816164E-02  0.1300439E+00
        -11   -1    0    0    0    0  0.00000000000E+00  0.00000000000E+00  0.45593999997E+02  0.45594000000E+02  0.51100000000E-03 0. -1.
         11   -1    0    0    0    0 -0.00000000000E+00 -0.00000000000E+00 -0.45593999997E+02  0.45594000000E+02  0.51100000000E-03 0.  1.
    9900012    2    1    2    0    0  0.12305685013E+02  0.38469581935E+02 -0.46719619768E+01  0.50528857773E+02  0.29999993686E+02 0.  0.
        -12    1    1    2    0    0 -0.12305685013E+02 -0.38469581935E+02  0.46719619768E+01  0.40659142227E+02  0.00000000000E+00 0.  1.
         11    1    3    3    0    0  0.94895912725E+01  0.62703793802E+01 -0.39372137599E+01  0.12036264061E+02  0.51100000000E-03 0. -1.
        -11    1    3    3    0    0 -0.43750267266E+01  0.17132080055E+01  0.47637655931E+01  0.66909942023E+01  0.51100000000E-03 0.  1.
         12    1    3    3    0    0  0.71911204674E+01  0.30485994550E+02 -0.54985138099E+01  0.31801599510E+02  0.00000000000E+00 0. -1.
</event>
<event>
 7    1  0.5487071E-013  0.5052886E+02  0.7816164E-02  0.1300439E+00
        -11   -1    0    0    0    0  0.00000000000E+00  0.00000000000E+00  0.45593999997E+02  0.45594000000E+02  0.51100000000E-03 0. -1.
         11   -1    0    0    0    0 -0.00000000000E+00 -0.00000000000E+00 -0.45593999997E+02  0.45594000000E+02  0.51100000000E-03 0.  1.
    9900012    2    1    2    0    0  0.25945865009E+02 -0.13450755418E+02  0.28267559595E+02  0.50528860095E+02  0.30000000744E+02 0.  0.
        -12    1    1    2    0    0 -0.25945865009E+02  0.13450755418E+02 -0.28267559595E+02  0.40659139905E+02  0.00000000000E+00 0.  1.
         11    1    3    3    0    0  0.76302060753E+01 -0.55741393254E+01  0.18436604549E+02  0.20717129664E+02  0.51100000000E-03 0. -1.
        -11    1    3    3    0    0  0.18935906869E+02 -0.14702895047E+00  0.11106281943E+02  0.21953124728E+02  0.51100000000E-03 0.  1.
         12    1    3    3    0    0 -0.62024793518E+00 -0.77295871420E+01 -0.12753268971E+01  0.78586057021E+01  0.00000000000E+00 0. -1.
</event>
<event>
 7    1  0.5487071E-013  0.5052886E+02  0.7816164E-02  0.1300439E+00
        -11   -1    0    0    0    0  0.00000000000E+00  0.00000000000E+00  0.45593999997E+02  0.45594000000E+02  0.51100000000E-03 0.  1.
         11   -1    0    0    0    0 -0.00000000000E+00 -0.00000000000E+00 -0.45593999997E+02  0.45594000000E+02  0.51100000000E-03 0. -1.
    9900012    2    1    2    0    0  0.24183160909E+02 -0.15889453973E+02 -0.28563362162E+02  0.50528859857E+02  0.30000000023E+02 0.  0.
        -12    1    1    2    0    0 -0.24183160909E+02  0.15889453973E+02  0.28563362162E+02  0.40659140143E+02  0.00000000000E+00 0.  1.
         11    1    3    3    0    0 -0.25009511096E+01 -0.45793318765E+01 -0.94006176503E+01  0.10751588225E+02  0.51100000000E-03 0. -1.
        -11    1    3    3    0    0  0.13926837485E+02 -0.10481788124E+02 -0.85990220713E+00  0.17451765431E+02  0.51100000000E-03 0.  1.
         12    1    3    3    0    0  0.12757274534E+02 -0.82833397234E+00 -0.18302842305E+02  0.22325506201E+02  0.00000000000E+00 0. -1.
</event>
<event>
 7    1  0.5487071E-013  0.5052880E+02  0.7816164E-02  0.1300439E+00
        -11   -1    0    0    0    0  0.00000000000E+00  0.00000000000E+00  0.45593999997E+02  0.45594000000E+02  0.51100000000E-03 0.  1.
         11   -1    0    0    0    0 -0.00000000000E+00 -0.00000000000E+00 -0.45593999997E+02  0.45594000000E+02  0.51100000000E-03 0. -1.
    9900012    2    1    2    0    0 -0.19306570262E+02  0.25244608721E+02 -0.25360133962E+02  0.50528802771E+02  0.29999826502E+02 0.  0.
        -12    1    1    2    0    0  0.19306570262E+02 -0.25244608721E+02  0.25360133962E+02  0.40659197229E+02  0.00000000000E+00 0.  1.
         11    1    3    3    0    0 -0.19425628198E+01  0.71044147516E+01 -0.72462325054E+01  0.10332189751E+02  0.51100000000E-03 0. -1.
        -11    1    3    3    0    0 -0.16836684099E+01  0.19095442452E+02 -0.14607023177E+02  0.24100535017E+02  0.51100000000E-03 0.  1.
        -12    1    3    3    0    0 -0.15680339032E+02 -0.95524848185E+00 -0.35068782793E+01  0.16096078003E+02  0.00000000000E+00 0.  1.
</event>
<event>
 7    1  0.5487071E-013  0.5052886E+02  0.7816164E-02  0.1300439E+00
        -11   -1    0    0    0    0  0.00000000000E+00  0.00000000000E+00  0.45593999997E+02  0.45594000000E+02  0.51100000000E-03 0.  1.
         11   -1    0    0    0    0 -0.00000000000E+00 -0.00000000000E+00 -0.45593999997E+02  0.45594000000E+02  0.51100000000E-03 0. -1.
    9900012    2    1    2    0    0 -0.25804068001E+02  0.29152182136E+02 -0.11724606385E+02  0.50528855351E+02  0.29999986324E+02 0.  0.
        -12    1    1    2    0    0  0.25804068001E+02 -0.29152182136E+02  0.11724606385E+02  0.40659144649E+02  0.00000000000E+00 0.  1.
         11    1    3    3    0    0 -0.11839233729E+02  0.28043042363E+01 -0.49395262633E+01  0.13131279356E+02  0.51100000000E-03 0. -1.
        -11    1    3    3    0    0 -0.16231004217E+02  0.80136137029E+01 -0.14030489647E+01  0.18155771785E+02  0.51100000000E-03 0.  1.
         12    1    3    3    0    0  0.22661699448E+01  0.18334264197E+02 -0.53820311574E+01  0.19241804210E+02  0.00000000000E+00 0. -1.
</event>
<event>
 7    1  0.5487071E-013  0.5052887E+02  0.7816164E-02  0.1300439E+00
        -11   -1    0    0    0    0  0.00000000000E+00  0.00000000000E+00  0.45593999997E+02  0.45594000000E+02  0.51100000000E-03 0.  1.
         11   -1    0    0    0    0 -0.00000000000E+00 -0.00000000000E+00 -0.45593999997E+02  0.45594000000E+02  0.51100000000E-03 0. -1.
    9900012    2    1    2    0    0  0.68993058289E+01  0.60831054202E+01 -0.39605056864E+02  0.50528866688E+02  0.30000020784E+02 0.  0.
        -12    1    1    2    0    0 -0.68993058289E+01 -0.60831054202E+01  0.39605056864E+02  0.40659133312E+02  0.00000000000E+00 0.  1.
         11    1    3    3    0    0  0.44228884580E+01  0.97505207889E+01 -0.19297661163E+02  0.22068854175E+02  0.51100000000E-03 0. -1.
        -11    1    3    3    0    0 -0.77282843908E+01 -0.34228835126E+01 -0.43214101764E+01  0.94930025460E+01  0.51100000000E-03 0.  1.
         12    1    3    3    0    0  0.10204701762E+02 -0.24453185606E+00 -0.15985985525E+02  0.18967009966E+02  0.00000000000E+00 0. -1.
</event>
<event>
 7    1  0.5487071E-013  0.5052885E+02  0.7816164E-02  0.1300439E+00
        -11   -1    0    0    0    0  0.00000000000E+00  0.00000000000E+00  0.45593999997E+02  0.45594000000E+02  0.51100000000E-03 0. -1.
         11   -1    0    0    0    0 -0.00000000000E+00 -0.00000000000E+00 -0.45593999997E+02  0.45594000000E+02  0.51100000000E-03 0.  1.
    9900012    2    1    2    0    0 -0.19692507132E+02 -0.34963750005E+01  0.35399821907E+02  0.50528845234E+02  0.29999955572E+02 0.  0.
        -12    1    1    2    0    0  0.19692507132E+02  0.34963750005E+01 -0.35399821907E+02  0.40659154766E+02  0.00000000000E+00 0.  1.
         11    1    3    3    0    0  0.48715183350E+01 -0.50647033968E+01  0.97037181677E+01  0.11981029085E+02  0.51100000000E-03 0. -1.
        -11    1    3    3    0    0 -0.13059981225E+01  0.50410576121E+01  0.42596922900E+01  0.67277686948E+01  0.51100000000E-03 0.  1.
         12    1    3    3    0    0 -0.23258027345E+02 -0.34727292158E+01  0.21436411449E+02  0.31820047454E+02  0.00000000000E+00 0. -1.
</event>
<event>
 7    1  0.5487071E-013  0.5052886E+02  0.7816164E-02  0.1300439E+00
        -11   -1    0    0    0    0  0.00000000000E+00  0.00000000000E+00  0.45593999997E+02  0.45594000000E+02  0.51100000000E-03 0.  1.
         11   -1    0    0    0    0 -0.00000000000E+00 -0.00000000000E+00 -0.45593999997E+02  0.45594000000E+02  0.51100000000E-03 0. -1.
    9900012    2    1    2    0    0 -0.83660643285E+01  0.18175028757E+02 -0.35395524400E+02  0.50528857728E+02  0.29999993551E+02 0.  0.
        -12    1    1    2    0    0  0.83660643285E+01 -0.18175028757E+02  0.35395524400E+02  0.40659142272E+02  0.00000000000E+00 0.  1.
         11    1    3    3    0    0  0.48593365598E+01  0.10454327243E+01 -0.43882958907E+01  0.66304767904E+01  0.51100000000E-03 0.  1.
        -11    1    3    3    0    0 -0.39447494842E+00  0.41057004720E+00 -0.20210812653E+02  0.20218830990E+02  0.51100000000E-03 0. -1.
         12    1    3    3    0    0 -0.12830925940E+02  0.16719025986E+02 -0.10796415857E+02  0.23679549948E+02  0.00000000000E+00 0. -1.
</event>
<event>
 7    1  0.5487071E-013  0.5052888E+02  0.7816164E-02  0.1300439E+00
        -11   -1    0    0    0    0  0.00000000000E+00  0.00000000000E+00  0.45593999997E+02  0.45594000000E+02  0.51100000000E-03 0.  1.
         11   -1    0    0    0    0 -0.00000000000E+00 -0.00000000000E+00 -0.45593999997E+02  0.45594000000E+02  0.51100000000E-03 0. -1.
    9900012    2    1    2    0    0  0.62448515778E+00  0.29198567600E+02  0.28288121205E+02  0.50528878847E+02  0.30000057743E+02 0.  0.
        -12    1    1    2    0    0 -0.62448515778E+00 -0.29198567600E+02 -0.28288121205E+02  0.40659121153E+02  0.00000000000E+00 0.  1.
         11    1    3    3    0    0 -0.72256113693E+01  0.32844528645E+01  0.12914865143E+02  0.15158853261E+02  0.51100000000E-03 0. -1.
        -11    1    3    3    0    0 -0.48935463785E+01  0.99556659305E+01  0.79187149322E+01  0.13629678159E+02  0.51100000000E-03 0.  1.
         12    1    3    3    0    0  0.12743642906E+02  0.15958448805E+02  0.74545411299E+01  0.21740347427E+02  0.00000000000E+00 0. -1.
</event>
<event>
 7    1  0.5487071E-013  0.5052885E+02  0.7816164E-02  0.1300439E+00
        -11   -1    0    0    0    0  0.00000000000E+00  0.00000000000E+00  0.45593999997E+02  0.45594000000E+02  0.51100000000E-03 0.  1.
         11   -1    0    0    0    0 -0.00000000000E+00 -0.00000000000E+00 -0.45593999997E+02  0.45594000000E+02  0.51100000000E-03 0. -1.
    9900012    2    1    2    0    0  0.62202003831E+01  0.24991523879E+02  0.31462660655E+02  0.50528853746E+02  0.29999981448E+02 0.  0.
        -12    1    1    2    0    0 -0.62202003831E+01 -0.24991523879E+02 -0.31462660655E+02  0.40659146254E+02  0.00000000000E+00 0.  1.
         11    1    3    3    0    0  0.19085837414E+01  0.13583225228E+02  0.62597220879E+01  0.15077493836E+02  0.51100000000E-03 0. -1.
        -11    1    3    3    0    0  0.26903081393E+01  0.83582626407E+01 -0.11655548862E+01  0.88575860543E+01  0.51100000000E-03 0.  1.
        -12    1    3    3    0    0  0.16213085025E+01  0.30500360097E+01  0.26368493453E+02  0.26593773856E+02  0.00000000000E+00 0.  1.
</event>
<event>
 7    1  0.5487071E-013  0.5052880E+02  0.7816164E-02  0.1300439E+00
        -11   -1    0    0    0    0  0.00000000000E+00  0.00000000000E+00  0.45593999997E+02  0.45594000000E+02  0.51100000000E-03 0.  1.
         11   -1    0    0    0    0 -0.00000000000E+00 -0.00000000000E+00 -0.45593999997E+02  0.45594000000E+02  0.51100000000E-03 0. -1.
    9900012    2    1    2    0    0 -0.48028783060E+01  0.12477831461E+02 -0.38398000717E+02  0.50528802061E+02  0.29999824343E+02 0.  0.
        -12    1    1    2    0    0  0.48028783060E+01 -0.12477831461E+02  0.38398000717E+02  0.40659197939E+02  0.00000000000E+00 0.  1.
         11    1    3    3    0    0 -0.91617367878E+00  0.16206158331E+01 -0.64479135046E+01  0.67112859209E+01  0.51100000000E-03 0.  1.
        -11    1    3    3    0    0  0.11405525494E+02  0.33804163831E+01 -0.76316092742E+01  0.14133459842E+02  0.51100000000E-03 0. -1.
        -12    1    3    3    0    0 -0.15292230122E+02  0.74767992446E+01 -0.24318477939E+02  0.29684056298E+02  0.00000000000E+00 0.  1.
</event>
<event>
 7    1  0.5487071E-013  0.5052886E+02  0.7816164E-02  0.1300439E+00
        -11   -1    0    0    0    0  0.00000000000E+00  0.00000000000E+00  0.45593999997E+02  0.45594000000E+02  0.51100000000E-03 0. -1.
         11   -1    0    0    0    0 -0.00000000000E+00 -0.00000000000E+00 -0.45593999997E+02  0.45594000000E+02  0.51100000000E-03 0.  1.
    9900012    2    1    2    0    0  0.37050253922E+02  0.12131751514E+02  0.11544037065E+02  0.50528862008E+02  0.30000006559E+02 0.  0.
        -12    1    1    2    0    0 -0.37050253922E+02 -0.12131751514E+02 -0.11544037065E+02  0.40659137992E+02  0.00000000000E+00 0.  1.
         11    1    3    3    0    0  0.89191997554E+01  0.12008172390E+02  0.83680913608E+01  0.17139815685E+02  0.51100000000E-03 0. -1.
        -11    1    3    3    0    0  0.19775550933E+02  0.62532269326E+01 -0.35396119350E+01  0.21040535038E+02  0.51100000000E-03 0.  1.
         12    1    3    3    0    0  0.83555032333E+01 -0.61296478083E+01  0.67155576397E+01  0.12348511285E+02  0.00000000000E+00 0. -1.
</event>
<event>
 7    1  0.5487071E-013  0.5052887E+02  0.7816164E-02  0.1300439E+00
        -11   -1    0    0    0    0  0.00000000000E+00  0.00000000000E+00  0.45593999997E+02  0.45594000000E+02  0.51100000000E-03 0.  1.
         11   -1    0    0    0    0 -0.00000000000E+00 -0.00000000000E+00 -0.45593999997E+02  0.45594000000E+02  0.51100000000E-03 0. -1.
    9900012    2    1    2    0    0  0.17039591218E+02  0.50637830112E+01 -0.36567412203E+02  0.50528865695E+02  0.30000017765E+02 0.  0.
        -12    1    1    2    0    0 -0.17039591218E+02 -0.50637830112E+01  0.36567412203E+02  0.40659134305E+02  0.00000000000E+00 0.  1.
         11    1    3    3    0    0 -0.18561155798E+01 -0.91594221540E+01 -0.14235987811E+02  0.17029489965E+02  0.51100000000E-03 0. -1.
        -11    1    3    3    0    0  0.90767319129E+00  0.11411649154E+01 -0.52678236414E+01  0.54659028682E+01  0.51100000000E-03 0.  1.
        -12    1    3    3    0    0  0.17988033606E+02  0.13082040250E+02 -0.17063600750E+02  0.28033472862E+02  0.00000000000E+00 0.  1.
</event>
<event>
 7    1  0.5487071E-013  0.5052886E+02  0.7816164E-02  0.1300439E+00
        -11   -1    0    0    0    0  0.00000000000E+00  0.00000000000E+00  0.45593999997E+02  0.45594000000E+02  0.51100000000E-03 0. -1.
         11   -1    0    0    0    0 -0.00000000000E+00 -0.00000000000E+00 -0.45593999997E+02  0.45594000000E+02  0.51100000000E-03 0.  1.
    9900012    2    1    2    0    0  0.48154765448E+01  0.37126268710E+02  0.15862439092E+02  0.50528860602E+02  0.30000002285E+02 0.  0.
        -12    1    1    2    0    0 -0.48154765448E+01 -0.37126268710E+02 -0.15862439092E+02  0.40659139398E+02  0.00000000000E+00 0.  1.
         11    1    3    3    0    0  0.65577613345E+01 -0.10565932763E+01  0.28979799416E+01  0.72469932438E+01  0.51100000000E-03 0. -1.
        -11    1    3    3    0    0 -0.26818563022E+01  0.81112694075E+00 -0.15233129639E+01  0.31891633365E+01  0.51100000000E-03 0.  1.
         12    1    3    3    0    0  0.93957151253E+00  0.37371735045E+02  0.14487772114E+02  0.40092704021E+02  0.00000000000E+00 0. -1.
</event>
<event>
 7    1  0.5487071E-013  0.5052885E+02  0.7816164E-02  0.1300439E+00
        -11   -1    0    0    0    0  0.00000000000E+00  0.00000000000E+00  0.45593999997E+02  0.45594000000E+02  0.51100000000E-03 0.  1.
         11   -1    0    0    0    0 -0.00000000000E+00 -0.00000000000E+00 -0.45593999997E+02  0.45594000000E+02  0.51100000000E-03 0. -1.
    9900012    2    1    2    0    0 -0.24046406522E+02 -0.30589370210E+02  0.11799447621E+02  0.50528853420E+02  0.29999980455E+02 0.  0.
        -12    1    1    2    0    0  0.24046406522E+02  0.30589370210E+02 -0.11799447621E+02  0.40659146580E+02  0.00000000000E+00 0.  1.
         11    1    3    3    0    0 -0.14083253726E+02 -0.20728557205E+02  0.46225637817E+01  0.25482920074E+02  0.51100000000E-03 0. -1.
        -11    1    3    3    0    0 -0.14189033379E+02 -0.53495354453E+01  0.10088334077E+02  0.18213200774E+02  0.51100000000E-03 0.  1.
        -12    1    3    3    0    0  0.42258805826E+01 -0.45112775595E+01 -0.29114502378E+01  0.68327325723E+01  0.00000000000E+00 0.  1.
</event>
<event>
 7    1  0.5487071E-013  0.5052886E+02  0.7816164E-02  0.1300439E+00
        -11   -1    0    0    0    0  0.00000000000E+00  0.00000000000E+00  0.45593999997E+02  0.45594000000E+02  0.51100000000E-03 0.  1.
         11   -1    0    0    0    0 -0.00000000000E+00 -0.00000000000E+00 -0.45593999997E+02  0.45594000000E+02  0.51100000000E-03 0. -1.
    9900012    2    1    2    0    0  0.32394756477E+02  0.42120248583E+01 -0.24207532535E+02  0.50528855493E+02  0.29999986756E+02 0.  0.
        -12    1    1    2    0    0 -0.32394756477E+02 -0.42120248583E+01  0.24207532535E+02  0.40659144507E+02  0.00000000000E+00 0.  1.
         11    1    3    3    0    0  0.11033568611E+02  0.16638416359E+01  0.24158568241E+01  0.11416845875E+02  0.51100000000E-03 0. -1.
        -11    1    3    3    0    0  0.20475473482E+02 -0.34994242549E+01 -0.13892311757E+02  0.24989744109E+02  0.51100000000E-03 0.  1.
        -12    1    3    3    0    0  0.88571438398E+00  0.60476074773E+01 -0.12731077602E+02  0.14122265508E+02  0.00000000000E+00 0.  1.
</event>
<event>
 7    1  0.5487071E-013  0.5052887E+02  0.7816164E-02  0.1300439E+00
        -11   -1    0    0    0    0  0.00000000000E+00  0.00000000000E+00  0.45593999997E+02  0.45594000000E+02  0.51100000000E-03 0.  1.
         11   -1    0    0    0    0 -0.00000000000E+00 -0.00000000000E+00 -0.45593999997E+02  0.45594000000E+02  0.51100000000E-03 0. -1.
    9900012    2    1    2    0    0 -0.30856853827E+02  0.17481566779E+02  0.19885028678E+02  0.50528868545E+02  0.30000026429E+02 0.  0.
        -12    1    1    2    0    0  0.30856853827E+02 -0.17481566779E+02 -0.19885028678E+02  0.40659131455E+02  0.00000000000E+00 0.  1.
         11    1    3    3    0    0 -0.29919665153E+01  0.13440951686E+02  0.53553651069E+00  0.13780342720E+02  0.51100000000E-03 0. -1.
        -11    1    3    3    0    0 -0.27697808219E+01  0.45262807660E+01  0.44345805860E+00  0.53249937732E+01  0.51100000000E-03 0.  1.
         12    1    3    3    0    0 -0.25095106490E+02 -0.48566567296E+00  0.18906034108E+02  0.31423532052E+02  0.00000000000E+00 0. -1.
</event>
<event>
 7    1  0.5487071E-013  0.5052885E+02  0.7816164E-02  0.1300439E+00
        -11   -1    0    0    0    0  0.00000000000E+00  0.00000000000E+00  0.45593999997E+02  0.45594000000E+02  0.51100000000E-03 0.  1.
         11   -1    0    0    0    0 -0.00000000000E+00 -0.00000000000E+00 -0.45593999997E+02  0.45594000000E+02  0.51100000000E-03 0. -1.
    9900012    2    1    2    0    0  0.17318466860E+02  0.37632867873E+01 -0.36593367012E+02  0.50528854275E+02  0.29999983053E+02 0.  0.
        -12    1    1    2    0    0 -0.17318466860E+02 -0.37632867873E+01  0.36593367012E+02  0.40659145725E+02  0.00000000000E+00 0.  1.
         11    1    3    3    0    0  0.38767805292E+01 -0.63624284020E+01 -0.19194781892E+02  0.20590035808E+02  0.51100000000E-03 0. -1.
        -11    1    3    3    0    0  0.12281123558E+02 -0.99525922763E+00 -0.51505710867E+01  0.13354584215E+02  0.51100000000E-03 0.  1.
         12    1    3    3    0    0  0.11605627724E+01  0.11120974417E+02 -0.12248014034E+02  0.16584234251E+02  0.00000000000E+00 0. -1.
</event>
<event>
 7    1  0.5487071E-013  0.5052886E+02  0.7816164E-02  0.1300439E+00
        -11   -1    0    0    0    0  0.00000000000E+00  0.00000000000E+00  0.45593999997E+02  0.45594000000E+02  0.51100000000E-03 0. -1.
         11   -1    0    0    0    0 -0.00000000000E+00 -0.00000000000E+00 -0.45593999997E+02  0.45594000000E+02  0.51100000000E-03 0.  1.
    9900012    2    1    2    0    0  0.74967151272E+01  0.34585126535E+02  0.20020839445E+02  0.50528859241E+02  0.29999998150E+02 0.  0.
        -12    1    1    2    0    0 -0.74967151272E+01 -0.34585126535E+02 -0.20020839445E+02  0.40659140759E+02  0.00000000000E+00 0.  1.
         11    1    3    3    0    0 -0.18487107640E+01 -0.23009014205E+01 -0.24023616559E+01  0.38056826750E+01  0.51100000000E-03 0.  1.
        -11    1    3    3    0    0  0.34172949962E+01  0.12621813652E+02 -0.11974742572E+00  0.13076789540E+02  0.51100000000E-03 0. -1.
        -12    1    3    3    0    0  0.59281308950E+01  0.24264214303E+02  0.22542948527E+02  0.33646387027E+02  0.00000000000E+00 0.  1.
</event>
<event>
 7    1  0.5487071E-013  0.5052888E+02  0.7816164E-02  0.1300439E+00
        -11   -1    0    0    0    0  0.00000000000E+00  0.00000000000E+00  0.45593999997E+02  0.45594000000E+02  0.51100000000E-03 0. -1.
         11   -1    0    0    0    0 -0.00000000000E+00 -0.00000000000E+00 -0.45593999997E+02  0.45594000000E+02  0.51100000000E-03 0.  1.
    9900012    2    1    2    0    0  0.26868113342E+02 -0.21971581534E+02  0.21178255718E+02  0.50528875257E+02  0.30000046830E+02 0.  0.
        -12    1    1    2    0    0 -0.26868113342E+02  0.21971581534E+02 -0.21178255718E+02  0.40659124743E+02  0.00000000000E+00 0.  1.
         11    1    3    3    0    0 -0.56597253084E+01 -0.16457563078E+01  0.75797218264E+01  0.96017283662E+01  0.51100000000E-03 0.  1.
        -11    1    3    3    0    0  0.22247076206E+02 -0.11856499070E+02  0.10083050144E+02  0.27151001278E+02  0.51100000000E-03 0. -1.
        -12    1    3    3    0    0  0.10280762444E+02 -0.84693261555E+01  0.35154837478E+01  0.13776145613E+02  0.00000000000E+00 0.  1.
</event>
<event>
 7    1  0.5487071E-013  0.5052889E+02  0.7816164E-02  0.1300439E+00
        -11   -1    0    0    0    0  0.00000000000E+00  0.00000000000E+00  0.45593999997E+02  0.45594000000E+02  0.51100000000E-03 0. -1.
         11   -1    0    0    0    0 -0.00000000000E+00 -0.00000000000E+00 -0.45593999997E+02  0.45594000000E+02  0.51100000000E-03 0.  1.
    9900012    2    1    2    0    0 -0.49769520977E+01  0.25536770546E+02  0.31245263978E+02  0.50528890035E+02  0.30000091751E+02 0.  0.
        -12    1    1    2    0    0  0.49769520977E+01 -0.25536770546E+02 -0.31245263978E+02  0.40659109965E+02  0.00000000000E+00 0.  1.
         11    1    3    3    0    0 -0.20695893852E+01  0.19361348677E+01 -0.26891784207E+01  0.39068528625E+01  0.51100000000E-03 0. -1.
        -11    1    3    3    0    0 -0.25043774848E+01  0.11797045697E+02  0.15597949794E+01  0.12160392855E+02  0.51100000000E-03 0.  1.
         12    1    3    3    0    0 -0.40298522773E+00  0.11803589982E+02  0.32374647419E+02  0.34461644317E+02  0.00000000000E+00 0. -1.
</event>
<event>
 7    1  0.5487071E-013  0.5052886E+02  0.7816164E-02  0.1300439E+00
        -11   -1    0    0    0    0  0.00000000000E+00  0.00000000000E+00  0.45593999997E+02  0.45594000000E+02  0.51100000000E-03 0. -1.
         11   -1    0    0    0    0 -0.00000000000E+00 -0.00000000000E+00 -0.45593999997E+02  0.45594000000E+02  0.51100000000E-03 0.  1.
    9900012    2    1    2    0    0 -0.15289383410E+02 -0.27481081228E+02 -0.25771891971E+02  0.50528862204E+02  0.30000007156E+02 0.  0.
        -12    1    1    2    0    0  0.15289383410E+02  0.27481081228E+02  0.25771891971E+02  0.40659137796E+02  0.00000000000E+00 0.  1.
         11    1    3    3    0    0 -0.52564513702E+01 -0.21690256019E+01 -0.51066124833E+00  0.57092668742E+01  0.51100000000E-03 0. -1.
        -11    1    3    3    0    0 -0.61892902727E+01  0.38545262528E+01 -0.74742441189E+01  0.10441695845E+02  0.51100000000E-03 0.  1.
         12    1    3    3    0    0 -0.38436417669E+01 -0.29166581879E+02 -0.17786986604E+02  0.34377899485E+02  0.00000000000E+00 0. -1.
</event>
<event>
 7    1  0.5487071E-013  0.5052886E+02  0.7816164E-02  0.1300439E+00
        -11   -1    0    0    0    0  0.00000000000E+00  0.00000000000E+00  0.45593999997E+02  0.45594000000E+02  0.51100000000E-03 0. -1.
         11   -1    0    0    0    0 -0.00000000000E+00 -0.00000000000E+00 -0.45593999997E+02  0.45594000000E+02  0.51100000000E-03 0.  1.
    9900012    2    1    2    0    0  0.55388274399E+01 -0.26643867543E+02  0.30209124172E+02  0.50528862401E+02  0.30000007753E+02 0.  0.
        -12    1    1    2    0    0 -0.55388274399E+01  0.26643867543E+02 -0.30209124172E+02  0.40659137599E+02  0.00000000000E+00 0.  1.
         11    1    3    3    0    0  0.52027385113E+01 -0.39284371982E+01  0.14677747727E+02  0.16060429179E+02  0.51100000000E-03 0. -1.
        -11    1    3    3    0    0  0.20862387322E+01  0.29525015668E+01 -0.11646925167E+01  0.37981793625E+01  0.51100000000E-03 0.  1.
         12    1    3    3    0    0 -0.17501498036E+01 -0.25667931912E+02  0.16696068962E+02  0.30670253859E+02  0.00000000000E+00 0. -1.
</event>
<event>
 7    1  0.5487071E-013  0.5052887E+02  0.7816164E-02  0.1300439E+00
        -11   -1    0    0    0    0  0.00000000000E+00  0.00000000000E+00  0.45593999997E+02  0.45594000000E+02  0.51100000000E-03 0.  1.
         11   -1    0    0    0    0 -0.00000000000E+00 -0.00000000000E+00 -0.45593999997E+02  0.45594000000E+02  0.51100000000E-03 0. -1.
    9900012    2    1    2    0    0  0.21793364740E+02 -0.21271217451E+02 -0.26939742355E+02  0.50528866257E+02  0.30000019475E+02 0.  0.
        -12    1    1    2    0    0 -0.21793364740E+02  0.21271217451E+02  0.26939742355E+02  0.40659133743E+02  0.00000000000E+00 0.  1.
         11    1    3    3    0    0  0.46607067390E+01  0.11962919951E+01 -0.15857395077E+02  0.16571369308E+02  0.51100000000E-03 0. -1.
        -11    1    3    3    0    0  0.96032871546E+01 -0.12508235466E+02 -0.14054313237E+02  0.21123512953E+02  0.51100000000E-03 0.  1.
        -12    1    3    3    0    0  0.75293708467E+01 -0.99592739798E+01  0.29719659589E+01  0.12833983996E+02  0.00000000000E+00 0.  1.
</event>
<event>
 7    1  0.5487071E-013  0.5052886E+02  0.7816164E-02  0.1300439E+00
        -11   -1    0    0    0    0  0.00000000000E+00  0.00000000000E+00  0.45593999997E+02  0.45594000000E+02  0.51100000000E-03 0.  1.
         11   -1    0    0    0    0 -0.00000000000E+00 -0.00000000000E+00 -0.45593999997E+02  0.45594000000E+02  0.51100000000E-03 0. -1.
    9900012    2    1    2    0    0  0.29565056840E+02  0.18738428345E+02 -0.20686819698E+02  0.50528858445E+02  0.29999995730E+02 0.  0.
        -12    1    1    2    0    0 -0.29565056840E+02 -0.18738428345E+02  0.20686819698E+02  0.40659141555E+02  0.00000000000E+00 0.  1.
         11    1    3    3    0    0  0.25140003742E+02  0.13908212505E+02 -0.10446767200E+02  0.30571115590E+02  0.51100000000E-03 0. -1.
        -11    1    3    3    0    0  0.74143417690E+01  0.88220360944E+01 -0.45450340950E+01  0.12387821435E+02  0.51100000000E-03 0.  1.
        -12    1    3    3    0    0 -0.29892886710E+01 -0.39918202546E+01 -0.56950184022E+01  0.75699214200E+01  0.00000000000E+00 0.  1.
</event>
<event>
 7    1  0.5487071E-013  0.5052887E+02  0.7816164E-02  0.1300439E+00
        -11   -1    0    0    0    0  0.00000000000E+00  0.00000000000E+00  0.45593999997E+02  0.45594000000E+02  0.51100000000E-03 0. -1.
         11   -1    0    0    0    0 -0.00000000000E+00 -0.00000000000E+00 -0.45593999997E+02  0.45594000000E+02  0.51100000000E-03 0.  1.
    9900012    2    1    2    0    0 -0.63643177439E+01 -0.26517055254E+02  0.30158023199E+02  0.50528866672E+02  0.30000020738E+02 0.  0.
        -12    1    1    2    0    0  0.63643177439E+01  0.26517055254E+02 -0.30158023199E+02  0.40659133328E+02  0.00000000000E+00 0.  1.
         11    1    3    3    0    0 -0.57790719264E+01  0.67860302570E-01  0.45167886745E+01  0.73350976505E+01  0.51100000000E-03 0. -1.
        -11    1    3    3    0    0 -0.24142027615E+01  0.18231885202E+01  0.10547661408E+02  0.10972946405E+02  0.51100000000E-03 0.  1.
        -12    1    3    3    0    0  0.18289569440E+01 -0.28408104076E+02  0.15093573116E+02  0.32220822617E+02  0.00000000000E+00 0.  1.
</event>
<event>
 7    1  0.5487071E-013  0.5052890E+02  0.7816164E-02  0.1300439E+00
        -11   -1    0    0    0    0  0.00000000000E+00  0.00000000000E+00  0.45593999997E+02  0.45594000000E+02  0.51100000000E-03 0.  1.
         11   -1    0    0    0    0 -0.00000000000E+00 -0.00000000000E+00 -0.45593999997E+02  0.45594000000E+02  0.51100000000E-03 0. -1.
    9900012    2    1    2    0    0  0.14270213545E+02 -0.37124835926E+02 -0.84421762615E+01  0.50528895519E+02  0.30000108420E+02 0.  0.
        -12    1    1    2    0    0 -0.14270213545E+02  0.37124835926E+02  0.84421762615E+01  0.40659104481E+02  0.00000000000E+00 0.  1.
         11    1    3    3    0    0  0.41458285462E+00 -0.78378920763E+01 -0.27825952452E+01  0.83275006876E+01  0.51100000000E-03 0. -1.
        -11    1    3    3    0    0  0.11775184463E+02 -0.34047166763E+02 -0.72909821011E+01  0.36756264146E+02  0.51100000000E-03 0.  1.
        -12    1    3    3    0    0  0.20804462274E+01  0.47602229127E+01  0.16314010848E+01  0.54451306856E+01  0.00000000000E+00 0.  1.
</event>
<event>
 7    1  0.5487071E-013  0.5052887E+02  0.7816164E-02  0.1300439E+00
        -11   -1    0    0    0    0  0.00000000000E+00  0.00000000000E+00  0.45593999997E+02  0.45594000000E+02  0.51100000000E-03 0.  1.
         11   -1    0    0    0    0 -0.00000000000E+00 -0.00000000000E+00 -0.45593999997E+02  0.45594000000E+02  0.51100000000E-03 0. -1.
    9900012    2    1    2    0    0  0.28558706967E+02 -0.26517052165E+02 -0.11593592367E+02  0.50528865933E+02  0.30000018489E+02 0.  0.
        -12    1    1    2    0    0 -0.28558706967E+02  0.26517052165E+02  0.11593592367E+02  0.40659134067E+02  0.00000000000E+00 0.  1.
         11    1    3    3    0    0  0.88672643203E+01  0.14355720132E+00  0.56098928674E+01  0.10493802144E+02  0.51100000000E-03 0. -1.
        -11    1    3    3    0    0 -0.17570946726E+01 -0.89545741004E-01 -0.19769267334E+01  0.26464390601E+01  0.51100000000E-03 0.  1.
         12    1    3    3    0    0  0.21448537319E+02 -0.26571063625E+02 -0.15226558501E+02  0.37388624729E+02  0.00000000000E+00 0. -1.
</event>
<event>
 7    1  0.5487071E-013  0.5052887E+02  0.7816164E-02  0.1300439E+00
        -11   -1    0    0    0    0  0.00000000000E+00  0.00000000000E+00  0.45593999997E+02  0.45594000000E+02  0.51100000000E-03 0.  1.
         11   -1    0    0    0    0 -0.00000000000E+00 -0.00000000000E+00 -0.45593999997E+02  0.45594000000E+02  0.51100000000E-03 0. -1.
    9900012    2    1    2    0    0  0.11929429276E+02 -0.18159406470E+02 -0.34366977169E+02  0.50528874998E+02  0.30000046045E+02 0.  0.
        -12    1    1    2    0    0 -0.11929429276E+02  0.18159406470E+02  0.34366977169E+02  0.40659125002E+02  0.00000000000E+00 0.  1.
         11    1    3    3    0    0  0.51287691137E+01 -0.90705874603E+01 -0.21017919284E+02  0.23459172210E+02  0.51100000000E-03 0. -1.
        -11    1    3    3    0    0  0.15336259937E+01 -0.14126497506E+02 -0.13746430861E+02  0.19770541271E+02  0.51100000000E-03 0.  1.
        -12    1    3    3    0    0  0.52670341686E+01  0.50376784967E+01  0.39737297615E+00  0.72991615170E+01  0.00000000000E+00 0.  1.
</event>
<event>
 7    1  0.5487071E-013  0.5052886E+02  0.7816164E-02  0.1300439E+00
        -11   -1    0    0    0    0  0.00000000000E+00  0.00000000000E+00  0.45593999997E+02  0.45594000000E+02  0.51100000000E-03 0.  1.
         11   -1    0    0    0    0 -0.00000000000E+00 -0.00000000000E+00 -0.45593999997E+02  0.45594000000E+02  0.51100000000E-03 0. -1.
    9900012    2    1    2    0    0  0.28278625470E+02  0.29108825165E+02  0.24822602661E+01  0.50528856170E+02  0.29999988815E+02 0.  0.
        -12    1    1    2    0    0 -0.28278625470E+02 -0.29108825165E+02 -0.24822602661E+01  0.40659143830E+02  0.00000000000E+00 0.  1.
         11    1    3    3    0    0  0.52399502862E+01  0.49710449483E+01  0.10105527940E+02  0.12421355083E+02  0.51100000000E-03 0. -1.
        -11    1    3    3    0    0 -0.40998806258E+00  0.30385029408E+00  0.29863115089E+01  0.30295992973E+01  0.51100000000E-03 0.  1.
         12    1    3    3    0    0  0.23448663246E+02  0.23833929922E+02 -0.10609579183E+02  0.35077901790E+02  0.00000000000E+00 0. -1.
</event>
<event>
 7    1  0.5487071E-013  0.5052886E+02  0.7816164E-02  0.1300439E+00
        -11   -1    0    0    0    0  0.00000000000E+00  0.00000000000E+00  0.45593999997E+02  0.45594000000E+02  0.51100000000E-03 0.  1.
         11   -1    0    0    0    0 -0.00000000000E+00 -0.00000000000E+00 -0.45593999997E+02  0.45594000000E+02  0.51100000000E-03 0. -1.
    9900012    2    1    2    0    0  0.36059592662E+02 -0.11706856456E+02 -0.14690849376E+02  0.50528858759E+02  0.29999996685E+02 0.  0.
        -12    1    1    2    0    0 -0.36059592662E+02  0.11706856456E+02  0.14690849376E+02  0.40659141241E+02  0.00000000000E+00 0.  1.
         11    1    3    3    0    0  0.19606212422E+02 -0.11549968623E+02 -0.20620277592E+01  0.22848573248E+02  0.51100000000E-03 0. -1.
        -11    1    3    3    0    0  0.16859823357E+02 -0.66382398027E+01 -0.88284258955E+01  0.20155916634E+02  0.51100000000E-03 0.  1.
        -12    1    3    3    0    0 -0.40644311675E+00  0.64813519696E+01 -0.38003957214E+01  0.75243688773E+01  0.00000000000E+00 0.  1.
</event>
<event>
 7    1  0.5487071E-013  0.5052887E+02  0.7816164E-02  0.1300439E+00
        -11   -1    0    0    0    0  0.00000000000E+00  0.00000000000E+00  0.45593999997E+02  0.45594000000E+02  0.51100000000E-03 0.  1.
         11   -1    0    0    0    0 -0.00000000000E+00 -0.00000000000E+00 -0.45593999997E+02  0.45594000000E+02  0.51100000000E-03 0. -1.
    9900012    2    1    2    0    0 -0.40360692054E+02 -0.38183589089E+01 -0.30982910014E+01  0.50528871443E+02  0.30000035239E+02 0.  0.
        -12    1    1    2    0    0  0.40360692054E+02  0.38183589089E+01  0.30982910014E+01  0.40659128557E+02  0.00000000000E+00 0.  1.
         11    1    3    3    0    0 -0.39559233813E+01 -0.65279911337E+01  0.18390211308E+01  0.78514964829E+01  0.51100000000E-03 0. -1.
        -11    1    3    3    0    0 -0.12584530015E+02 -0.59144053169E+01  0.59233772217E+01  0.15114131927E+02  0.51100000000E-03 0.  1.
         12    1    3    3    0    0 -0.23820238658E+02  0.86240375417E+01 -0.10860689354E+02  0.27563243033E+02  0.00000000000E+00 0. -1.
</event>
<event>
 7    1  0.5487071E-013  0.5052886E+02  0.7816164E-02  0.1300439E+00
        -11   -1    0    0    0    0  0.00000000000E+00  0.00000000000E+00  0.45593999997E+02  0.45594000000E+02  0.51100000000E-03 0.  1.
         11   -1    0    0    0    0 -0.00000000000E+00 -0.00000000000E+00 -0.45593999997E+02  0.45594000000E+02  0.51100000000E-03 0. -1.
    9900012    2    1    2    0    0 -0.10662354423E+02  0.27215861337E+02 -0.28262637518E+02  0.50528860933E+02  0.30000003293E+02 0.  0.
        -12    1    1    2    0    0  0.10662354423E+02 -0.27215861337E+02  0.28262637518E+02  0.40659139067E+02  0.00000000000E+00 0.  1.
         11    1    3    3    0    0 -0.46624919286E+01  0.55985686713E+01 -0.19293803958E+02  0.20623619313E+02  0.51100000000E-03 0. -1.
        -11    1    3    3    0    0 -0.32248792419E+01 -0.11327413631E+01 -0.58499971546E+01  0.67753535768E+01  0.51100000000E-03 0.  1.
        -12    1    3    3    0    0 -0.27749832523E+01  0.22750034029E+02 -0.31188364053E+01  0.23129888044E+02  0.00000000000E+00 0.  1.
</event>
<event>
 7    1  0.5487071E-013  0.5052887E+02  0.7816164E-02  0.1300439E+00
        -11   -1    0    0    0    0  0.00000000000E+00  0.00000000000E+00  0.45593999997E+02  0.45594000000E+02  0.51100000000E-03 0.  1.
         11   -1    0    0    0    0 -0.00000000000E+00 -0.00000000000E+00 -0.45593999997E+02  0.45594000000E+02  0.51100000000E-03 0. -1.
    9900012    2    1    2    0    0  0.32442990522E+01  0.17581055424E+02 -0.36517744670E+02  0.50528872342E+02  0.30000037969E+02 0.  0.
        -12    1    1    2    0    0 -0.32442990522E+01 -0.17581055424E+02  0.36517744670E+02  0.40659127658E+02  0.00000000000E+00 0.  1.
         11    1    3    3    0    0  0.15557266107E+01 -0.41370404270E+01 -0.88097911959E+01  0.98563588590E+01  0.51100000000E-03 0. -1.
        -11    1    3    3    0    0  0.69303249124E+01  0.11015123008E+01 -0.19842642349E+01  0.72924644364E+01  0.51100000000E-03 0.  1.
         12    1    3    3    0    0 -0.52417524710E+01  0.20616583550E+02 -0.25723689239E+02  0.33380049046E+02  0.00000000000E+00 0. -1.
</event>
<event>
 7    1  0.5487071E-013  0.5052887E+02  0.7816164E-02  0.1300439E+00
        -11   -1    0    0    0    0  0.00000000000E+00  0.00000000000E+00  0.45593999997E+02  0.45594000000E+02  0.51100000000E-03 0.  1.
         11   -1    0    0    0    0 -0.00000000000E+00 -0.00000000000E+00 -0.45593999997E+02  0.45594000000E+02  0.51100000000E-03 0. -1.
    9900012    2    1    2    0    0  0.10453616778E+02 -0.38094838861E+02 -0.96265381161E+01  0.50528867106E+02  0.30000022057E+02 0.  0.
        -12    1    1    2    0    0 -0.10453616778E+02  0.38094838861E+02  0.96265381161E+01  0.40659132894E+02  0.00000000000E+00 0.  1.
         11    1    3    3    0    0  0.11435811064E+02 -0.22976563818E+02 -0.34733024635E+01  0.25899113688E+02  0.51100000000E-03 0. -1.
        -11    1    3    3    0    0  0.51741612588E+01 -0.16078322815E+02 -0.17094005781E+01  0.16976644541E+02  0.51100000000E-03 0.  1.
        -12    1    3    3    0    0 -0.61563555448E+01  0.96004777213E+00 -0.44438350745E+01  0.76531088773E+01  0.00000000000E+00 0.  1.
</event>
<event>
 7    1  0.5487071E-013  0.5052886E+02  0.7816164E-02  0.1300439E+00
        -11   -1    0    0    0    0  0.00000000000E+00  0.00000000000E+00  0.45593999997E+02  0.45594000000E+02  0.51100000000E-03 0. -1.
         11   -1    0    0    0    0 -0.00000000000E+00 -0.00000000000E+00 -0.45593999997E+02  0.45594000000E+02  0.51100000000E-03 0.  1.
    9900012    2    1    2    0    0 -0.32119075564E+02  0.24756612615E+02  0.29395574215E+01  0.50528857349E+02  0.29999992399E+02 0.  0.
        -12    1    1    2    0    0  0.32119075564E+02 -0.24756612615E+02 -0.29395574215E+01  0.40659142651E+02  0.00000000000E+00 0.  1.
         11    1    3    3    0    0 -0.26518865396E+02  0.16300785071E+02 -0.47040175193E+01  0.31481639044E+02  0.51100000000E-03 0. -1.
        -11    1    3    3    0    0  0.24417159042E+01  0.63316916771E+01 -0.12167982316E+01  0.68944103626E+01  0.51100000000E-03 0.  1.
         12    1    3    3    0    0 -0.80419260723E+01  0.21241358666E+01  0.88603731724E+01  0.12152807942E+02  0.00000000000E+00 0. -1.
</event>
<event>
 7    1  0.5487071E-013  0.5052886E+02  0.7816164E-02  0.1300439E+00
        -11   -1    0    0    0    0  0.00000000000E+00  0.00000000000E+00  0.45593999997E+02  0.45594000000E+02  0.51100000000E-03 0.  1.
         11   -1    0    0    0    0 -0.00000000000E+00 -0.00000000000E+00 -0.45593999997E+02  0.45594000000E+02  0.51100000000E-03 0. -1.
    9900012    2    1    2    0    0 -0.22905458656E+02  0.10022789532E+02 -0.32063208787E+02  0.50528859528E+02  0.29999999020E+02 0.  0.
        -12    1    1    2    0    0  0.22905458656E+02 -0.10022789532E+02  0.32063208787E+02  0.40659140472E+02  0.00000000000E+00 0.  1.
         11    1    3    3    0    0 -0.11982133241E+02  0.73174827946E+01 -0.19450819585E+02  0.23988569241E+02  0.51100000000E-03 0. -1.
        -11    1    3    3    0    0  0.68436983211E+00 -0.21472034275E+00 -0.14417732947E+02  0.14435563394E+02  0.51100000000E-03 0.  1.
        -12    1    3    3    0    0 -0.11607695247E+02  0.29200270803E+01  0.18053437456E+01  0.12104726892E+02  0.00000000000E+00 0.  1.
</event>
<event>
 7    1  0.5487071E-013  0.5052883E+02  0.7816164E-02  0.1300439E+00
        -11   -1    0    0    0    0  0.00000000000E+00  0.00000000000E+00  0.45593999997E+02  0.45594000000E+02  0.51100000000E-03 0.  1.
         11   -1    0    0    0    0 -0.00000000000E+00 -0.00000000000E+00 -0.45593999997E+02  0.45594000000E+02  0.51100000000E-03 0. -1.
    9900012    2    1    2    0    0 -0.50775569891E+01 -0.30598185830E+02 -0.26289496162E+02  0.50528829208E+02  0.29999906860E+02 0.  0.
        -12    1    1    2    0    0  0.50775569891E+01  0.30598185830E+02  0.26289496162E+02  0.40659170792E+02  0.00000000000E+00 0.  1.
         11    1    3    3    0    0 -0.43347502380E+01 -0.24325366261E+02 -0.27524071051E+02  0.36987673499E+02  0.51100000000E-03 0. -1.
        -11    1    3    3    0    0 -0.23620565521E+01  0.26560707368E+01 -0.17849484734E+01  0.39774444343E+01  0.51100000000E-03 0.  1.
        -12    1    3    3    0    0  0.16192498010E+01 -0.89288903059E+01  0.30195233629E+01  0.95637112750E+01  0.00000000000E+00 0.  1.
</event>
<event>
 7    1  0.5487071E-013  0.5052887E+02  0.7816164E-02  0.1300439E+00
        -11   -1    0    0    0    0  0.00000000000E+00  0.00000000000E+00  0.45593999997E+02  0.45594000000E+02  0.51100000000E-03 0.  1.
         11   -1    0    0    0    0 -0.00000000000E+00 -0.00000000000E+00 -0.45593999997E+02  0.45594000000E+02  0.51100000000E-03 0. -1.
    9900012    2    1    2    0    0  0.23246169308E+02 -0.23910669212E+02 -0.23260709587E+02  0.50528866953E+02  0.30000021591E+02 0.  0.
        -12    1    1    2    0    0 -0.23246169308E+02  0.23910669212E+02  0.23260709587E+02  0.40659133047E+02  0.00000000000E+00 0.  1.
         11    1    3    3    0    0 -0.31524527949E+00 -0.10619399675E+00 -0.50871462525E+01  0.50980107892E+01  0.51100000000E-03 0. -1.
        -11    1    3    3    0    0 -0.37511829953E+01 -0.33991406806E+01 -0.86667847550E+01  0.10036866517E+02  0.51100000000E-03 0.  1.
         12    1    3    3    0    0  0.27312597583E+02 -0.20405334535E+02 -0.95067785792E+01  0.35393989647E+02  0.00000000000E+00 0. -1.
</event>
<event>
 7    1  0.5487071E-013  0.5052886E+02  0.7816164E-02  0.1300439E+00
        -11   -1    0    0    0    0  0.00000000000E+00  0.00000000000E+00  0.45593999997E+02  0.45594000000E+02  0.51100000000E-03 0.  1.
         11   -1    0    0    0    0 -0.00000000000E+00 -0.00000000000E+00 -0.45593999997E+02  0.45594000000E+02  0.51100000000E-03 0. -1.
    9900012    2    1    2    0    0  0.16408891309E+02 -0.36999723985E+02  0.38645439737E+01  0.50528856021E+02  0.29999988361E+02 0.  0.
        -12    1    1    2    0    0 -0.16408891309E+02  0.36999723985E+02 -0.38645439737E+01  0.40659143979E+02  0.00000000000E+00 0.  1.
         11    1    3    3    0    0  0.34182612124E+01 -0.19714365709E+01  0.11148273203E+00  0.39475942712E+01  0.51100000000E-03 0. -1.
        -11    1    3    3    0    0  0.10192173895E+02 -0.36968761643E+02  0.98543830525E+01  0.39593921398E+02  0.51100000000E-03 0.  1.
         12    1    3    3    0    0  0.27984562020E+01  0.19404742281E+01 -0.61013218109E+01  0.69873403513E+01  0.00000000000E+00 0. -1.
</event>
<event>
 7    1  0.5487071E-013  0.5052886E+02  0.7816164E-02  0.1300439E+00
        -11   -1    0    0    0    0  0.00000000000E+00  0.00000000000E+00  0.45593999997E+02  0.45594000000E+02  0.51100000000E-03 0. -1.
         11   -1    0    0    0    0 -0.00000000000E+00 -0.00000000000E+00 -0.45593999997E+02  0.45594000000E+02  0.51100000000E-03 0.  1.
    9900012    2    1    2    0    0  0.40170893314E+02 -0.53637338680E+01  0.32703526860E+01  0.50528861823E+02  0.30000005996E+02 0.  0.
        -12    1    1    2    0    0 -0.40170893314E+02  0.53637338680E+01 -0.32703526860E+01  0.40659138177E+02  0.00000000000E+00 0.  1.
         11    1    3    3    0    0  0.12923721241E+02 -0.85100914078E+01 -0.42919416593E+01  0.16058175175E+02  0.51100000000E-03 0. -1.
        -11    1    3    3    0    0  0.18621403344E+02 -0.70148889475E-01 -0.46345149293E+01  0.19189588642E+02  0.51100000000E-03 0.  1.
         12    1    3    3    0    0  0.86257687283E+01  0.32165064292E+01  0.12196809275E+02  0.15281098005E+02  0.00000000000E+00 0. -1.
</event>
<event>
 7    1  0.5487071E-013  0.5052886E+02  0.7816164E-02  0.1300439E+00
        -11   -1    0    0    0    0  0.00000000000E+00  0.00000000000E+00  0.45593999997E+02  0.45594000000E+02  0.51100000000E-03 0. -1.
         11   -1    0    0    0    0 -0.00000000000E+00 -0.00000000000E+00 -0.45593999997E+02  0.45594000000E+02  0.51100000000E-03 0.  1.
    9900012    2    1    2    0    0 -0.24835533547E+00  0.35214640428E+02  0.20323216169E+02  0.50528859622E+02  0.29999999308E+02 0.  0.
        -12    1    1    2    0    0  0.24835533547E+00 -0.35214640428E+02 -0.20323216169E+02  0.40659140378E+02  0.00000000000E+00 0.  1.
         11    1    3    3    0    0  0.38794805811E+01  0.28878371589E+01 -0.48499085454E+01  0.68492033256E+01  0.51100000000E-03 0.  1.
        -11    1    3    3    0    0  0.46054020538E+01  0.65838251631E+01  0.29199299707E+01  0.85488287590E+01  0.51100000000E-03 0. -1.
         12    1    3    3    0    0 -0.87332379704E+01  0.25742978106E+02  0.22253194743E+02  0.35130827538E+02  0.00000000000E+00 0. -1.
</event>
<event>
 7    1  0.5487071E-013  0.5052886E+02  0.7816164E-02  0.1300439E+00
        -11   -1    0    0    0    0  0.00000000000E+00  0.00000000000E+00  0.45593999997E+02  0.45594000000E+02  0.51100000000E-03 0.  1.
         11   -1    0    0    0    0 -0.00000000000E+00 -0.00000000000E+00 -0.45593999997E+02  0.45594000000E+02  0.51100000000E-03 0. -1.
    9900012    2    1    2    0    0 -0.33707879050E+02 -0.50878834635E+01 -0.22159820200E+02  0.50528864502E+02  0.30000014139E+02 0.  0.
        -12    1    1    2    0    0  0.33707879050E+02  0.50878834635E+01  0.22159820200E+02  0.40659135498E+02  0.00000000000E+00 0.  1.
         11    1    3    3    0    0 -0.10703255115E+01 -0.13835156444E+01 -0.51783129756E+01  0.54657696414E+01  0.51100000000E-03 0. -1.
        -11    1    3    3    0    0  0.27073232669E+01  0.43692836224E+00 -0.78619444281E+01  0.83265044357E+01  0.51100000000E-03 0.  1.
        -12    1    3    3    0    0 -0.35344876805E+02 -0.41412961814E+01 -0.91195627962E+01  0.36736590425E+02  0.00000000000E+00 0.  1.
</event>
<event>
 7    1  0.5487071E-013  0.5052886E+02  0.7816164E-02  0.1300439E+00
        -11   -1    0    0    0    0  0.00000000000E+00  0.00000000000E+00  0.45593999997E+02  0.45594000000E+02  0.51100000000E-03 0.  1.
         11   -1    0    0    0    0 -0.00000000000E+00 -0.00000000000E+00 -0.45593999997E+02  0.45594000000E+02  0.51100000000E-03 0. -1.
    9900012    2    1    2    0    0  0.16250477060E+02 -0.35478195510E+02 -0.11418652132E+02  0.50528856159E+02  0.29999988782E+02 0.  0.
        -12    1    1    2    0    0 -0.16250477060E+02  0.35478195510E+02  0.11418652132E+02  0.40659143841E+02  0.00000000000E+00 0.  1.
         11    1    3    3    0    0 -0.18271372982E+00 -0.22686386723E+02  0.68258456347E+00  0.22697388590E+02  0.51100000000E-03 0. -1.
        -11    1    3    3    0    0  0.70208894333E+01 -0.12640486483E+02 -0.30606806604E+01  0.14779802208E+02  0.51100000000E-03 0.  1.
        -12    1    3    3    0    0  0.94123013570E+01 -0.15132230445E+00 -0.90405560350E+01  0.13051665361E+02  0.00000000000E+00 0.  1.
</event>
<event>
 7    1  0.5487071E-013  0.5052886E+02  0.7816164E-02  0.1300439E+00
        -11   -1    0    0    0    0  0.00000000000E+00  0.00000000000E+00  0.45593999997E+02  0.45594000000E+02  0.51100000000E-03 0.  1.
         11   -1    0    0    0    0 -0.00000000000E+00 -0.00000000000E+00 -0.45593999997E+02  0.45594000000E+02  0.51100000000E-03 0. -1.
    9900012    2    1    2    0    0  0.86040733987E+00 -0.35904464334E+02 -0.19060290734E+02  0.50528861510E+02  0.30000005046E+02 0.  0.
        -12    1    1    2    0    0 -0.86040733987E+00  0.35904464334E+02  0.19060290734E+02  0.40659138490E+02  0.00000000000E+00 0.  1.
         11    1    3    3    0    0 -0.11889412280E+02 -0.11119263285E+02 -0.11222107668E+02  0.19771996387E+02  0.51100000000E-03 0. -1.
        -11    1    3    3    0    0  0.49416742014E+00  0.89732790972E+00  0.44808540698E+00  0.11181143098E+01  0.51100000000E-03 0.  1.
         12    1    3    3    0    0  0.12255652200E+02 -0.25682528959E+02 -0.82862684734E+01  0.29638750813E+02  0.00000000000E+00 0. -1.
</event>
<event>
 7    1  0.5487071E-013  0.5052886E+02  0.7816164E-02  0.1300439E+00
        -11   -1    0    0    0    0  0.00000000000E+00  0.00000000000E+00  0.45593999997E+02  0.45594000000E+02  0.51100000000E-03 0.  1.
         11   -1    0    0    0    0 -0.00000000000E+00 -0.00000000000E+00 -0.45593999997E+02  0.45594000000E+02  0.51100000000E-03 0. -1.
    9900012    2    1    2    0    0 -0.11086290404E+02  0.27562517624E+02 -0.27759092312E+02  0.50528863036E+02  0.30000009684E+02 0.  0.
        -12    1    1    2    0    0  0.11086290404E+02 -0.27562517624E+02  0.27759092312E+02  0.40659136964E+02  0.00000000000E+00 0.  1.
         11    1    3    3    0    0  0.41700801515E+01  0.10232956907E+02 -0.28726517919E+01  0.11417315977E+02  0.51100000000E-03 0. -1.
        -11    1    3    3    0    0 -0.27939632205E+01  0.17280818204E+02 -0.12266395817E+02  0.21375157891E+02  0.51100000000E-03 0.  1.
        -12    1    3    3    0    0 -0.12462407335E+02  0.48742513210E-01 -0.12620044703E+02  0.17736389168E+02  0.00000000000E+00 0.  1.
</event>
<event>
 7    1  0.5487071E-013  0.5052885E+02  0.7816164E-02  0.1300439E+00
        -11   -1    0    0    0    0  0.00000000000E+00  0.00000000000E+00  0.45593999997E+02  0.45594000000E+02  0.51100000000E-03 0.  1.
         11   -1    0    0    0    0 -0.00000000000E+00 -0.00000000000E+00 -0.45593999997E+02  0.45594000000E+02  0.51100000000E-03 0. -1.
    9900012    2    1    2    0    0  0.28495811514E+02  0.20533009787E+02 -0.20482946341E+02  0.50528845366E+02  0.29999955974E+02 0.  0.
        -12    1    1    2    0    0 -0.28495811514E+02 -0.20533009787E+02  0.20482946341E+02  0.40659154634E+02  0.00000000000E+00 0.  1.
         11    1    3    3    0    0  0.42113723310E+01  0.17790695863E+02 -0.11488316690E+02  0.21592265672E+02  0.51100000000E-03 0. -1.
        -11    1    3    3    0    0  0.27087431274E+01  0.17231473434E+00  0.30584953225E+01  0.40891778632E+01  0.51100000000E-03 0.  1.
        -12    1    3    3    0    0  0.21575696056E+02  0.25699991889E+01 -0.12053124974E+02  0.24847401831E+02  0.00000000000E+00 0.  1.
</event>
<event>
 7    1  0.5487071E-013  0.5052887E+02  0.7816164E-02  0.1300439E+00
        -11   -1    0    0    0    0  0.00000000000E+00  0.00000000000E+00  0.45593999997E+02  0.45594000000E+02  0.51100000000E-03 0.  1.
         11   -1    0    0    0    0 -0.00000000000E+00 -0.00000000000E+00 -0.45593999997E+02  0.45594000000E+02  0.51100000000E-03 0. -1.
    9900012    2    1    2    0    0  0.80129451555E+01  0.71637882186E+00 -0.39855290387E+02  0.50528872360E+02  0.30000038024E+02 0.  0.
        -12    1    1    2    0    0 -0.80129451555E+01 -0.71637882186E+00  0.39855290387E+02  0.40659127640E+02  0.00000000000E+00 0.  1.
         11    1    3    3    0    0  0.82772653315E+01 -0.21544638711E+01 -0.59572362719E+01  0.10423219282E+02  0.51100000000E-03 0. -1.
        -11    1    3    3    0    0  0.77682942338E+01  0.56435107609E+01 -0.69599563547E+01  0.11859030388E+02  0.51100000000E-03 0.  1.
         12    1    3    3    0    0 -0.80326144098E+01 -0.27726680679E+01 -0.26938097760E+02  0.28246622690E+02  0.00000000000E+00 0. -1.
</event>
<event>
 7    1  0.5487071E-013  0.5052886E+02  0.7816164E-02  0.1300439E+00
        -11   -1    0    0    0    0  0.00000000000E+00  0.00000000000E+00  0.45593999997E+02  0.45594000000E+02  0.51100000000E-03 0. -1.
         11   -1    0    0    0    0 -0.00000000000E+00 -0.00000000000E+00 -0.45593999997E+02  0.45594000000E+02  0.51100000000E-03 0.  1.
    9900012    2    1    2    0    0 -0.19700153887E+02 -0.30661496262E+02 -0.18026145046E+02  0.50528864232E+02  0.30000013320E+02 0.  0.
        -12    1    1    2    0    0  0.19700153887E+02  0.30661496262E+02  0.18026145046E+02  0.40659135768E+02  0.00000000000E+00 0.  1.
         11    1    3    3    0    0 -0.78193245876E+00 -0.36885552428E+00  0.77203671339E+00  0.11591003907E+01  0.51100000000E-03 0. -1.
        -11    1    3    3    0    0  0.37829400781E+01 -0.85630696681E+01 -0.15047623027E+02  0.17721956913E+02  0.51100000000E-03 0.  1.
         12    1    3    3    0    0 -0.22701161507E+02 -0.21729571069E+02 -0.37505587316E+01  0.31647806929E+02  0.00000000000E+00 0. -1.
</event>
<event>
 7    1  0.5487071E-013  0.5052886E+02  0.7816164E-02  0.1300439E+00
        -11   -1    0    0    0    0  0.00000000000E+00  0.00000000000E+00  0.45593999997E+02  0.45594000000E+02  0.51100000000E-03 0.  1.
         11   -1    0    0    0    0 -0.00000000000E+00 -0.00000000000E+00 -0.45593999997E+02  0.45594000000E+02  0.51100000000E-03 0. -1.
    9900012    2    1    2    0    0 -0.29953258673E+02 -0.20959854053E+02 -0.17794731063E+02  0.50528860306E+02  0.30000001386E+02 0.  0.
        -12    1    1    2    0    0  0.29953258673E+02  0.20959854053E+02  0.17794731063E+02  0.40659139694E+02  0.00000000000E+00 0.  1.
         11    1    3    3    0    0 -0.10469988069E+02 -0.25254362481E+01 -0.80464397778E+01  0.13444094308E+02  0.51100000000E-03 0. -1.
        -11    1    3    3    0    0 -0.54703675415E+01  0.46270231954E+01  0.23102404237E+01  0.75280459461E+01  0.51100000000E-03 0.  1.
         12    1    3    3    0    0 -0.14012903063E+02 -0.23061441000E+02 -0.12058531709E+02  0.29556720052E+02  0.00000000000E+00 0. -1.
</event>
<event>
 7    1  0.5487071E-013  0.5052886E+02  0.7816164E-02  0.1300439E+00
        -11   -1    0    0    0    0  0.00000000000E+00  0.00000000000E+00  0.45593999997E+02  0.45594000000E+02  0.51100000000E-03 0.  1.
         11   -1    0    0    0    0 -0.00000000000E+00 -0.00000000000E+00 -0.45593999997E+02  0.45594000000E+02  0.51100000000E-03 0. -1.
    9900012    2    1    2    0    0  0.72697079926E+01 -0.38927969211E+02  0.92157768183E+01  0.50528856089E+02  0.29999988568E+02 0.  0.
        -12    1    1    2    0    0 -0.72697079926E+01  0.38927969211E+02 -0.92157768183E+01  0.40659143911E+02  0.00000000000E+00 0.  1.
         11    1    3    3    0    0  0.41930441457E+01 -0.16394460751E+02 -0.34667480933E+01  0.17273630341E+02  0.51100000000E-03 0. -1.
        -11    1    3    3    0    0 -0.57425557246E+01 -0.88745126815E+01 -0.26604141800E+01  0.10900079149E+02  0.51100000000E-03 0.  1.
         12    1    3    3    0    0  0.88192195715E+01 -0.13658995778E+02  0.15342939092E+02  0.22355146600E+02  0.00000000000E+00 0. -1.
</event>
<event>
 7    1  0.5487071E-013  0.5052885E+02  0.7816164E-02  0.1300439E+00
        -11   -1    0    0    0    0  0.00000000000E+00  0.00000000000E+00  0.45593999997E+02  0.45594000000E+02  0.51100000000E-03 0. -1.
         11   -1    0    0    0    0 -0.00000000000E+00 -0.00000000000E+00 -0.45593999997E+02  0.45594000000E+02  0.51100000000E-03 0.  1.
    9900012    2    1    2    0    0  0.42716695946E+01  0.33322255419E+02  0.22902980496E+02  0.50528851178E+02  0.29999973642E+02 0.  0.
        -12    1    1    2    0    0 -0.42716695946E+01 -0.33322255419E+02 -0.22902980496E+02  0.40659148822E+02  0.00000000000E+00 0.  1.
         11    1    3    3    0    0  0.18457482203E-02  0.18783543613E+02  0.80501289671E+00  0.18800786156E+02  0.51100000000E-03 0. -1.
        -11    1    3    3    0    0 -0.60787222741E+01  0.88739672927E+01  0.83834200761E+01  0.13637444498E+02  0.51100000000E-03 0.  1.
        -12    1    3    3    0    0  0.10348546120E+02  0.56647445134E+01  0.13714547523E+02  0.18090620525E+02  0.00000000000E+00 0.  1.
</event>
<event>
 7    1  0.5487071E-013  0.5052886E+02  0.7816164E-02  0.1300439E+00
        -11   -1    0    0    0    0  0.00000000000E+00  0.00000000000E+00  0.45593999997E+02  0.45594000000E+02  0.51100000000E-03 0.  1.
         11   -1    0    0    0    0 -0.00000000000E+00 -0.00000000000E+00 -0.45593999997E+02  0.45594000000E+02  0.51100000000E-03 0. -1.
    9900012    2    1    2    0    0  0.22389614933E+02 -0.53148690961E+01 -0.33520488822E+02  0.50528857594E+02  0.29999993142E+02 0.  0.
        -12    1    1    2    0    0 -0.22389614933E+02  0.53148690961E+01  0.33520488822E+02  0.40659142406E+02  0.00000000000E+00 0.  1.
         11    1    3    3    0    0 -0.15694004147E+01  0.36038836308E+00 -0.17625621430E+02  0.17699023377E+02  0.51100000000E-03 0. -1.
        -11    1    3    3    0    0  0.74329243584E+01  0.17233618924E+01 -0.12138834063E+02  0.14337699725E+02  0.51100000000E-03 0.  1.
        -12    1    3    3    0    0  0.16526090989E+02 -0.73986193516E+01 -0.37560333283E+01  0.18492134492E+02  0.00000000000E+00 0.  1.
</event>
<event>
 7    1  0.5487071E-013  0.5052885E+02  0.7816164E-02  0.1300439E+00
        -11   -1    0    0    0    0  0.00000000000E+00  0.00000000000E+00  0.45593999997E+02  0.45594000000E+02  0.51100000000E-03 0.  1.
         11   -1    0    0    0    0 -0.00000000000E+00 -0.00000000000E+00 -0.45593999997E+02  0.45594000000E+02  0.51100000000E-03 0. -1.
    9900012    2    1    2    0    0  0.30423822735E+02 -0.26937542672E+02 -0.13879294113E+01  0.50528849209E+02  0.29999967656E+02 0.  0.
        -12    1    1    2    0    0 -0.30423822735E+02  0.26937542672E+02  0.13879294113E+01  0.40659150791E+02  0.00000000000E+00 0.  1.
         11    1    3    3    0    0  0.30476398409E+02 -0.11632318294E+02 -0.57530881268E+01  0.33124306968E+02  0.51100000000E-03 0. -1.
        -11    1    3    3    0    0  0.47809000132E+00 -0.50195635302E+00 -0.13579158418E+01  0.15246199278E+01  0.51100000000E-03 0.  1.
        -12    1    3    3    0    0 -0.53066567562E+00 -0.14803268025E+02  0.57230745574E+01  0.15879922313E+02  0.00000000000E+00 0.  1.
</event>
<event>
 7    1  0.5487071E-013  0.5052886E+02  0.7816164E-02  0.1300439E+00
        -11   -1    0    0    0    0  0.00000000000E+00  0.00000000000E+00  0.45593999997E+02  0.45594000000E+02  0.51100000000E-03 0.  1.
         11   -1    0    0    0    0 -0.00000000000E+00 -0.00000000000E+00 -0.45593999997E+02  0.45594000000E+02  0.51100000000E-03 0. -1.
    9900012    2    1    2    0    0  0.58466278739E+01 -0.36076810742E+02 -0.17817019808E+02  0.50528861720E+02  0.30000005685E+02 0.  0.
        -12    1    1    2    0    0 -0.58466278739E+01  0.36076810742E+02  0.17817019808E+02  0.40659138280E+02  0.00000000000E+00 0.  1.
         11    1    3    3    0    0  0.11193412826E+01 -0.22021981165E+02 -0.10474092986E+02  0.24411620255E+02  0.51100000000E-03 0. -1.
        -11    1    3    3    0    0 -0.98753197048E+00 -0.27540212374E+01 -0.12206160852E+02  0.12551900867E+02  0.51100000000E-03 0.  1.
        -12    1    3    3    0    0  0.57148185617E+01 -0.11300808340E+02  0.48632340297E+01  0.13565340599E+02  0.00000000000E+00 0.  1.
</event>
<event>
 7    1  0.5487071E-013  0.5052885E+02  0.7816164E-02  0.1300439E+00
        -11   -1    0    0    0    0  0.00000000000E+00  0.00000000000E+00  0.45593999997E+02  0.45594000000E+02  0.51100000000E-03 0.  1.
         11   -1    0    0    0    0 -0.00000000000E+00 -0.00000000000E+00 -0.45593999997E+02  0.45594000000E+02  0.51100000000E-03 0. -1.
    9900012    2    1    2    0    0  0.14496143047E+02  0.80915813064E+01 -0.37115419702E+02  0.50528853047E+02  0.29999979323E+02 0.  0.
        -12    1    1    2    0    0 -0.14496143047E+02 -0.80915813064E+01  0.37115419702E+02  0.40659146953E+02  0.00000000000E+00 0.  1.
         11    1    3    3    0    0  0.14501396253E+01  0.14357642789E+02 -0.23406729441E+02  0.27497632530E+02  0.51100000000E-03 0. -1.
        -11    1    3    3    0    0  0.76943096012E+00  0.30065673792E+01 -0.19240473084E+01  0.36514969141E+01  0.51100000000E-03 0.  1.
        -12    1    3    3    0    0  0.12276572461E+02 -0.92726288617E+01 -0.11784642953E+02  0.19379723603E+02  0.00000000000E+00 0.  1.
</event>
<event>
 7    1  0.5487071E-013  0.5052883E+02  0.7816164E-02  0.1300439E+00
        -11   -1    0    0    0    0  0.00000000000E+00  0.00000000000E+00  0.45593999997E+02  0.45594000000E+02  0.51100000000E-03 0. -1.
         11   -1    0    0    0    0 -0.00000000000E+00 -0.00000000000E+00 -0.45593999997E+02  0.45594000000E+02  0.51100000000E-03 0.  1.
    9900012    2    1    2    0    0  0.31278352879E+02 -0.25853817370E+02 -0.25324208014E+01  0.50528826539E+02  0.29999898747E+02 0.  0.
        -12    1    1    2    0    0 -0.31278352879E+02  0.25853817370E+02  0.25324208014E+01  0.40659173461E+02  0.00000000000E+00 0.  1.
         11    1    3    3    0    0  0.78890369658E+01 -0.11119739345E+02 -0.33769987924E+01  0.14045982645E+02  0.51100000000E-03 0. -1.
        -11    1    3    3    0    0  0.26317753937E+01  0.13446288270E+01  0.86092347071E+01  0.91023728175E+01  0.51100000000E-03 0.  1.
         12    1    3    3    0    0  0.20757540520E+02 -0.16078706852E+02 -0.77646567162E+01  0.27380471076E+02  0.00000000000E+00 0. -1.
</event>
<event>
 7    1  0.5487071E-013  0.5052879E+02  0.7816164E-02  0.1300439E+00
        -11   -1    0    0    0    0  0.00000000000E+00  0.00000000000E+00  0.45593999997E+02  0.45594000000E+02  0.51100000000E-03 0.  1.
         11   -1    0    0    0    0 -0.00000000000E+00 -0.00000000000E+00 -0.45593999997E+02  0.45594000000E+02  0.51100000000E-03 0. -1.
    9900012    2    1    2    0    0  0.35028019030E+02 -0.20557759802E+02 -0.18941276875E+01  0.50528790405E+02  0.29999788914E+02 0.  0.
        -12    1    1    2    0    0 -0.35028019030E+02  0.20557759802E+02  0.18941276875E+01  0.40659209595E+02  0.00000000000E+00 0.  1.
         11    1    3    3    0    0 -0.16821753394E+01  0.53141642075E+00 -0.15994794010E+01  0.23812710682E+01  0.51100000000E-03 0. -1.
        -11    1    3    3    0    0  0.11657948282E+02  0.22037687171E+01 -0.62738050436E+01  0.13421064961E+02  0.51100000000E-03 0.  1.
         12    1    3    3    0    0  0.25052246087E+02 -0.23292944939E+02  0.59791567570E+01  0.34726454375E+02  0.00000000000E+00 0. -1.
</event>
<event>
 7    1  0.5487071E-013  0.5052886E+02  0.7816164E-02  0.1300439E+00
        -11   -1    0    0    0    0  0.00000000000E+00  0.00000000000E+00  0.45593999997E+02  0.45594000000E+02  0.51100000000E-03 0. -1.
         11   -1    0    0    0    0 -0.00000000000E+00 -0.00000000000E+00 -0.45593999997E+02  0.45594000000E+02  0.51100000000E-03 0.  1.
    9900012    2    1    2    0    0 -0.11649315678E+02  0.21935324246E+02  0.32191622998E+02  0.50528860846E+02  0.30000003026E+02 0.  0.
        -12    1    1    2    0    0  0.11649315678E+02 -0.21935324246E+02 -0.32191622998E+02  0.40659139154E+02  0.00000000000E+00 0.  1.
         11    1    3    3    0    0 -0.14567518191E+02  0.74740545867E+01  0.15789192482E+02  0.22745827699E+02  0.51100000000E-03 0. -1.
        -11    1    3    3    0    0 -0.21823430647E+01 -0.32839683571E+01  0.33162511515E+01  0.51521443480E+01  0.51100000000E-03 0.  1.
         12    1    3    3    0    0  0.51005455783E+01  0.17745238016E+02  0.13086179364E+02  0.22630888798E+02  0.00000000000E+00 0. -1.
</event>
<event>
 7    1  0.5487071E-013  0.5052884E+02  0.7816164E-02  0.1300439E+00
        -11   -1    0    0    0    0  0.00000000000E+00  0.00000000000E+00  0.45593999997E+02  0.45594000000E+02  0.51100000000E-03 0. -1.
         11   -1    0    0    0    0 -0.00000000000E+00 -0.00000000000E+00 -0.45593999997E+02  0.45594000000E+02  0.51100000000E-03 0.  1.
    9900012    2    1    2    0    0 -0.36021616201E+02 -0.11076783002E+02  0.15261567696E+02  0.50528838622E+02  0.29999935475E+02 0.  0.
        -12    1    1    2    0    0  0.36021616201E+02  0.11076783002E+02 -0.15261567696E+02  0.40659161378E+02  0.00000000000E+00 0.  1.
         11    1    3    3    0    0 -0.16012644745E+02 -0.15685086060E+01 -0.55687406014E+01  0.17025741779E+02  0.51100000000E-03 0. -1.
        -11    1    3    3    0    0 -0.67850702730E+01 -0.91349647471E+01  0.39254477000E+01  0.12037188187E+02  0.51100000000E-03 0.  1.
         12    1    3    3    0    0 -0.13223901184E+02 -0.37330964875E+00  0.16904860598E+02  0.21465908656E+02  0.00000000000E+00 0. -1.
</event>
<event>
 7    1  0.5487071E-013  0.5052886E+02  0.7816164E-02  0.1300439E+00
        -11   -1    0    0    0    0  0.00000000000E+00  0.00000000000E+00  0.45593999997E+02  0.45594000000E+02  0.51100000000E-03 0. -1.
         11   -1    0    0    0    0 -0.00000000000E+00 -0.00000000000E+00 -0.45593999997E+02  0.45594000000E+02  0.51100000000E-03 0.  1.
    9900012    2    1    2    0    0 -0.14536758955E+02 -0.29904084322E+02 -0.23400730362E+02  0.50528858328E+02  0.29999995374E+02 0.  0.
        -12    1    1    2    0    0  0.14536758955E+02  0.29904084322E+02  0.23400730362E+02  0.40659141672E+02  0.00000000000E+00 0.  1.
         11    1    3    3    0    0  0.36779711241E+00 -0.97852304807E+01 -0.85969290706E+01  0.13030471979E+02  0.51100000000E-03 0.  1.
        -11    1    3    3    0    0  0.47477074056E+01 -0.11889515500E+02 -0.81559492219E+01  0.15179618322E+02  0.51100000000E-03 0. -1.
        -12    1    3    3    0    0 -0.19652263473E+02 -0.82293383414E+01 -0.66478520691E+01  0.22318768028E+02  0.00000000000E+00 0.  1.
</event>
<event>
 7    1  0.5487071E-013  0.5052887E+02  0.7816164E-02  0.1300439E+00
        -11   -1    0    0    0    0  0.00000000000E+00  0.00000000000E+00  0.45593999997E+02  0.45594000000E+02  0.51100000000E-03 0. -1.
         11   -1    0    0    0    0 -0.00000000000E+00 -0.00000000000E+00 -0.45593999997E+02  0.45594000000E+02  0.51100000000E-03 0.  1.
    9900012    2    1    2    0    0  0.35078268425E+01 -0.27246970031E+02  0.29974367969E+02  0.50528868674E+02  0.30000026822E+02 0.  0.
        -12    1    1    2    0    0 -0.35078268425E+01  0.27246970031E+02 -0.29974367969E+02  0.40659131326E+02  0.00000000000E+00 0.  1.
         11    1    3    3    0    0  0.20452706050E+00 -0.87763527974E+01  0.20147915467E+02  0.21977367852E+02  0.51100000000E-03 0. -1.
        -11    1    3    3    0    0  0.76255931302E+01 -0.81081059595E+01  0.12774204809E+02  0.16943180386E+02  0.51100000000E-03 0.  1.
         12    1    3    3    0    0 -0.43222933482E+01 -0.10362511274E+02 -0.29477523070E+01  0.11608320436E+02  0.00000000000E+00 0. -1.
</event>
<event>
 7    1  0.5487071E-013  0.5052886E+02  0.7816164E-02  0.1300439E+00
        -11   -1    0    0    0    0  0.00000000000E+00  0.00000000000E+00  0.45593999997E+02  0.45594000000E+02  0.51100000000E-03 0.  1.
         11   -1    0    0    0    0 -0.00000000000E+00 -0.00000000000E+00 -0.45593999997E+02  0.45594000000E+02  0.51100000000E-03 0. -1.
    9900012    2    1    2    0    0 -0.25937091839E+02 -0.16864013992E+02 -0.26382532470E+02  0.50528859324E+02  0.29999998401E+02 0.  0.
        -12    1    1    2    0    0  0.25937091839E+02  0.16864013992E+02  0.26382532470E+02  0.40659140676E+02  0.00000000000E+00 0.  1.
         11    1    3    3    0    0 -0.45244401176E+01  0.20519344600E+01 -0.49527015857E+01  0.70150015442E+01  0.51100000000E-03 0. -1.
        -11    1    3    3    0    0 -0.23408362612E+02 -0.12268432331E+02 -0.24394973106E+02  0.35966381318E+02  0.51100000000E-03 0.  1.
        -12    1    3    3    0    0  0.19957108908E+01 -0.66475161212E+01  0.29651422215E+01  0.75474764614E+01  0.00000000000E+00 0.  1.
</event>
<event>
 7    1  0.5487071E-013  0.5052893E+02  0.7816164E-02  0.1300439E+00
        -11   -1    0    0    0    0  0.00000000000E+00  0.00000000000E+00  0.45593999997E+02  0.45594000000E+02  0.51100000000E-03 0. -1.
         11   -1    0    0    0    0 -0.00000000000E+00 -0.00000000000E+00 -0.45593999997E+02  0.45594000000E+02  0.51100000000E-03 0.  1.
    9900012    2    1    2    0    0 -0.32712435410E+02  0.23758814386E+02 -0.43098767138E+01  0.50528933007E+02  0.30000222366E+02 0.  0.
        -12    1    1    2    0    0  0.32712435410E+02 -0.23758814386E+02  0.43098767138E+01  0.40659066993E+02  0.00000000000E+00 0.  1.
         11    1    3    3    0    0 -0.96989199582E+01  0.13181908109E+01  0.70296262238E+01  0.12050822398E+02  0.51100000000E-03 0. -1.
        -11    1    3    3    0    0 -0.36507019896E+01 -0.31827722014E+00 -0.75050013526E+01  0.83518842766E+01  0.51100000000E-03 0.  1.
        -12    1    3    3    0    0 -0.19362813462E+02  0.22758900796E+02 -0.38345015850E+01  0.30126226332E+02  0.00000000000E+00 0.  1.
</event>
<event>
 7    1  0.5487071E-013  0.5052887E+02  0.7816164E-02  0.1300439E+00
        -11   -1    0    0    0    0  0.00000000000E+00  0.00000000000E+00  0.45593999997E+02  0.45594000000E+02  0.51100000000E-03 0.  1.
         11   -1    0    0    0    0 -0.00000000000E+00 -0.00000000000E+00 -0.45593999997E+02  0.45594000000E+02  0.51100000000E-03 0. -1.
    9900012    2    1    2    0    0 -0.26916116397E+02 -0.64041201871E+00 -0.30467649424E+02  0.50528866821E+02  0.30000021188E+02 0.  0.
        -12    1    1    2    0    0  0.26916116397E+02  0.64041201871E+00  0.30467649424E+02  0.40659133179E+02  0.00000000000E+00 0.  1.
         11    1    3    3    0    0  0.11446519402E+01  0.66811624907E+00 -0.52756093672E+01  0.54395461063E+01  0.51100000000E-03 0. -1.
        -11    1    3    3    0    0 -0.10560627536E+01  0.47623276942E+01 -0.14700928823E+02  0.15489103981E+02  0.51100000000E-03 0.  1.
         12    1    3    3    0    0 -0.27004705583E+02 -0.60708559619E+01 -0.10491111234E+02  0.29600216734E+02  0.00000000000E+00 0. -1.
</event>
<event>
 7    1  0.5487071E-013  0.5052887E+02  0.7816164E-02  0.1300439E+00
        -11   -1    0    0    0    0  0.00000000000E+00  0.00000000000E+00  0.45593999997E+02  0.45594000000E+02  0.51100000000E-03 0.  1.
         11   -1    0    0    0    0 -0.00000000000E+00 -0.00000000000E+00 -0.45593999997E+02  0.45594000000E+02  0.51100000000E-03 0. -1.
    9900012    2    1    2    0    0  0.15063754667E+01  0.13686088034E+02 -0.38256847966E+02  0.50528873238E+02  0.30000040694E+02 0.  0.
        -12    1    1    2    0    0 -0.15063754667E+01 -0.13686088034E+02  0.38256847966E+02  0.40659126762E+02  0.00000000000E+00 0.  1.
         11    1    3    3    0    0 -0.44126532862E+00 -0.26090910719E+01 -0.82090161258E+01  0.86249647725E+01  0.51100000000E-03 0. -1.
        -11    1    3    3    0    0  0.10551525168E+02  0.16598913256E+02 -0.15679036630E+02  0.25153345593E+02  0.51100000000E-03 0.  1.
         12    1    3    3    0    0 -0.86038843726E+01 -0.30373414918E+00 -0.14368795211E+02  0.16750562872E+02  0.00000000000E+00 0. -1.
</event>
<event>
 7    1  0.5487071E-013  0.5052886E+02  0.7816164E-02  0.1300439E+00
        -11   -1    0    0    0    0  0.00000000000E+00  0.00000000000E+00  0.45593999997E+02  0.45594000000E+02  0.51100000000E-03 0.  1.
         11   -1    0    0    0    0 -0.00000000000E+00 -0.00000000000E+00 -0.45593999997E+02  0.45594000000E+02  0.51100000000E-03 0. -1.
    9900012    2    1    2    0    0  0.35435393630E+02 -0.11932596662E+02 -0.15972222313E+02  0.50528857480E+02  0.29999992796E+02 0.  0.
        -12    1    1    2    0    0 -0.35435393630E+02  0.11932596662E+02  0.15972222313E+02  0.40659142520E+02  0.00000000000E+00 0.  1.
         11    1    3    3    0    0  0.71641246473E+01 -0.60717947660E+01 -0.23463486369E+01  0.96797069083E+01  0.51100000000E-03 0. -1.
        -11    1    3    3    0    0  0.72893944892E+01 -0.13466683360E+02 -0.98678655727E+01  0.18217069027E+02  0.51100000000E-03 0.  1.
        -12    1    3    3    0    0  0.20981874494E+02  0.76058814639E+01 -0.37580081036E+01  0.22632081544E+02  0.00000000000E+00 0.  1.
</event>
<event>
 7    1  0.5487071E-013  0.5052886E+02  0.7816164E-02  0.1300439E+00
        -11   -1    0    0    0    0  0.00000000000E+00  0.00000000000E+00  0.45593999997E+02  0.45594000000E+02  0.51100000000E-03 0.  1.
         11   -1    0    0    0    0 -0.00000000000E+00 -0.00000000000E+00 -0.45593999997E+02  0.45594000000E+02  0.51100000000E-03 0. -1.
    9900012    2    1    2    0    0 -0.20342534164E+02 -0.13398396071E+02 -0.32555024411E+02  0.50528864153E+02  0.30000013078E+02 0.  0.
        -12    1    1    2    0    0  0.20342534164E+02  0.13398396071E+02  0.32555024411E+02  0.40659135847E+02  0.00000000000E+00 0.  1.
         11    1    3    3    0    0 -0.10538292624E+02 -0.14075150504E+02 -0.25003343850E+02  0.30566855859E+02  0.51100000000E-03 0. -1.
        -11    1    3    3    0    0 -0.58819452492E+00 -0.61276787940E+01 -0.56378153769E+01  0.83474177256E+01  0.51100000000E-03 0.  1.
        -12    1    3    3    0    0 -0.92160470147E+01  0.68044332276E+01 -0.19138651839E+01  0.11614590568E+02  0.00000000000E+00 0.  1.
</event>
<event>
 7    1  0.5487071E-013  0.5052886E+02  0.7816164E-02  0.1300439E+00
        -11   -1    0    0    0    0  0.00000000000E+00  0.00000000000E+00  0.45593999997E+02  0.45594000000E+02  0.51100000000E-03 0. -1.
         11   -1    0    0    0    0 -0.00000000000E+00 -0.00000000000E+00 -0.45593999997E+02  0.45594000000E+02  0.51100000000E-03 0.  1.
    9900012    2    1    2    0    0  0.11916310158E+02 -0.38055128126E+02 -0.79356233622E+01  0.50528863971E+02  0.30000012527E+02 0.  0.
        -12    1    1    2    0    0 -0.11916310158E+02  0.38055128126E+02  0.79356233622E+01  0.40659136029E+02  0.00000000000E+00 0.  1.
         11    1    3    3    0    0  0.54786507152E+01 -0.28206113768E+02 -0.46631664656E+01  0.29109201110E+02  0.51100000000E-03 0. -1.
        -11    1    3    3    0    0  0.89480405936E+01 -0.13584599815E+02 -0.80448388015E+00  0.16286680975E+02  0.51100000000E-03 0.  1.
        -12    1    3    3    0    0 -0.25103811510E+01  0.37355854570E+01 -0.24679730164E+01  0.51329818857E+01  0.00000000000E+00 0.  1.
</event>
<event>
 7    1  0.5487071E-013  0.5052886E+02  0.7816164E-02  0.1300439E+00
        -11   -1    0    0    0    0  0.00000000000E+00  0.00000000000E+00  0.45593999997E+02  0.45594000000E+02  0.51100000000E-03 0.  1.
         11   -1    0    0    0    0 -0.00000000000E+00 -0.00000000000E+00 -0.45593999997E+02  0.45594000000E+02  0.51100000000E-03 0. -1.
    9900012    2    1    2    0    0 -0.13324219701E+02  0.37768677250E+02 -0.70112878331E+01  0.50528856269E+02  0.29999989116E+02 0.  0.
        -12    1    1    2    0    0  0.13324219701E+02 -0.37768677250E+02  0.70112878331E+01  0.40659143731E+02  0.00000000000E+00 0.  1.
         11    1    3    3    0    0  0.78885785749E+00  0.73293739895E+01 -0.46763103595E+01  0.87298280989E+01  0.51100000000E-03 0. -1.
        -11    1    3    3    0    0 -0.46156421182E+01  0.59662759063E+01 -0.11705453835E+02  0.13925453318E+02  0.51100000000E-03 0.  1.
         12    1    3    3    0    0 -0.94974354401E+01  0.24473027354E+02  0.93704763616E+01  0.27873574852E+02  0.00000000000E+00 0. -1.
</event>
<event>
 7    1  0.5487071E-013  0.5052886E+02  0.7816164E-02  0.1300439E+00
        -11   -1    0    0    0    0  0.00000000000E+00  0.00000000000E+00  0.45593999997E+02  0.45594000000E+02  0.51100000000E-03 0.  1.
         11   -1    0    0    0    0 -0.00000000000E+00 -0.00000000000E+00 -0.45593999997E+02  0.45594000000E+02  0.51100000000E-03 0. -1.
    9900012    2    1    2    0    0 -0.11650235793E+02 -0.20957334885E+02 -0.32836383899E+02  0.50528856046E+02  0.29999988438E+02 0.  0.
        -12    1    1    2    0    0  0.11650235793E+02  0.20957334885E+02  0.32836383899E+02  0.40659143954E+02  0.00000000000E+00 0.  1.
         11    1    3    3    0    0 -0.56279201544E+01 -0.65900914668E+01 -0.11407757125E+02  0.14326189782E+02  0.51100000000E-03 0. -1.
        -11    1    3    3    0    0 -0.91787017123E+01 -0.20399941115E+02 -0.16285343828E+02  0.27669813633E+02  0.51100000000E-03 0.  1.
        -12    1    3    3    0    0  0.31563860739E+01  0.60326976974E+01 -0.51432829464E+01  0.85328526310E+01  0.00000000000E+00 0.  1.
</event>
<event>
 7    1  0.5487071E-013  0.5052886E+02  0.7816164E-02  0.1300439E+00
        -11   -1    0    0    0    0  0.00000000000E+00  0.00000000000E+00  0.45593999997E+02  0.45594000000E+02  0.51100000000E-03 0. -1.
         11   -1    0    0    0    0 -0.00000000000E+00 -0.00000000000E+00 -0.45593999997E+02  0.45594000000E+02  0.51100000000E-03 0.  1.
    9900012    2    1    2    0    0  0.15925754465E+02  0.20992601088E+02  0.30965243485E+02  0.50528864989E+02  0.30000015621E+02 0.  0.
        -12    1    1    2    0    0 -0.15925754465E+02 -0.20992601088E+02 -0.30965243485E+02  0.40659135011E+02  0.00000000000E+00 0.  1.
         11    1    3    3    0    0 -0.39499351652E+01  0.14454817174E+01 -0.73095613131E+00  0.42691570985E+01  0.51100000000E-03 0. -1.
        -11    1    3    3    0    0  0.58191820313E+00 -0.20105144744E+01  0.96824170242E+01  0.99060585975E+01  0.51100000000E-03 0.  1.
         12    1    3    3    0    0  0.19293771427E+02  0.21557633845E+02  0.22013782592E+02  0.36353649293E+02  0.00000000000E+00 0. -1.
</event>
<event>
 7    1  0.5760469E-013  0.5052885E+02  0.7816164E-02  0.1300439E+00
        -11   -1    0    0    0    0  0.00000000000E+00  0.00000000000E+00  0.45593999997E+02  0.45594000000E+02  0.51100000000E-03 0. -1.
         11   -1    0    0    0    0 -0.00000000000E+00 -0.00000000000E+00 -0.45593999997E+02  0.45594000000E+02  0.51100000000E-03 0.  1.
    9900012    2    1    2    0    0 -0.66712216430E+01  0.37261993058E+02  0.14839302842E+02  0.50528853013E+02  0.29999979217E+02 0.  0.
        -12    1    1    2    0    0  0.66712216430E+01 -0.37261993058E+02 -0.14839302842E+02  0.40659146987E+02  0.00000000000E+00 0.  1.
         11    1    3    3    0    0  0.28543239800E+01  0.23878622540E+01  0.37591684426E+01  0.52896501933E+01  0.51100000000E-03 0.  1.
        -11    1    3    3    0    0  0.18585609587E+01  0.38897422865E+00 -0.51298678617E+01  0.54700177630E+01  0.51100000000E-03 0. -1.
         12    1    3    3    0    0 -0.11384106582E+02  0.34485156576E+02  0.16210002262E+02  0.39769185056E+02  0.00000000000E+00 0. -1.
</event>
<event>
 7    1  0.5487071E-013  0.5052886E+02  0.7816164E-02  0.1300439E+00
        -11   -1    0    0    0    0  0.00000000000E+00  0.00000000000E+00  0.45593999997E+02  0.45594000000E+02  0.51100000000E-03 0. -1.
         11   -1    0    0    0    0 -0.00000000000E+00 -0.00000000000E+00 -0.45593999997E+02  0.45594000000E+02  0.51100000000E-03 0.  1.
    9900012    2    1    2    0    0 -0.13576099491E+02  0.35871577440E+02  0.13493895802E+02  0.50528858723E+02  0.29999996575E+02 0.  0.
        -12    1    1    2    0    0  0.13576099491E+02 -0.35871577440E+02 -0.13493895802E+02  0.40659141277E+02  0.00000000000E+00 0.  1.
         11    1    3    3    0    0 -0.74283303353E+01  0.13410084546E+02  0.15762774036E+01  0.15410876348E+02  0.51100000000E-03 0. -1.
        -11    1    3    3    0    0 -0.12232799008E+02  0.22181456424E+02  0.48562640228E+01  0.25792279488E+02  0.51100000000E-03 0.  1.
        -12    1    3    3    0    0  0.60850298522E+01  0.28003647034E+00  0.70613543758E+01  0.93257028876E+01  0.00000000000E+00 0.  1.
</event>
<event>
 7    1  0.5487071E-013  0.5052886E+02  0.7816164E-02  0.1300439E+00
        -11   -1    0    0    0    0  0.00000000000E+00  0.00000000000E+00  0.45593999997E+02  0.45594000000E+02  0.51100000000E-03 0.  1.
         11   -1    0    0    0    0 -0.00000000000E+00 -0.00000000000E+00 -0.45593999997E+02  0.45594000000E+02  0.51100000000E-03 0. -1.
    9900012    2    1    2    0    0 -0.65795136564E+01  0.36910787943E+02 -0.15731156949E+02  0.50528861231E+02  0.30000004196E+02 0.  0.
        -12    1    1    2    0    0  0.65795136564E+01 -0.36910787943E+02  0.15731156949E+02  0.40659138769E+02  0.00000000000E+00 0.  1.
         11    1    3    3    0    0 -0.39555518638E+01  0.24825433352E+02  0.30904448159E+00  0.25140486081E+02  0.51100000000E-03 0. -1.
        -11    1    3    3    0    0  0.23662359795E+01  0.27816496256E+01  0.22359060223E+01  0.42820466312E+01  0.51100000000E-03 0.  1.
         12    1    3    3    0    0 -0.49901977721E+01  0.93037049657E+01 -0.18276107453E+02  0.21106328518E+02  0.00000000000E+00 0. -1.
</event>
<event>
 7    1  0.5487071E-013  0.5052888E+02  0.7816164E-02  0.1300439E+00
        -11   -1    0    0    0    0  0.00000000000E+00  0.00000000000E+00  0.45593999997E+02  0.45594000000E+02  0.51100000000E-03 0. -1.
         11   -1    0    0    0    0 -0.00000000000E+00 -0.00000000000E+00 -0.45593999997E+02  0.45594000000E+02  0.51100000000E-03 0.  1.
    9900012    2    1    2    0    0 -0.30962463243E+02  0.11031244365E+02  0.23933266301E+02  0.50528883947E+02  0.30000073245E+02 0.  0.
        -12    1    1    2    0    0  0.30962463243E+02 -0.11031244365E+02 -0.23933266301E+02  0.40659116053E+02  0.00000000000E+00 0.  1.
         11    1    3    3    0    0 -0.14300372947E+01 -0.44686581063E+01  0.23050436086E+01  0.52275365358E+01  0.51100000000E-03 0. -1.
        -11    1    3    3    0    0 -0.72845557688E+01 -0.52747421529E+01  0.24401272865E+01  0.93188990210E+01  0.51100000000E-03 0.  1.
         12    1    3    3    0    0 -0.22247870180E+02  0.20774644625E+02  0.19188095406E+02  0.35982448390E+02  0.00000000000E+00 0. -1.
</event>
<event>
 7    1  0.5487071E-013  0.5052885E+02  0.7816164E-02  0.1300439E+00
        -11   -1    0    0    0    0  0.00000000000E+00  0.00000000000E+00  0.45593999997E+02  0.45594000000E+02  0.51100000000E-03 0. -1.
         11   -1    0    0    0    0 -0.00000000000E+00 -0.00000000000E+00 -0.45593999997E+02  0.45594000000E+02  0.51100000000E-03 0.  1.
    9900012    2    1    2    0    0 -0.46410907346E+01  0.40364803121E+02 -0.15195904806E+01  0.50528853312E+02  0.29999980127E+02 0.  0.
        -12    1    1    2    0    0  0.46410907346E+01 -0.40364803121E+02  0.15195904806E+01  0.40659146688E+02  0.00000000000E+00 0.  1.
         11    1    3    3    0    0  0.12806217104E+01  0.11027137389E+02  0.74113674232E+01  0.13347888159E+02  0.51100000000E-03 0. -1.
        -11    1    3    3    0    0  0.15756338604E+01  0.88031564597E+01 -0.12148322805E+02  0.15085089756E+02  0.51100000000E-03 0.  1.
         12    1    3    3    0    0 -0.74973463053E+01  0.20534509272E+02  0.32173649007E+01  0.22095875397E+02  0.00000000000E+00 0. -1.
</event>
<event>
 7    1  0.5487071E-013  0.5052886E+02  0.7816164E-02  0.1300439E+00
        -11   -1    0    0    0    0  0.00000000000E+00  0.00000000000E+00  0.45593999997E+02  0.45594000000E+02  0.51100000000E-03 0.  1.
         11   -1    0    0    0    0 -0.00000000000E+00 -0.00000000000E+00 -0.45593999997E+02  0.45594000000E+02  0.51100000000E-03 0. -1.
    9900012    2    1    2    0    0 -0.20787386337E+02 -0.23199088845E+02 -0.26131449272E+02  0.50528858407E+02  0.29999995615E+02 0.  0.
        -12    1    1    2    0    0  0.20787386337E+02  0.23199088845E+02  0.26131449272E+02  0.40659141593E+02  0.00000000000E+00 0.  1.
         11    1    3    3    0    0 -0.22819148681E+02 -0.15558906009E+02 -0.56646839174E+01  0.28193647279E+02  0.51100000000E-03 0. -1.
        -11    1    3    3    0    0  0.59765936555E+00  0.87109586215E-01 -0.26695657634E+00  0.66034148137E+00  0.51100000000E-03 0.  1.
        -12    1    3    3    0    0  0.14341029786E+01 -0.77272924226E+01 -0.20199808778E+02  0.21674869647E+02  0.00000000000E+00 0.  1.
</event>
<event>
 7    1  0.5487071E-013  0.5052886E+02  0.7816164E-02  0.1300439E+00
        -11   -1    0    0    0    0  0.00000000000E+00  0.00000000000E+00  0.45593999997E+02  0.45594000000E+02  0.51100000000E-03 0.  1.
         11   -1    0    0    0    0 -0.00000000000E+00 -0.00000000000E+00 -0.45593999997E+02  0.45594000000E+02  0.51100000000E-03 0. -1.
    9900012    2    1    2    0    0  0.32514771254E+02  0.11129979182E+02 -0.21727378878E+02  0.50528858602E+02  0.29999996206E+02 0.  0.
        -12    1    1    2    0    0 -0.32514771254E+02 -0.11129979182E+02  0.21727378878E+02  0.40659141398E+02  0.00000000000E+00 0.  1.
         11    1    3    3    0    0  0.13004685850E+02  0.44332616878E+01 -0.93789758639E+01  0.16635529801E+02  0.51100000000E-03 0. -1.
        -11    1    3    3    0    0  0.50578525710E+01  0.34358330883E+01  0.71479816369E+01  0.94064054443E+01  0.51100000000E-03 0.  1.
         12    1    3    3    0    0  0.14452232834E+02  0.32608844058E+01 -0.19496384651E+02  0.24486923356E+02  0.00000000000E+00 0. -1.
</event>
<event>
 7    1  0.5487071E-013  0.5052885E+02  0.7816164E-02  0.1300439E+00
        -11   -1    0    0    0    0  0.00000000000E+00  0.00000000000E+00  0.45593999997E+02  0.45594000000E+02  0.51100000000E-03 0. -1.
         11   -1    0    0    0    0 -0.00000000000E+00 -0.00000000000E+00 -0.45593999997E+02  0.45594000000E+02  0.51100000000E-03 0.  1.
    9900012    2    1    2    0    0 -0.31641296722E+02 -0.24143900224E+02  0.83106302823E+01  0.50528854018E+02  0.29999982273E+02 0.  0.
        -12    1    1    2    0    0  0.31641296722E+02  0.24143900224E+02 -0.83106302823E+01  0.40659145982E+02  0.00000000000E+00 0.  1.
         11    1    3    3    0    0 -0.14244153770E+01  0.43086365191E+01  0.89158424083E-01  0.45388607938E+01  0.51100000000E-03 0.  1.
        -11    1    3    3    0    0 -0.15296404086E+02 -0.12282971958E+02  0.12922936426E+02  0.23491565810E+02  0.51100000000E-03 0. -1.
         12    1    3    3    0    0 -0.14920477259E+02 -0.16169564786E+02 -0.47014645682E+01  0.22498427414E+02  0.00000000000E+00 0. -1.
</event>
<event>
 7    1  0.5487071E-013  0.5052886E+02  0.7816164E-02  0.1300439E+00
        -11   -1    0    0    0    0  0.00000000000E+00  0.00000000000E+00  0.45593999997E+02  0.45594000000E+02  0.51100000000E-03 0.  1.
         11   -1    0    0    0    0 -0.00000000000E+00 -0.00000000000E+00 -0.45593999997E+02  0.45594000000E+02  0.51100000000E-03 0. -1.
    9900012    2    1    2    0    0  0.17188172397E+02  0.35130520001E+02  0.11116615071E+02  0.50528857897E+02  0.29999994064E+02 0.  0.
        -12    1    1    2    0    0 -0.17188172397E+02 -0.35130520001E+02 -0.11116615071E+02  0.40659142103E+02  0.00000000000E+00 0.  1.
         11    1    3    3    0    0  0.18137317167E+02  0.18556175460E+02  0.88467741735E+01  0.27414582529E+02  0.51100000000E-03 0. -1.
        -11    1    3    3    0    0  0.55560832357E+01  0.15380935880E+02  0.21926987985E+01  0.16500035689E+02  0.51100000000E-03 0.  1.
         12    1    3    3    0    0 -0.65052280050E+01  0.11934086616E+01  0.77142099340E-01  0.66142396792E+01  0.00000000000E+00 0. -1.
</event>
<event>
 7    1  0.5487071E-013  0.5052885E+02  0.7816164E-02  0.1300439E+00
        -11   -1    0    0    0    0  0.00000000000E+00  0.00000000000E+00  0.45593999997E+02  0.45594000000E+02  0.51100000000E-03 0.  1.
         11   -1    0    0    0    0 -0.00000000000E+00 -0.00000000000E+00 -0.45593999997E+02  0.45594000000E+02  0.51100000000E-03 0. -1.
    9900012    2    1    2    0    0  0.10338834903E+02 -0.37276265210E+02  0.12520189575E+02  0.50528848482E+02  0.29999965445E+02 0.  0.
        -12    1    1    2    0    0 -0.10338834903E+02  0.37276265210E+02 -0.12520189575E+02  0.40659151518E+02  0.00000000000E+00 0.  1.
         11    1    3    3    0    0 -0.28756212711E+01 -0.28242867080E+01 -0.14865631585E+01  0.42960055155E+01  0.51100000000E-03 0. -1.
        -11    1    3    3    0    0 -0.76238369221E+00 -0.53102096244E+01  0.12812862830E+02  0.13890608673E+02  0.51100000000E-03 0.  1.
         12    1    3    3    0    0  0.13976839867E+02 -0.29141768878E+02  0.11938899042E+01  0.32342234293E+02  0.00000000000E+00 0. -1.
</event>
<event>
 7    1  0.5487071E-013  0.5052886E+02  0.7816164E-02  0.1300439E+00
        -11   -1    0    0    0    0  0.00000000000E+00  0.00000000000E+00  0.45593999997E+02  0.45594000000E+02  0.51100000000E-03 0.  1.
         11   -1    0    0    0    0 -0.00000000000E+00 -0.00000000000E+00 -0.45593999997E+02  0.45594000000E+02  0.51100000000E-03 0. -1.
    9900012    2    1    2    0    0  0.23280251026E+01  0.18221089544E+02 -0.36273096718E+02  0.50528863873E+02  0.30000012229E+02 0.  0.
        -12    1    1    2    0    0 -0.23280251026E+01 -0.18221089544E+02  0.36273096718E+02  0.40659136127E+02  0.00000000000E+00 0.  1.
         11    1    3    3    0    0 -0.45042243999E+01  0.41872307326E+00 -0.17882845271E+02  0.18446124842E+02  0.51100000000E-03 0. -1.
        -11    1    3    3    0    0 -0.48319089034E+01  0.12814317346E+01 -0.77726133406E+01  0.92413705338E+01  0.51100000000E-03 0.  1.
        -12    1    3    3    0    0  0.11664158406E+02  0.16520934736E+02 -0.10617638107E+02  0.22841368497E+02  0.00000000000E+00 0.  1.
</event>
<event>
 7    1  0.5487071E-013  0.5052887E+02  0.7816164E-02  0.1300439E+00
        -11   -1    0    0    0    0  0.00000000000E+00  0.00000000000E+00  0.45593999997E+02  0.45594000000E+02  0.51100000000E-03 0. -1.
         11   -1    0    0    0    0 -0.00000000000E+00 -0.00000000000E+00 -0.45593999997E+02  0.45594000000E+02  0.51100000000E-03 0.  1.
    9900012    2    1    2    0    0 -0.23748025844E+01  0.15373201708E+02  0.37565803996E+02  0.50528872514E+02  0.30000038493E+02 0.  0.
        -12    1    1    2    0    0  0.23748025844E+01 -0.15373201708E+02 -0.37565803996E+02  0.40659127486E+02  0.00000000000E+00 0.  1.
         11    1    3    3    0    0  0.70730953221E+01  0.10904494341E+02  0.11501452648E+02  0.17355693231E+02  0.51100000000E-03 0. -1.
        -11    1    3    3    0    0  0.52355369146E+01  0.17321940835E+01  0.82856835890E+01  0.99530847442E+01  0.51100000000E-03 0.  1.
         12    1    3    3    0    0 -0.14683434821E+02  0.27365132836E+01  0.17778667759E+02  0.23220094539E+02  0.00000000000E+00 0. -1.
</event>
<event>
 7    1  0.5487071E-013  0.5052887E+02  0.7816164E-02  0.1300439E+00
        -11   -1    0    0    0    0  0.00000000000E+00  0.00000000000E+00  0.45593999997E+02  0.45594000000E+02  0.51100000000E-03 0. -1.
         11   -1    0    0    0    0 -0.00000000000E+00 -0.00000000000E+00 -0.45593999997E+02  0.45594000000E+02  0.51100000000E-03 0.  1.
    9900012    2    1    2    0    0 -0.25613489486E+02 -0.26615368820E+02  0.16992242487E+02  0.50528868113E+02  0.30000025117E+02 0.  0.
        -12    1    1    2    0    0  0.25613489486E+02  0.26615368820E+02 -0.16992242487E+02  0.40659131887E+02  0.00000000000E+00 0.  1.
         11    1    3    3    0    0 -0.45564600429E+01 -0.14177514367E+02  0.79778068537E+01  0.16894041678E+02  0.51100000000E-03 0. -1.
        -11    1    3    3    0    0  0.22050968872E+01  0.31550573207E+00 -0.36204966042E+01  0.42508813288E+01  0.51100000000E-03 0.  1.
         12    1    3    3    0    0 -0.23262126330E+02 -0.12753360185E+02  0.12634932237E+02  0.29383945107E+02  0.00000000000E+00 0. -1.
</event>
<event>
 7    1  0.5487071E-013  0.5052885E+02  0.7816164E-02  0.1300439E+00
        -11   -1    0    0    0    0  0.00000000000E+00  0.00000000000E+00  0.45593999997E+02  0.45594000000E+02  0.51100000000E-03 0.  1.
         11   -1    0    0    0    0 -0.00000000000E+00 -0.00000000000E+00 -0.45593999997E+02  0.45594000000E+02  0.51100000000E-03 0. -1.
    9900012    2    1    2    0    0 -0.78436384931E+01 -0.76198930015E+01 -0.39160967700E+02  0.50528845737E+02  0.29999957102E+02 0.  0.
        -12    1    1    2    0    0  0.78436384931E+01  0.76198930015E+01  0.39160967700E+02  0.40659154263E+02  0.00000000000E+00 0.  1.
         11    1    3    3    0    0 -0.47406732237E+01 -0.27490911657E+00 -0.23977901632E+02  0.24443594756E+02  0.51100000000E-03 0. -1.
        -11    1    3    3    0    0 -0.88167179762E+01 -0.75669234915E+00 -0.32276654768E+00  0.88550142682E+01  0.51100000000E-03 0.  1.
         12    1    3    3    0    0  0.57137527069E+01 -0.65882915358E+01 -0.14860299520E+02  0.17230236713E+02  0.00000000000E+00 0. -1.
</event>
<event>
 7    1  0.5487071E-013  0.5052886E+02  0.7816164E-02  0.1300439E+00
        -11   -1    0    0    0    0  0.00000000000E+00  0.00000000000E+00  0.45593999997E+02  0.45594000000E+02  0.51100000000E-03 0. -1.
         11   -1    0    0    0    0 -0.00000000000E+00 -0.00000000000E+00 -0.45593999997E+02  0.45594000000E+02  0.51100000000E-03 0.  1.
    9900012    2    1    2    0    0 -0.19866201231E+02 -0.12625792294E+02  0.33152509981E+02  0.50528862030E+02  0.30000006627E+02 0.  0.
        -12    1    1    2    0    0  0.19866201231E+02  0.12625792294E+02 -0.33152509981E+02  0.40659137970E+02  0.00000000000E+00 0.  1.
         11    1    3    3    0    0  0.24654846656E+01 -0.11147692412E+02  0.13975655813E+02  0.18046290932E+02  0.51100000000E-03 0. -1.
        -11    1    3    3    0    0  0.14889710902E+01 -0.11026541680E+01  0.35104509115E+01  0.39694013383E+01  0.51100000000E-03 0.  1.
        -12    1    3    3    0    0 -0.23820656986E+02 -0.37544571422E+00  0.15666403257E+02  0.28513169760E+02  0.00000000000E+00 0.  1.
</event>
<event>
 7    1  0.5487071E-013  0.5052885E+02  0.7816164E-02  0.1300439E+00
        -11   -1    0    0    0    0  0.00000000000E+00  0.00000000000E+00  0.45593999997E+02  0.45594000000E+02  0.51100000000E-03 0.  1.
         11   -1    0    0    0    0 -0.00000000000E+00 -0.00000000000E+00 -0.45593999997E+02  0.45594000000E+02  0.51100000000E-03 0. -1.
    9900012    2    1    2    0    0  0.20153053164E+02 -0.72621801233E+01 -0.34558378641E+02  0.50528851629E+02  0.29999975012E+02 0.  0.
        -12    1    1    2    0    0 -0.20153053164E+02  0.72621801233E+01  0.34558378641E+02  0.40659148371E+02  0.00000000000E+00 0.  1.
         11    1    3    3    0    0  0.18526465661E+01 -0.79011991474E+01 -0.10370033812E+02  0.13168099665E+02  0.51100000000E-03 0. -1.
        -11    1    3    3    0    0 -0.27328838003E+01 -0.56271613757E+01 -0.76388457498E+01  0.98734777898E+01  0.51100000000E-03 0.  1.
         12    1    3    3    0    0  0.21033290398E+02  0.62661803997E+01 -0.16549499079E+02  0.27487274175E+02  0.00000000000E+00 0. -1.
</event>
<event>
 7    1  0.5487071E-013  0.5052885E+02  0.7816164E-02  0.1300439E+00
        -11   -1    0    0    0    0  0.00000000000E+00  0.00000000000E+00  0.45593999997E+02  0.45594000000E+02  0.51100000000E-03 0.  1.
         11   -1    0    0    0    0 -0.00000000000E+00 -0.00000000000E+00 -0.45593999997E+02  0.45594000000E+02  0.51100000000E-03 0. -1.
    9900012    2    1    2    0    0  0.17553238193E+02  0.31276339471E+02 -0.19153083291E+02  0.50528853657E+02  0.29999981176E+02 0.  0.
        -12    1    1    2    0    0 -0.17553238193E+02 -0.31276339471E+02  0.19153083291E+02  0.40659146343E+02  0.00000000000E+00 0.  1.
         11    1    3    3    0    0  0.13963933735E+02  0.47027688232E+01 -0.36113971622E+01  0.15170684549E+02  0.51100000000E-03 0. -1.
        -11    1    3    3    0    0  0.80605965233E+01  0.52690061276E+01 -0.72896406058E+01  0.12077851726E+02  0.51100000000E-03 0.  1.
         12    1    3    3    0    0 -0.44712920649E+01  0.21304564520E+02 -0.82520455232E+01  0.23280317383E+02  0.00000000000E+00 0. -1.
</event>
<event>
 7    1  0.5487071E-013  0.5052886E+02  0.7816164E-02  0.1300439E+00
        -11   -1    0    0    0    0  0.00000000000E+00  0.00000000000E+00  0.45593999997E+02  0.45594000000E+02  0.51100000000E-03 0. -1.
         11   -1    0    0    0    0 -0.00000000000E+00 -0.00000000000E+00 -0.45593999997E+02  0.45594000000E+02  0.51100000000E-03 0.  1.
    9900012    2    1    2    0    0 -0.37216214329E+01 -0.40319305070E+02  0.36971817799E+01  0.50528856126E+02  0.29999988682E+02 0.  0.
        -12    1    1    2    0    0  0.37216214329E+01  0.40319305070E+02 -0.36971817799E+01  0.40659143874E+02  0.00000000000E+00 0.  1.
         11    1    3    3    0    0  0.74720257371E+01 -0.29202245797E+02  0.29723453026E+01  0.30289225230E+02  0.51100000000E-03 0. -1.
        -11    1    3    3    0    0 -0.25979987465E+01  0.28266004551E+01 -0.75159142970E-01  0.38399110377E+01  0.51100000000E-03 0.  1.
        -12    1    3    3    0    0 -0.85956484236E+01 -0.13943659729E+02  0.79999562027E+00  0.16399719859E+02  0.00000000000E+00 0.  1.
</event>
<event>
 7    1  0.5487071E-013  0.5052886E+02  0.7816164E-02  0.1300439E+00
        -11   -1    0    0    0    0  0.00000000000E+00  0.00000000000E+00  0.45593999997E+02  0.45594000000E+02  0.51100000000E-03 0. -1.
         11   -1    0    0    0    0 -0.00000000000E+00 -0.00000000000E+00 -0.45593999997E+02  0.45594000000E+02  0.51100000000E-03 0.  1.
    9900012    2    1    2    0    0  0.16409972757E+02  0.26242617783E+02  0.26366715510E+02  0.50528857353E+02  0.29999992410E+02 0.  0.
        -12    1    1    2    0    0 -0.16409972757E+02 -0.26242617783E+02 -0.26366715510E+02  0.40659142647E+02  0.00000000000E+00 0.  1.
         11    1    3    3    0    0  0.12607259091E+02  0.94816415514E+00  0.13226416860E+02  0.18296997029E+02  0.51100000000E-03 0. -1.
        -11    1    3    3    0    0  0.45396371170E+01  0.43583889894E+00  0.19128392277E+01  0.49454236292E+01  0.51100000000E-03 0.  1.
         12    1    3    3    0    0 -0.73692345104E+00  0.24858614729E+02  0.11227459422E+02  0.27286436695E+02  0.00000000000E+00 0. -1.
</event>
<event>
 7    1  0.5487071E-013  0.5052886E+02  0.7816164E-02  0.1300439E+00
        -11   -1    0    0    0    0  0.00000000000E+00  0.00000000000E+00  0.45593999997E+02  0.45594000000E+02  0.51100000000E-03 0.  1.
         11   -1    0    0    0    0 -0.00000000000E+00 -0.00000000000E+00 -0.45593999997E+02  0.45594000000E+02  0.51100000000E-03 0. -1.
    9900012    2    1    2    0    0  0.52050860713E+01 -0.42877780218E+00 -0.40322311447E+02  0.50528861153E+02  0.30000003959E+02 0.  0.
        -12    1    1    2    0    0 -0.52050860713E+01  0.42877780218E+00  0.40322311447E+02  0.40659138847E+02  0.00000000000E+00 0.  1.
         11    1    3    3    0    0 -0.26050054173E+01  0.31069981419E+01 -0.12496819569E+02  0.13138112128E+02  0.51100000000E-03 0. -1.
        -11    1    3    3    0    0 -0.74918483252E+01  0.25942210920E+01 -0.12965217586E+02  0.15197191903E+02  0.51100000000E-03 0.  1.
         12    1    3    3    0    0  0.15301939814E+02 -0.61299970361E+01 -0.14860274291E+02  0.22193557122E+02  0.00000000000E+00 0. -1.
</event>
<event>
 7    1  0.5487071E-013  0.5052886E+02  0.7816164E-02  0.1300439E+00
        -11   -1    0    0    0    0  0.00000000000E+00  0.00000000000E+00  0.45593999997E+02  0.45594000000E+02  0.51100000000E-03 0. -1.
         11   -1    0    0    0    0 -0.00000000000E+00 -0.00000000000E+00 -0.45593999997E+02  0.45594000000E+02  0.51100000000E-03 0.  1.
    9900012    2    1    2    0    0  0.11025898344E+02 -0.37183652091E+02 -0.12205388390E+02  0.50528856835E+02  0.29999990836E+02 0.  0.
        -12    1    1    2    0    0 -0.11025898344E+02  0.37183652091E+02  0.12205388390E+02  0.40659143165E+02  0.00000000000E+00 0.  1.
         11    1    3    3    0    0  0.16749194423E+02 -0.27250895804E+02 -0.31450534518E+00  0.31988212670E+02  0.51100000000E-03 0. -1.
        -11    1    3    3    0    0  0.98146341345E+00 -0.63142600749E+01 -0.38346909734E+01  0.74523825618E+01  0.51100000000E-03 0.  1.
        -12    1    3    3    0    0 -0.67047594921E+01 -0.36184962121E+01 -0.80561920717E+01  0.11088261603E+02  0.00000000000E+00 0.  1.
</event>
<event>
 7    1  0.5487071E-013  0.5052886E+02  0.7816164E-02  0.1300439E+00
        -11   -1    0    0    0    0  0.00000000000E+00  0.00000000000E+00  0.45593999997E+02  0.45594000000E+02  0.51100000000E-03 0. -1.
         11   -1    0    0    0    0 -0.00000000000E+00 -0.00000000000E+00 -0.45593999997E+02  0.45594000000E+02  0.51100000000E-03 0.  1.
    9900012    2    1    2    0    0 -0.40150833613E+02  0.60171706145E+01  0.22068357138E+01  0.50528857044E+02  0.29999991472E+02 0.  0.
        -12    1    1    2    0    0  0.40150833613E+02 -0.60171706145E+01 -0.22068357138E+01  0.40659142956E+02  0.00000000000E+00 0.  1.
         11    1    3    3    0    0 -0.98503319666E+01  0.91191858340E+01  0.90394879013E+00  0.13453836397E+02  0.51100000000E-03 0. -1.
        -11    1    3    3    0    0 -0.38605788456E+01  0.70700589499E+01  0.32334900595E+01  0.86801647913E+01  0.51100000000E-03 0.  1.
        -12    1    3    3    0    0 -0.26439922801E+02 -0.10172074169E+02 -0.19306031358E+01  0.28394855856E+02  0.00000000000E+00 0.  1.
</event>
<event>
 7    1  0.5487071E-013  0.5052887E+02  0.7816164E-02  0.1300439E+00
        -11   -1    0    0    0    0  0.00000000000E+00  0.00000000000E+00  0.45593999997E+02  0.45594000000E+02  0.51100000000E-03 0.  1.
         11   -1    0    0    0    0 -0.00000000000E+00 -0.00000000000E+00 -0.45593999997E+02  0.45594000000E+02  0.51100000000E-03 0. -1.
    9900012    2    1    2    0    0  0.19228306244E+02  0.12891160782E+01 -0.35801891043E+02  0.50528868387E+02  0.30000025949E+02 0.  0.
        -12    1    1    2    0    0 -0.19228306244E+02 -0.12891160782E+01  0.35801891043E+02  0.40659131613E+02  0.00000000000E+00 0.  1.
         11    1    3    3    0    0 -0.41619393106E+01  0.18104967386E+01 -0.75455234165E+00  0.46009767184E+01  0.51100000000E-03 0. -1.
        -11    1    3    3    0    0  0.68024627465E+01 -0.67117234645E+01 -0.43701194215E+01  0.10508029087E+02  0.51100000000E-03 0.  1.
         12    1    3    3    0    0  0.16587782808E+02  0.61903428040E+01 -0.30677219280E+02  0.35419862581E+02  0.00000000000E+00 0. -1.
</event>
<event>
 7    1  0.5487071E-013  0.5052885E+02  0.7816164E-02  0.1300439E+00
        -11   -1    0    0    0    0  0.00000000000E+00  0.00000000000E+00  0.45593999997E+02  0.45594000000E+02  0.51100000000E-03 0. -1.
         11   -1    0    0    0    0 -0.00000000000E+00 -0.00000000000E+00 -0.45593999997E+02  0.45594000000E+02  0.51100000000E-03 0.  1.
    9900012    2    1    2    0    0 -0.34874577278E+02 -0.18605885360E+02  0.95263325854E+01  0.50528854376E+02  0.29999983361E+02 0.  0.
        -12    1    1    2    0    0  0.34874577278E+02  0.18605885360E+02 -0.95263325854E+01  0.40659145624E+02  0.00000000000E+00 0.  1.
         11    1    3    3    0    0 -0.22306990456E+02 -0.11232573168E+02 -0.69780787321E-01  0.24975535886E+02  0.51100000000E-03 0. -1.
        -11    1    3    3    0    0 -0.10580959972E+02  0.19662298622E+01 -0.15536973789E+01  0.10873672315E+02  0.51100000000E-03 0.  1.
         12    1    3    3    0    0 -0.19866268502E+01 -0.93395420551E+01  0.11149810752E+02  0.14679646176E+02  0.00000000000E+00 0. -1.
</event>
<event>
 7    1  0.5487071E-013  0.5052886E+02  0.7816164E-02  0.1300439E+00
        -11   -1    0    0    0    0  0.00000000000E+00  0.00000000000E+00  0.45593999997E+02  0.45594000000E+02  0.51100000000E-03 0. -1.
         11   -1    0    0    0    0 -0.00000000000E+00 -0.00000000000E+00 -0.45593999997E+02  0.45594000000E+02  0.51100000000E-03 0.  1.
    9900012    2    1    2    0    0 -0.37650629092E+02  0.14335348613E+02 -0.54857612772E+01  0.50528859974E+02  0.30000000376E+02 0.  0.
        -12    1    1    2    0    0  0.37650629092E+02 -0.14335348613E+02  0.54857612772E+01  0.40659140026E+02  0.00000000000E+00 0.  1.
         11    1    3    3    0    0 -0.29455658672E+01  0.46350579616E+01 -0.15225121199E+01  0.56989616600E+01  0.51100000000E-03 0. -1.
        -11    1    3    3    0    0 -0.12826029239E+02  0.95802702283E+01 -0.13520207784E+02  0.20954346147E+02  0.51100000000E-03 0.  1.
        -12    1    3    3    0    0 -0.21879033986E+02  0.12002042278E+00  0.95569586262E+01  0.23875552166E+02  0.00000000000E+00 0.  1.
</event>
<event>
 7    1  0.5487071E-013  0.5052887E+02  0.7816164E-02  0.1300439E+00
        -11   -1    0    0    0    0  0.00000000000E+00  0.00000000000E+00  0.45593999997E+02  0.45594000000E+02  0.51100000000E-03 0.  1.
         11   -1    0    0    0    0 -0.00000000000E+00 -0.00000000000E+00 -0.45593999997E+02  0.45594000000E+02  0.51100000000E-03 0. -1.
    9900012    2    1    2    0    0  0.19113237801E+02 -0.35849915815E+02  0.16225422817E+01  0.50528868595E+02  0.30000026581E+02 0.  0.
        -12    1    1    2    0    0 -0.19113237801E+02  0.35849915815E+02 -0.16225422817E+01  0.40659131405E+02  0.00000000000E+00 0.  1.
         11    1    3    3    0    0  0.12351056528E+02 -0.11623643257E+02 -0.46847340711E+01  0.17595579374E+02  0.51100000000E-03 0. -1.
        -11    1    3    3    0    0  0.10011134776E+02 -0.75820785014E+01 -0.38877901635E+01  0.13146316842E+02  0.51100000000E-03 0.  1.
         12    1    3    3    0    0 -0.32489535027E+01 -0.16644194056E+02  0.10195066516E+02  0.19786972378E+02  0.00000000000E+00 0. -1.
</event>
<event>
 7    1  0.5487071E-013  0.5052886E+02  0.7816164E-02  0.1300439E+00
        -11   -1    0    0    0    0  0.00000000000E+00  0.00000000000E+00  0.45593999997E+02  0.45594000000E+02  0.51100000000E-03 0.  1.
         11   -1    0    0    0    0 -0.00000000000E+00 -0.00000000000E+00 -0.45593999997E+02  0.45594000000E+02  0.51100000000E-03 0. -1.
    9900012    2    1    2    0    0 -0.17455383246E+02  0.29881591268E+02 -0.21343977871E+02  0.50528864589E+02  0.30000014405E+02 0.  0.
        -12    1    1    2    0    0  0.17455383246E+02 -0.29881591268E+02  0.21343977871E+02  0.40659135411E+02  0.00000000000E+00 0.  1.
         11    1    3    3    0    0 -0.13041948167E+02  0.35835505151E+02 -0.16972095096E+02  0.41741200913E+02  0.51100000000E-03 0. -1.
        -11    1    3    3    0    0 -0.21539231216E+01 -0.19096626249E+01 -0.96083853295E+00  0.30347004963E+01  0.51100000000E-03 0.  1.
        -12    1    3    3    0    0 -0.22595119576E+01 -0.40442512584E+01 -0.34110442426E+01  0.57529631802E+01  0.00000000000E+00 0.  1.
</event>
<event>
 7    1  0.5487071E-013  0.5052888E+02  0.7816164E-02  0.1300439E+00
        -11   -1    0    0    0    0  0.00000000000E+00  0.00000000000E+00  0.45593999997E+02  0.45594000000E+02  0.51100000000E-03 0.  1.
         11   -1    0    0    0    0 -0.00000000000E+00 -0.00000000000E+00 -0.45593999997E+02  0.45594000000E+02  0.51100000000E-03 0. -1.
    9900012    2    1    2    0    0  0.30916363592E+02 -0.14410261246E+02 -0.22128866720E+02  0.50528881598E+02  0.30000066105E+02 0.  0.
        -12    1    1    2    0    0 -0.30916363592E+02  0.14410261246E+02  0.22128866720E+02  0.40659118402E+02  0.00000000000E+00 0.  1.
         11    1    3    3    0    0  0.19761679384E+02 -0.81076638659E+01 -0.12375514594E+02  0.24686262317E+02  0.51100000000E-03 0. -1.
        -11    1    3    3    0    0  0.16548479118E+02 -0.74130895078E+01 -0.91262305432E+01  0.20300102003E+02  0.51100000000E-03 0.  1.
        -12    1    3    3    0    0 -0.53937949098E+01  0.11104921274E+01 -0.62712158267E+00  0.55425172777E+01  0.00000000000E+00 0.  1.
</event>
<event>
 7    1  0.5487071E-013  0.5052884E+02  0.7816164E-02  0.1300439E+00
        -11   -1    0    0    0    0  0.00000000000E+00  0.00000000000E+00  0.45593999997E+02  0.45594000000E+02  0.51100000000E-03 0.  1.
         11   -1    0    0    0    0 -0.00000000000E+00 -0.00000000000E+00 -0.45593999997E+02  0.45594000000E+02  0.51100000000E-03 0. -1.
    9900012    2    1    2    0    0  0.36603797580E+02 -0.58323028009E+00 -0.17691490775E+02  0.50528843581E+02  0.29999950549E+02 0.  0.
        -12    1    1    2    0    0 -0.36603797580E+02  0.58323028009E+00  0.17691490775E+02  0.40659156419E+02  0.00000000000E+00 0.  1.
         11    1    3    3    0    0 -0.13349216418E+00  0.83133105750E+00 -0.39087269856E+01  0.39983844731E+01  0.51100000000E-03 0. -1.
        -11    1    3    3    0    0  0.23603485299E+01  0.36104877428E+01  0.53467677560E+01  0.68698466228E+01  0.51100000000E-03 0.  1.
         12    1    3    3    0    0  0.34376941215E+02 -0.50250490804E+01 -0.19129531546E+02  0.39660612485E+02  0.00000000000E+00 0. -1.
</event>
<event>
 7    1  0.5487071E-013  0.5052886E+02  0.7816164E-02  0.1300439E+00
        -11   -1    0    0    0    0  0.00000000000E+00  0.00000000000E+00  0.45593999997E+02  0.45594000000E+02  0.51100000000E-03 0. -1.
         11   -1    0    0    0    0 -0.00000000000E+00 -0.00000000000E+00 -0.45593999997E+02  0.45594000000E+02  0.51100000000E-03 0.  1.
    9900012    2    1    2    0    0  0.15946857189E+02 -0.21271929913E+02  0.30763105409E+02  0.50528856983E+02  0.29999991287E+02 0.  0.
        -12    1    1    2    0    0 -0.15946857189E+02  0.21271929913E+02 -0.30763105409E+02  0.40659143017E+02  0.00000000000E+00 0.  1.
         11    1    3    3    0    0  0.29953106135E+01 -0.12748720579E+01  0.15663888519E+02  0.15998580819E+02  0.51100000000E-03 0. -1.
        -11    1    3    3    0    0 -0.39596651491E+01 -0.67705622872E+00  0.61376512512E+01  0.73354015822E+01  0.51100000000E-03 0.  1.
        -12    1    3    3    0    0  0.16911211725E+02 -0.19320001626E+02  0.89615656394E+01  0.27194874582E+02  0.00000000000E+00 0.  1.
</event>
<event>
 7    1  0.5487071E-013  0.5052887E+02  0.7816164E-02  0.1300439E+00
        -11   -1    0    0    0    0  0.00000000000E+00  0.00000000000E+00  0.45593999997E+02  0.45594000000E+02  0.51100000000E-03 0.  1.
         11   -1    0    0    0    0 -0.00000000000E+00 -0.00000000000E+00 -0.45593999997E+02  0.45594000000E+02  0.51100000000E-03 0. -1.
    9900012    2    1    2    0    0  0.44820432771E+01 -0.37595375618E+02  0.14821074429E+02  0.50528865392E+02  0.30000016846E+02 0.  0.
        -12    1    1    2    0    0 -0.44820432771E+01  0.37595375618E+02 -0.14821074429E+02  0.40659134608E+02  0.00000000000E+00 0.  1.
         11    1    3    3    0    0  0.92236439888E+00 -0.29979590076E+00 -0.18101796088E+01  0.20536270703E+01  0.51100000000E-03 0. -1.
        -11    1    3    3    0    0 -0.64446207322E+01 -0.29080953734E+01 -0.29469141872E+01  0.76599254938E+01  0.51100000000E-03 0.  1.
         12    1    3    3    0    0  0.10004299610E+02 -0.34387484344E+02  0.19578168225E+02  0.40815312828E+02  0.00000000000E+00 0. -1.
</event>
<event>
 7    1  0.5487071E-013  0.5052880E+02  0.7816164E-02  0.1300439E+00
        -11   -1    0    0    0    0  0.00000000000E+00  0.00000000000E+00  0.45593999997E+02  0.45594000000E+02  0.51100000000E-03 0.  1.
         11   -1    0    0    0    0 -0.00000000000E+00 -0.00000000000E+00 -0.45593999997E+02  0.45594000000E+02  0.51100000000E-03 0. -1.
    9900012    2    1    2    0    0 -0.33761657423E+01 -0.23628609911E+01 -0.40449835245E+02  0.50528797124E+02  0.29999809337E+02 0.  0.
        -12    1    1    2    0    0  0.33761657423E+01  0.23628609911E+01  0.40449835245E+02  0.40659202876E+02  0.00000000000E+00 0.  1.
         11    1    3    3    0    0 -0.10990635986E+01 -0.31275923852E+01 -0.44223912159E+01  0.55269629318E+01  0.51100000000E-03 0. -1.
        -11    1    3    3    0    0  0.83697780438E+01 -0.21015532601E+01 -0.15030281776E+01  0.87594979634E+01  0.51100000000E-03 0.  1.
        -12    1    3    3    0    0 -0.10646880187E+02  0.28662846542E+01 -0.34524415851E+02  0.36242336229E+02  0.00000000000E+00 0.  1.
</event>
<event>
 7    1  0.5487071E-013  0.5052886E+02  0.7816164E-02  0.1300439E+00
        -11   -1    0    0    0    0  0.00000000000E+00  0.00000000000E+00  0.45593999997E+02  0.45594000000E+02  0.51100000000E-03 0.  1.
         11   -1    0    0    0    0 -0.00000000000E+00 -0.00000000000E+00 -0.45593999997E+02  0.45594000000E+02  0.51100000000E-03 0. -1.
    9900012    2    1    2    0    0 -0.72659294998E+01 -0.23755688496E+02 -0.32187563726E+02  0.50528859256E+02  0.29999998196E+02 0.  0.
        -12    1    1    2    0    0  0.72659294998E+01  0.23755688496E+02  0.32187563726E+02  0.40659140744E+02  0.00000000000E+00 0.  1.
         11    1    3    3    0    0  0.57484907636E+01 -0.13516466925E+02 -0.83004196805E+01  0.16871188202E+02  0.51100000000E-03 0. -1.
        -11    1    3    3    0    0  0.34824766113E+01 -0.49018428715E+01 -0.88914085698E+01  0.10733725052E+02  0.51100000000E-03 0.  1.
        -12    1    3    3    0    0 -0.16496896875E+02 -0.53373786990E+01 -0.14995735476E+02  0.22923946003E+02  0.00000000000E+00 0.  1.
</event>
<event>
 7    1  0.5487071E-013  0.5052887E+02  0.7816164E-02  0.1300439E+00
        -11   -1    0    0    0    0  0.00000000000E+00  0.00000000000E+00  0.45593999997E+02  0.45594000000E+02  0.51100000000E-03 0.  1.
         11   -1    0    0    0    0 -0.00000000000E+00 -0.00000000000E+00 -0.45593999997E+02  0.45594000000E+02  0.51100000000E-03 0. -1.
    9900012    2    1    2    0    0  0.25647825699E+02  0.11038745276E+02 -0.29555038253E+02  0.50528866383E+02  0.30000019856E+02 0.  0.
        -12    1    1    2    0    0 -0.25647825699E+02 -0.11038745276E+02  0.29555038253E+02  0.40659133617E+02  0.00000000000E+00 0.  1.
         11    1    3    3    0    0  0.16534963250E+02 -0.21362420883E+01 -0.10974282568E+02  0.19960045543E+02  0.51100000000E-03 0. -1.
        -11    1    3    3    0    0  0.27658392760E+01  0.53299588864E+01  0.30242121423E+01  0.67234059801E+01  0.51100000000E-03 0.  1.
         12    1    3    3    0    0  0.63470231729E+01  0.78450284785E+01 -0.21604967827E+02  0.23845414859E+02  0.00000000000E+00 0. -1.
</event>
<event>
 7    1  0.5487071E-013  0.5052885E+02  0.7816164E-02  0.1300439E+00
        -11   -1    0    0    0    0  0.00000000000E+00  0.00000000000E+00  0.45593999997E+02  0.45594000000E+02  0.51100000000E-03 0.  1.
         11   -1    0    0    0    0 -0.00000000000E+00 -0.00000000000E+00 -0.45593999997E+02  0.45594000000E+02  0.51100000000E-03 0. -1.
    9900012    2    1    2    0    0 -0.33858335811E+02  0.32243407529E+00 -0.22509447692E+02  0.50528854620E+02  0.29999984104E+02 0.  0.
        -12    1    1    2    0    0  0.33858335811E+02 -0.32243407529E+00  0.22509447692E+02  0.40659145380E+02  0.00000000000E+00 0.  1.
         11    1    3    3    0    0  0.29966701709E+00  0.26817215453E+01 -0.50634844440E+01  0.57376219589E+01  0.51100000000E-03 0. -1.
        -11    1    3    3    0    0 -0.69603558320E+01  0.84577680675E+01 -0.94044030875E+01  0.14436869179E+02  0.51100000000E-03 0.  1.
         12    1    3    3    0    0 -0.27197646996E+02 -0.10817055538E+02 -0.80415601604E+01  0.30354363483E+02  0.00000000000E+00 0. -1.
</event>
<event>
 7    1  0.5487071E-013  0.5052885E+02  0.7816164E-02  0.1300439E+00
        -11   -1    0    0    0    0  0.00000000000E+00  0.00000000000E+00  0.45593999997E+02  0.45594000000E+02  0.51100000000E-03 0. -1.
         11   -1    0    0    0    0 -0.00000000000E+00 -0.00000000000E+00 -0.45593999997E+02  0.45594000000E+02  0.51100000000E-03 0.  1.
    9900012    2    1    2    0    0 -0.37735768005E+02 -0.15138384103E+02  0.86596059227E-01  0.50528851472E+02  0.29999974533E+02 0.  0.
        -12    1    1    2    0    0  0.37735768005E+02  0.15138384103E+02 -0.86596059227E-01  0.40659148528E+02  0.00000000000E+00 0.  1.
         11    1    3    3    0    0 -0.28194563327E+02 -0.91806274929E+01  0.42709423473E+01  0.29957607901E+02  0.51100000000E-03 0. -1.
        -11    1    3    3    0    0 -0.85021816257E+01 -0.94128338972E+01 -0.82534257372E+01  0.15132996102E+02  0.51100000000E-03 0.  1.
        -12    1    3    3    0    0 -0.10390230526E+01  0.34550772871E+01  0.40690794492E+01  0.54382474684E+01  0.00000000000E+00 0.  1.
</event>
<event>
 7    1  0.5487071E-013  0.5052885E+02  0.7816164E-02  0.1300439E+00
        -11   -1    0    0    0    0  0.00000000000E+00  0.00000000000E+00  0.45593999997E+02  0.45594000000E+02  0.51100000000E-03 0.  1.
         11   -1    0    0    0    0 -0.00000000000E+00 -0.00000000000E+00 -0.45593999997E+02  0.45594000000E+02  0.51100000000E-03 0. -1.
    9900012    2    1    2    0    0  0.38563873190E+01  0.28034745014E+02 -0.29194990130E+02  0.50528854659E+02  0.29999984223E+02 0.  0.
        -12    1    1    2    0    0 -0.38563873190E+01 -0.28034745014E+02  0.29194990130E+02  0.40659145341E+02  0.00000000000E+00 0.  1.
         11    1    3    3    0    0 -0.23984321794E+00 -0.43041797099E+01  0.15915960757E+01  0.45952873766E+01  0.51100000000E-03 0.  1.
        -11    1    3    3    0    0 -0.33003564195E+01  0.10567994088E+02 -0.91929782767E+01  0.14390472591E+02  0.51100000000E-03 0. -1.
        -12    1    3    3    0    0  0.73965869564E+01  0.21770930635E+02 -0.21593607929E+02  0.31543094692E+02  0.00000000000E+00 0.  1.
</event>
<event>
 7    1  0.5487071E-013  0.5052884E+02  0.7816164E-02  0.1300439E+00
        -11   -1    0    0    0    0  0.00000000000E+00  0.00000000000E+00  0.45593999997E+02  0.45594000000E+02  0.51100000000E-03 0.  1.
         11   -1    0    0    0    0 -0.00000000000E+00 -0.00000000000E+00 -0.45593999997E+02  0.45594000000E+02  0.51100000000E-03 0. -1.
    9900012    2    1    2    0    0 -0.33478660353E+02 -0.55985870534E+01 -0.22383087216E+02  0.50528837818E+02  0.29999933033E+02 0.  0.
        -12    1    1    2    0    0  0.33478660353E+02  0.55985870534E+01  0.22383087216E+02  0.40659162182E+02  0.00000000000E+00 0.  1.
         11    1    3    3    0    0  0.24211251831E+01 -0.38554624488E-01 -0.53845191368E+01  0.59039292176E+01  0.51100000000E-03 0. -1.
        -11    1    3    3    0    0  0.22559506364E+00  0.39078215526E+01 -0.15345915644E+01  0.42043945997E+01  0.51100000000E-03 0.  1.
         12    1    3    3    0    0 -0.36125380599E+02 -0.94678539816E+01 -0.15463976515E+02  0.40420514001E+02  0.00000000000E+00 0. -1.
</event>
<event>
 7    1  0.5487071E-013  0.5052886E+02  0.7816164E-02  0.1300439E+00
        -11   -1    0    0    0    0  0.00000000000E+00  0.00000000000E+00  0.45593999997E+02  0.45594000000E+02  0.51100000000E-03 0.  1.
         11   -1    0    0    0    0 -0.00000000000E+00 -0.00000000000E+00 -0.45593999997E+02  0.45594000000E+02  0.51100000000E-03 0. -1.
    9900012    2    1    2    0    0  0.27982995987E+02 -0.15704655702E+02 -0.24969604509E+02  0.50528862964E+02  0.30000009466E+02 0.  0.
        -12    1    1    2    0    0 -0.27982995987E+02  0.15704655702E+02  0.24969604509E+02  0.40659137036E+02  0.00000000000E+00 0.  1.
         11    1    3    3    0    0  0.50496993378E+00 -0.26745788957E+01 -0.48857762596E+01  0.55927789893E+01  0.51100000000E-03 0. -1.
        -11    1    3    3    0    0  0.42401538586E+00  0.40240560531E+01 -0.10954447737E+02  0.11677874021E+02  0.51100000000E-03 0.  1.
        -12    1    3    3    0    0  0.27054010668E+02 -0.17054132859E+02 -0.91293805123E+01  0.33258209954E+02  0.00000000000E+00 0.  1.
</event>
<event>
 7    1  0.5487071E-013  0.5052886E+02  0.7816164E-02  0.1300439E+00
        -11   -1    0    0    0    0  0.00000000000E+00  0.00000000000E+00  0.45593999997E+02  0.45594000000E+02  0.51100000000E-03 0. -1.
         11   -1    0    0    0    0 -0.00000000000E+00 -0.00000000000E+00 -0.45593999997E+02  0.45594000000E+02  0.51100000000E-03 0.  1.
    9900012    2    1    2    0    0 -0.18072866162E+02  0.28299292009E+02  0.22927878783E+02  0.50528855334E+02  0.29999986272E+02 0.  0.
        -12    1    1    2    0    0  0.18072866162E+02 -0.28299292009E+02 -0.22927878783E+02  0.40659144666E+02  0.00000000000E+00 0.  1.
         11    1    3    3    0    0  0.47684522400E+00  0.59776966291E+01  0.26500463272E+01  0.65561409499E+01  0.51100000000E-03 0.  1.
        -11    1    3    3    0    0 -0.37982851377E+01  0.67588629235E+01  0.21135413439E+02  0.22512549823E+02  0.51100000000E-03 0. -1.
        -12    1    3    3    0    0 -0.14751426248E+02  0.15562732456E+02 -0.85758098311E+00  0.21460164561E+02  0.00000000000E+00 0.  1.
</event>
<event>
 7    1  0.5487071E-013  0.5052885E+02  0.7816164E-02  0.1300439E+00
        -11   -1    0    0    0    0  0.00000000000E+00  0.00000000000E+00  0.45593999997E+02  0.45594000000E+02  0.51100000000E-03 0.  1.
         11   -1    0    0    0    0 -0.00000000000E+00 -0.00000000000E+00 -0.45593999997E+02  0.45594000000E+02  0.51100000000E-03 0. -1.
    9900012    2    1    2    0    0 -0.23400509394E+02  0.28975591443E+02 -0.16309446751E+02  0.50528846140E+02  0.29999958326E+02 0.  0.
        -12    1    1    2    0    0  0.23400509394E+02 -0.28975591443E+02  0.16309446751E+02  0.40659153860E+02  0.00000000000E+00 0.  1.
         11    1    3    3    0    0 -0.84630500306E+01  0.15615221978E+02  0.22214192977E+01  0.17899527290E+02  0.51100000000E-03 0. -1.
        -11    1    3    3    0    0  0.35411072838E+01  0.47524085747E+01 -0.71338829380E+01  0.92745411795E+01  0.51100000000E-03 0.  1.
         12    1    3    3    0    0 -0.18478566647E+02  0.86079608901E+01 -0.11396983110E+02  0.23354777670E+02  0.00000000000E+00 0. -1.
</event>
