<event>
 7    1  0.1826069E-013  0.7246155E+02  0.7816164E-02  0.1226708E+00
        -11   -1    0    0    0    0  0.00000000000E+00  0.00000000000E+00  0.45593999997E+02  0.45594000000E+02  0.51100000000E-03 0. -1.
         11   -1    0    0    0    0 -0.00000000000E+00 -0.00000000000E+00 -0.45593999997E+02  0.45594000000E+02  0.51100000000E-03 0.  1.
    9900012    2    1    2    0    0  0.18305283736E+02 -0.18373268779E+01 -0.34958155349E+01  0.72461550551E+02  0.69999974281E+02 0.  0.
        -12    1    1    2    0    0 -0.18305283736E+02  0.18373268779E+01  0.34958155349E+01  0.18726449449E+02  0.00000000000E+00 0.  1.
         11    1    3    3    0    0  0.43463639250E+02 -0.81719597854E+00 -0.10259386342E+02  0.44665543258E+02  0.51100000000E-03 0. -1.
        -11    1    3    3    0    0 -0.33548515203E+01 -0.36501833402E+01  0.18489454869E+01  0.52912632532E+01  0.51100000000E-03 0.  1.
         12    1    3    3    0    0 -0.21803503994E+02  0.26300524409E+01  0.49146253198E+01  0.22504744040E+02  0.00000000000E+00 0. -1.
</event>
<event>
 7    1  0.1826069E-013  0.7246147E+02  0.7816164E-02  0.1226708E+00
        -11   -1    0    0    0    0  0.00000000000E+00  0.00000000000E+00  0.45593999997E+02  0.45594000000E+02  0.51100000000E-03 0.  1.
         11   -1    0    0    0    0 -0.00000000000E+00 -0.00000000000E+00 -0.45593999997E+02  0.45594000000E+02  0.51100000000E-03 0. -1.
    9900012    2    1    2    0    0  0.15355458318E+02  0.75148674946E+01  0.76432726476E+01  0.72461469344E+02  0.69999868494E+02 0.  0.
        -12    1    1    2    0    0 -0.15355458318E+02 -0.75148674946E+01 -0.76432726476E+01  0.18726530656E+02  0.00000000000E+00 0.  1.
         11    1    3    3    0    0  0.14804861166E+02 -0.27375409059E+01  0.17373596506E+02  0.22989560678E+02  0.51100000000E-03 0.  1.
        -11    1    3    3    0    0 -0.16285966547E+02  0.21978047291E+02 -0.94877723975E+01  0.28953153445E+02  0.51100000000E-03 0. -1.
        -12    1    3    3    0    0  0.16836563700E+02 -0.11725638891E+02 -0.24255146107E+00  0.20518755221E+02  0.00000000000E+00 0.  1.
</event>
<event>
 7    1  0.1936234E-013  0.7246156E+02  0.7816164E-02  0.1226708E+00
        -11   -1    0    0    0    0  0.00000000000E+00  0.00000000000E+00  0.45593999997E+02  0.45594000000E+02  0.51100000000E-03 0. -1.
         11   -1    0    0    0    0 -0.00000000000E+00 -0.00000000000E+00 -0.45593999997E+02  0.45594000000E+02  0.51100000000E-03 0.  1.
    9900012    2    1    2    0    0 -0.90257287993E+00 -0.16611508038E+02  0.85978239290E+01  0.72461563782E+02  0.69999991517E+02 0.  0.
        -12    1    1    2    0    0  0.90257287993E+00  0.16611508038E+02 -0.85978239290E+01  0.18726436218E+02  0.00000000000E+00 0.  1.
         11    1    3    3    0    0 -0.20414732861E+02 -0.99361567331E+01  0.23629564589E+02  0.32769572035E+02  0.51100000000E-03 0. -1.
        -11    1    3    3    0    0  0.70910131373E+01  0.70234181214E+01 -0.18365517759E+02  0.20902227447E+02  0.51100000000E-03 0.  1.
        -12    1    3    3    0    0  0.12421146844E+02 -0.13698769426E+02  0.33337770990E+01  0.18789764300E+02  0.00000000000E+00 0.  1.
</event>
<event>
 7    1  0.1826069E-013  0.7246156E+02  0.7816164E-02  0.1226708E+00
        -11   -1    0    0    0    0  0.00000000000E+00  0.00000000000E+00  0.45593999997E+02  0.45594000000E+02  0.51100000000E-03 0.  1.
         11   -1    0    0    0    0 -0.00000000000E+00 -0.00000000000E+00 -0.45593999997E+02  0.45594000000E+02  0.51100000000E-03 0. -1.
    9900012    2    1    2    0    0 -0.14308934699E+02  0.11652067302E+02  0.31879708638E+01  0.72461562996E+02  0.69999990493E+02 0.  0.
        -12    1    1    2    0    0  0.14308934699E+02 -0.11652067302E+02 -0.31879708638E+01  0.18726437004E+02  0.00000000000E+00 0.  1.
         11    1    3    3    0    0  0.98247218159E+01  0.22339108982E+01 -0.46581838898E+01  0.11100188921E+02  0.51100000000E-03 0. -1.
        -11    1    3    3    0    0 -0.32783797058E+02  0.59765527231E+01 -0.15109691808E+02  0.36589606705E+02  0.51100000000E-03 0.  1.
        -12    1    3    3    0    0  0.86501405433E+01  0.34416036807E+01  0.22955846561E+02  0.24771767371E+02  0.00000000000E+00 0.  1.
</event>
<event>
 7    1  0.1826069E-013  0.7246108E+02  0.7816164E-02  0.1226709E+00
        -11   -1    0    0    0    0  0.00000000000E+00  0.00000000000E+00  0.45593999997E+02  0.45594000000E+02  0.51100000000E-03 0.  1.
         11   -1    0    0    0    0 -0.00000000000E+00 -0.00000000000E+00 -0.45593999997E+02  0.45594000000E+02  0.51100000000E-03 0. -1.
    9900012    2    1    2    0    0 -0.15450524328E+02 -0.46017283275E+01 -0.95290477149E+01  0.72461084719E+02  0.69999367445E+02 0.  0.
        -12    1    1    2    0    0  0.15450524328E+02  0.46017283275E+01  0.95290477149E+01  0.18726915281E+02  0.00000000000E+00 0.  1.
         11    1    3    3    0    0 -0.82853788646E+01  0.24429308919E+02  0.61356879701E+01  0.26515755775E+02  0.51100000000E-03 0. -1.
        -11    1    3    3    0    0  0.12172376873E+02 -0.93857804060E+01 -0.32387576743E+01  0.15708252102E+02  0.51100000000E-03 0.  1.
         12    1    3    3    0    0 -0.19337522336E+02 -0.19645256840E+02 -0.12425978011E+02  0.30237076842E+02  0.00000000000E+00 0. -1.
</event>
<event>
 7    1  0.1826069E-013  0.7246160E+02  0.7816164E-02  0.1226708E+00
        -11   -1    0    0    0    0  0.00000000000E+00  0.00000000000E+00  0.45593999997E+02  0.45594000000E+02  0.51100000000E-03 0.  1.
         11   -1    0    0    0    0 -0.00000000000E+00 -0.00000000000E+00 -0.45593999997E+02  0.45594000000E+02  0.51100000000E-03 0. -1.
    9900012    2    1    2    0    0  0.30595850715E+01 -0.17652910131E+02 -0.54490020708E+01  0.72461603644E+02  0.70000043444E+02 0.  0.
        -12    1    1    2    0    0 -0.30595850715E+01  0.17652910131E+02  0.54490020708E+01  0.18726396356E+02  0.00000000000E+00 0.  1.
         11    1    3    3    0    0 -0.76459492825E+00  0.55864397561E+01 -0.79872154673E+01  0.97769384643E+01  0.51100000000E-03 0. -1.
        -11    1    3    3    0    0 -0.99415178825E+01 -0.56809743970E+01  0.27149692672E+02  0.29465455373E+02  0.51100000000E-03 0.  1.
        -12    1    3    3    0    0  0.13765697882E+02 -0.17558375491E+02 -0.24611479275E+02  0.33219209807E+02  0.00000000000E+00 0.  1.
</event>
<event>
 7    1  0.1826069E-013  0.7246158E+02  0.7816164E-02  0.1226708E+00
        -11   -1    0    0    0    0  0.00000000000E+00  0.00000000000E+00  0.45593999997E+02  0.45594000000E+02  0.51100000000E-03 0.  1.
         11   -1    0    0    0    0 -0.00000000000E+00 -0.00000000000E+00 -0.45593999997E+02  0.45594000000E+02  0.51100000000E-03 0. -1.
    9900012    2    1    2    0    0  0.51565408112E+01  0.43041542510E+01 -0.17480367108E+02  0.72461577726E+02  0.70000009681E+02 0.  0.
        -12    1    1    2    0    0 -0.51565408112E+01 -0.43041542510E+01  0.17480367108E+02  0.18726422274E+02  0.00000000000E+00 0.  1.
         11    1    3    3    0    0 -0.14466236700E+02  0.15152121253E+02  0.11621622463E+02  0.23956646086E+02  0.51100000000E-03 0. -1.
        -11    1    3    3    0    0  0.17406605929E+02 -0.14026627070E+02 -0.35188980410E+01  0.22630042877E+02  0.51100000000E-03 0.  1.
         12    1    3    3    0    0  0.22161715828E+01  0.31786600678E+01 -0.25583091530E+02  0.25874888764E+02  0.00000000000E+00 0. -1.
</event>
<event>
 7    1  0.1826069E-013  0.7246157E+02  0.7816164E-02  0.1226708E+00
        -11   -1    0    0    0    0  0.00000000000E+00  0.00000000000E+00  0.45593999997E+02  0.45594000000E+02  0.51100000000E-03 0. -1.
         11   -1    0    0    0    0 -0.00000000000E+00 -0.00000000000E+00 -0.45593999997E+02  0.45594000000E+02  0.51100000000E-03 0.  1.
    9900012    2    1    2    0    0 -0.84273736833E+01 -0.96626936846E+01  0.13648839541E+02  0.72461572224E+02  0.70000002514E+02 0.  0.
        -12    1    1    2    0    0  0.84273736833E+01  0.96626936846E+01 -0.13648839541E+02  0.18726427776E+02  0.00000000000E+00 0.  1.
         11    1    3    3    0    0 -0.38417262868E+01  0.84779288916E+01  0.36669855496E+02  0.37832690117E+02  0.51100000000E-03 0. -1.
        -11    1    3    3    0    0  0.34589001645E+01 -0.13431316351E+02 -0.20876511601E+02  0.25063778370E+02  0.51100000000E-03 0.  1.
         12    1    3    3    0    0 -0.80445475609E+01 -0.47093062256E+01 -0.21445043535E+01  0.95651037375E+01  0.00000000000E+00 0. -1.
</event>
<event>
 7    1  0.1826069E-013  0.7246157E+02  0.7816164E-02  0.1226708E+00
        -11   -1    0    0    0    0  0.00000000000E+00  0.00000000000E+00  0.45593999997E+02  0.45594000000E+02  0.51100000000E-03 0. -1.
         11   -1    0    0    0    0 -0.00000000000E+00 -0.00000000000E+00 -0.45593999997E+02  0.45594000000E+02  0.51100000000E-03 0.  1.
    9900012    2    1    2    0    0 -0.60743168106E-02 -0.13656008964E+02  0.12813759354E+02  0.72461573579E+02  0.70000004279E+02 0.  0.
        -12    1    1    2    0    0  0.60743168106E-02  0.13656008964E+02 -0.12813759354E+02  0.18726426421E+02  0.00000000000E+00 0.  1.
         11    1    3    3    0    0 -0.67302217821E+01  0.17613030448E+02  0.24406910778E+02  0.30841725321E+02  0.51100000000E-03 0. -1.
        -11    1    3    3    0    0  0.14314029479E+02 -0.18983629023E+02 -0.11585593396E+01  0.23803610457E+02  0.51100000000E-03 0.  1.
         12    1    3    3    0    0 -0.75898820136E+01 -0.12285410389E+02 -0.10434592084E+02  0.17816237800E+02  0.00000000000E+00 0. -1.
</event>
<event>
 7    1  0.1826069E-013  0.7246177E+02  0.7816164E-02  0.1226707E+00
        -11   -1    0    0    0    0  0.00000000000E+00  0.00000000000E+00  0.45593999997E+02  0.45594000000E+02  0.51100000000E-03 0.  1.
         11   -1    0    0    0    0 -0.00000000000E+00 -0.00000000000E+00 -0.45593999997E+02  0.45594000000E+02  0.51100000000E-03 0. -1.
    9900012    2    1    2    0    0  0.15954214017E+02 -0.19220699556E+00  0.98029433949E+01  0.72461772733E+02  0.70000263714E+02 0.  0.
        -12    1    1    2    0    0 -0.15954214017E+02  0.19220699556E+00 -0.98029433949E+01  0.18726227267E+02  0.00000000000E+00 0.  1.
         11    1    3    3    0    0  0.28170305555E+02  0.54081812037E+01 -0.20014928225E+02  0.34977305373E+02  0.51100000000E-03 0. -1.
        -11    1    3    3    0    0 -0.66673508977E+01 -0.17226073573E+01 -0.22047842250E-01  0.68863219842E+01  0.51100000000E-03 0.  1.
         12    1    3    3    0    0 -0.55487406404E+01 -0.38777808420E+01  0.29839919463E+02  0.30598145377E+02  0.00000000000E+00 0. -1.
</event>
<event>
 7    1  0.1826069E-013  0.7246152E+02  0.7816164E-02  0.1226708E+00
        -11   -1    0    0    0    0  0.00000000000E+00  0.00000000000E+00  0.45593999997E+02  0.45594000000E+02  0.51100000000E-03 0.  1.
         11   -1    0    0    0    0 -0.00000000000E+00 -0.00000000000E+00 -0.45593999997E+02  0.45594000000E+02  0.51100000000E-03 0. -1.
    9900012    2    1    2    0    0  0.37583801248E+01  0.17964853325E+02 -0.37174673971E+01  0.72461523022E+02  0.69999938420E+02 0.  0.
        -12    1    1    2    0    0 -0.37583801248E+01 -0.17964853325E+02  0.37174673971E+01  0.18726476978E+02  0.00000000000E+00 0.  1.
         11    1    3    3    0    0  0.24145945092E+02  0.60042740929E+00 -0.14936974793E+02  0.28398950574E+02  0.51100000000E-03 0. -1.
        -11    1    3    3    0    0 -0.38453723882E+01  0.57317305748E+01  0.20632474734E+02  0.21756347076E+02  0.51100000000E-03 0.  1.
         12    1    3    3    0    0 -0.16542192579E+02  0.11632695341E+02 -0.94129673381E+01  0.22306225372E+02  0.00000000000E+00 0. -1.
</event>
<event>
 7    1  0.1826069E-013  0.7246214E+02  0.7816164E-02  0.1226707E+00
        -11   -1    0    0    0    0  0.00000000000E+00  0.00000000000E+00  0.45593999997E+02  0.45594000000E+02  0.51100000000E-03 0.  1.
         11   -1    0    0    0    0 -0.00000000000E+00 -0.00000000000E+00 -0.45593999997E+02  0.45594000000E+02  0.51100000000E-03 0. -1.
    9900012    2    1    2    0    0 -0.12447344639E+01 -0.51843598476E+01 -0.17950793165E+02  0.72462137505E+02  0.70000738894E+02 0.  0.
        -12    1    1    2    0    0  0.12447344639E+01  0.51843598476E+01  0.17950793165E+02  0.18725862495E+02  0.00000000000E+00 0.  1.
         11    1    3    3    0    0 -0.19057903736E+02 -0.18460777424E+02 -0.22074954568E+02  0.34515324384E+02  0.51100000000E-03 0. -1.
        -11    1    3    3    0    0 -0.59356036788E+01 -0.26237417490E+01  0.66045313734E+01  0.92593329523E+01  0.51100000000E-03 0.  1.
         12    1    3    3    0    0  0.23748772951E+02  0.15900159326E+02 -0.24803699710E+01  0.28687480169E+02  0.00000000000E+00 0. -1.
</event>
<event>
 7    1  0.1826069E-013  0.7246171E+02  0.7816164E-02  0.1226708E+00
        -11   -1    0    0    0    0  0.00000000000E+00  0.00000000000E+00  0.45593999997E+02  0.45594000000E+02  0.51100000000E-03 0. -1.
         11   -1    0    0    0    0 -0.00000000000E+00 -0.00000000000E+00 -0.45593999997E+02  0.45594000000E+02  0.51100000000E-03 0.  1.
    9900012    2    1    2    0    0 -0.14342651252E+02 -0.11143747318E+02  0.45584370591E+01  0.72461705715E+02  0.70000176411E+02 0.  0.
        -12    1    1    2    0    0  0.14342651252E+02  0.11143747318E+02 -0.45584370591E+01  0.18726294285E+02  0.00000000000E+00 0.  1.
         11    1    3    3    0    0 -0.33529184439E+02 -0.16397254218E+02 -0.16502030361E+02  0.40809228874E+02  0.51100000000E-03 0. -1.
        -11    1    3    3    0    0  0.65515208179E+01  0.68566847707E+01  0.14499776118E+02  0.17325705146E+02  0.51100000000E-03 0.  1.
         12    1    3    3    0    0  0.12635012369E+02 -0.16031778710E+01  0.65606913016E+01  0.14326771695E+02  0.00000000000E+00 0. -1.
</event>
<event>
 7    1  0.1826069E-013  0.7246154E+02  0.7816164E-02  0.1226708E+00
        -11   -1    0    0    0    0  0.00000000000E+00  0.00000000000E+00  0.45593999997E+02  0.45594000000E+02  0.51100000000E-03 0.  1.
         11   -1    0    0    0    0 -0.00000000000E+00 -0.00000000000E+00 -0.45593999997E+02  0.45594000000E+02  0.51100000000E-03 0. -1.
    9900012    2    1    2    0    0  0.16276753249E+02 -0.22914346589E+01 -0.89720135615E+01  0.72461537535E+02  0.69999957325E+02 0.  0.
        -12    1    1    2    0    0 -0.16276753249E+02  0.22914346589E+01  0.89720135615E+01  0.18726462465E+02  0.00000000000E+00 0.  1.
         11    1    3    3    0    0  0.22200313895E+02  0.55956806032E+01 -0.97278369046E+01  0.24875618376E+02  0.51100000000E-03 0. -1.
        -11    1    3    3    0    0 -0.24436848823E+02 -0.37167816616E+01 -0.89278785907E+01  0.26280811683E+02  0.51100000000E-03 0.  1.
        -12    1    3    3    0    0  0.18513288176E+02 -0.41703336005E+01  0.96837019339E+01  0.21305107476E+02  0.00000000000E+00 0.  1.
</event>
<event>
 7    1  0.1897242E-013  0.7246158E+02  0.7816164E-02  0.1226708E+00
        -11   -1    0    0    0    0  0.00000000000E+00  0.00000000000E+00  0.45593999997E+02  0.45594000000E+02  0.51100000000E-03 0. -1.
         11   -1    0    0    0    0 -0.00000000000E+00 -0.00000000000E+00 -0.45593999997E+02  0.45594000000E+02  0.51100000000E-03 0.  1.
    9900012    2    1    2    0    0  0.61325448981E+01 -0.11632927830E+02  0.13332132599E+02  0.72461578119E+02  0.70000010193E+02 0.  0.
        -12    1    1    2    0    0 -0.61325448981E+01  0.11632927830E+02 -0.13332132599E+02  0.18726421881E+02  0.00000000000E+00 0.  1.
         11    1    3    3    0    0  0.87139873606E+01 -0.11652434791E+02  0.33142681978E+02  0.36195996757E+02  0.51100000000E-03 0. -1.
        -11    1    3    3    0    0  0.10345194234E+02 -0.51391579114E+01 -0.19110073661E+02  0.22330000076E+02  0.51100000000E-03 0.  1.
         12    1    3    3    0    0 -0.12926636697E+02  0.51586648723E+01 -0.70047571766E+00  0.13935581286E+02  0.00000000000E+00 0. -1.
</event>
<event>
 7    1  0.1826069E-013  0.7246159E+02  0.7816164E-02  0.1226708E+00
        -11   -1    0    0    0    0  0.00000000000E+00  0.00000000000E+00  0.45593999997E+02  0.45594000000E+02  0.51100000000E-03 0.  1.
         11   -1    0    0    0    0 -0.00000000000E+00 -0.00000000000E+00 -0.45593999997E+02  0.45594000000E+02  0.51100000000E-03 0. -1.
    9900012    2    1    2    0    0  0.17900718002E+02 -0.36180451545E+01 -0.41415701049E+01  0.72461586605E+02  0.70000021248E+02 0.  0.
        -12    1    1    2    0    0 -0.17900718002E+02  0.36180451545E+01  0.41415701049E+01  0.18726413395E+02  0.00000000000E+00 0.  1.
         11    1    3    3    0    0  0.22013344923E+02  0.19759175174E+02  0.12727048137E+02  0.32202330860E+02  0.51100000000E-03 0. -1.
        -11    1    3    3    0    0 -0.12205849051E+02 -0.25365881718E+02 -0.11943048626E+02  0.30578540141E+02  0.51100000000E-03 0.  1.
        -12    1    3    3    0    0  0.80932221300E+01  0.19886613899E+01 -0.49255696163E+01  0.96807156045E+01  0.00000000000E+00 0.  1.
</event>
<event>
 7    1  0.1826069E-013  0.7246166E+02  0.7816164E-02  0.1226708E+00
        -11   -1    0    0    0    0  0.00000000000E+00  0.00000000000E+00  0.45593999997E+02  0.45594000000E+02  0.51100000000E-03 0. -1.
         11   -1    0    0    0    0 -0.00000000000E+00 -0.00000000000E+00 -0.45593999997E+02  0.45594000000E+02  0.51100000000E-03 0.  1.
    9900012    2    1    2    0    0  0.87517231329E+01  0.59717762690E+01  0.15440884403E+02  0.72461663446E+02  0.70000121347E+02 0.  0.
        -12    1    1    2    0    0 -0.87517231329E+01 -0.59717762690E+01 -0.15440884403E+02  0.18726336554E+02  0.00000000000E+00 0.  1.
         11    1    3    3    0    0  0.71769264309E+01 -0.24703197166E+02  0.51287021410E+01  0.26230894173E+02  0.51100000000E-03 0. -1.
        -11    1    3    3    0    0  0.12412565236E+01  0.13938854672E+02 -0.11932946732E+02  0.18390965317E+02  0.51100000000E-03 0.  1.
         12    1    3    3    0    0  0.33354017839E+00  0.16736118763E+02  0.22245128994E+02  0.27839803955E+02  0.00000000000E+00 0. -1.
</event>
<event>
 7    1  0.1826069E-013  0.7246164E+02  0.7816164E-02  0.1226708E+00
        -11   -1    0    0    0    0  0.00000000000E+00  0.00000000000E+00  0.45593999997E+02  0.45594000000E+02  0.51100000000E-03 0. -1.
         11   -1    0    0    0    0 -0.00000000000E+00 -0.00000000000E+00 -0.45593999997E+02  0.45594000000E+02  0.51100000000E-03 0.  1.
    9900012    2    1    2    0    0 -0.50920499723E+01 -0.35402196887E+01  0.17669594374E+02  0.72461636400E+02  0.70000086114E+02 0.  0.
        -12    1    1    2    0    0  0.50920499723E+01  0.35402196887E+01 -0.17669594374E+02  0.18726363600E+02  0.00000000000E+00 0.  1.
         11    1    3    3    0    0 -0.20103031188E+02 -0.34468689331E+01  0.82784267611E+01  0.22012385565E+02  0.51100000000E-03 0. -1.
        -11    1    3    3    0    0  0.30091467211E+02 -0.45055146038E+01 -0.28089201411E+01  0.30556277479E+02  0.51100000000E-03 0.  1.
         12    1    3    3    0    0 -0.15080485996E+02  0.44121638482E+01  0.12200087754E+02  0.19892973355E+02  0.00000000000E+00 0. -1.
</event>
<event>
 8    1  0.1826069E-013  0.7246155E+02  0.7816164E-02  0.1226708E+00
        -11   -1    0    0    0    0  0.00000000000E+00  0.00000000000E+00  0.45593999997E+02  0.45594000000E+02  0.51100000000E-03 0.  1.
         11   -1    0    0    0    0 -0.00000000000E+00 -0.00000000000E+00 -0.45593999997E+02  0.45594000000E+02  0.51100000000E-03 0. -1.
    9900012    2    1    2    0    0 -0.51939407497E+01 -0.17538946564E+02 -0.40110158715E+01  0.72461550379E+02  0.69999974056E+02 0.  0.
        -24    2    3    3    0    0  0.14230452382E+01 -0.19420146458E+01 -0.13789411506E+02  0.52899704599E+02  0.51014060791E+02 0.  0.
        -12    1    1    2    0    0  0.51939407497E+01  0.17538946564E+02  0.40110158715E+01  0.18726449621E+02  0.00000000000E+00 0.  1.
         11    1    4    4    0    0  0.24673856087E+02 -0.39428774875E+01 -0.15659100143E+02  0.29488181948E+02  0.51100000000E-03 0. -1.
        -11    1    3    3    0    0 -0.66169859879E+01 -0.15596931919E+02  0.97783956347E+01  0.19561845779E+02  0.51100000000E-03 0.  1.
        -12    1    4    4    0    0 -0.23250810849E+02  0.20008628417E+01  0.18696886366E+01  0.23411522651E+02  0.00000000000E+00 0.  1.
</event>
<event>
 7    1  0.1826069E-013  0.7246158E+02  0.7816164E-02  0.1226708E+00
        -11   -1    0    0    0    0  0.00000000000E+00  0.00000000000E+00  0.45593999997E+02  0.45594000000E+02  0.51100000000E-03 0. -1.
         11   -1    0    0    0    0 -0.00000000000E+00 -0.00000000000E+00 -0.45593999997E+02  0.45594000000E+02  0.51100000000E-03 0.  1.
    9900012    2    1    2    0    0 -0.16823063443E+02 -0.81167602341E+01  0.13347953439E+01  0.72461576452E+02  0.70000008021E+02 0.  0.
        -12    1    1    2    0    0  0.16823063443E+02  0.81167602341E+01 -0.13347953439E+01  0.18726423548E+02  0.00000000000E+00 0.  1.
         11    1    3    3    0    0  0.19005375727E+02 -0.13228373085E+02 -0.12024558963E+02  0.26091841245E+02  0.51100000000E-03 0. -1.
        -11    1    3    3    0    0 -0.22551250200E+02 -0.36563871902E+01 -0.35857365853E+01  0.23125431023E+02  0.51100000000E-03 0.  1.
         12    1    3    3    0    0 -0.13277188970E+02  0.87680000413E+01  0.16945090892E+02  0.23244304184E+02  0.00000000000E+00 0. -1.
</event>
<event>
 7    1  0.1826069E-013  0.7246158E+02  0.7816164E-02  0.1226708E+00
        -11   -1    0    0    0    0  0.00000000000E+00  0.00000000000E+00  0.45593999997E+02  0.45594000000E+02  0.51100000000E-03 0. -1.
         11   -1    0    0    0    0 -0.00000000000E+00 -0.00000000000E+00 -0.45593999997E+02  0.45594000000E+02  0.51100000000E-03 0.  1.
    9900012    2    1    2    0    0 -0.18039415243E+01  0.16842336744E+02  0.79850080940E+01  0.72461578391E+02  0.70000010548E+02 0.  0.
        -12    1    1    2    0    0  0.18039415243E+01 -0.16842336744E+02 -0.79850080940E+01  0.18726421609E+02  0.00000000000E+00 0.  1.
         11    1    3    3    0    0  0.18520700630E+02  0.15296082946E+02  0.60703664623E+01  0.24775710980E+02  0.51100000000E-03 0. -1.
        -11    1    3    3    0    0 -0.27758978442E+02  0.14433965631E+02 -0.42622203645E+01  0.31576364114E+02  0.51100000000E-03 0.  1.
         12    1    3    3    0    0  0.74343362883E+01 -0.12887711833E+02  0.61768619961E+01  0.16109503297E+02  0.00000000000E+00 0. -1.
</event>
<event>
 7    1  0.1826069E-013  0.7246152E+02  0.7816164E-02  0.1226708E+00
        -11   -1    0    0    0    0  0.00000000000E+00  0.00000000000E+00  0.45593999997E+02  0.45594000000E+02  0.51100000000E-03 0.  1.
         11   -1    0    0    0    0 -0.00000000000E+00 -0.00000000000E+00 -0.45593999997E+02  0.45594000000E+02  0.51100000000E-03 0. -1.
    9900012    2    1    2    0    0  0.29504094881E+01  0.11673410133E+02 -0.14342505766E+02  0.72461524306E+02  0.69999940092E+02 0.  0.
        -12    1    1    2    0    0 -0.29504094881E+01 -0.11673410133E+02  0.14342505766E+02  0.18726475694E+02  0.00000000000E+00 0.  1.
         11    1    3    3    0    0 -0.89156766602E+01 -0.88466776187E+01  0.14779008015E+02  0.19395155926E+02  0.51100000000E-03 0. -1.
        -11    1    3    3    0    0  0.16075302666E+02 -0.43493858155E+01 -0.20497015053E+02  0.26409470633E+02  0.51100000000E-03 0.  1.
         12    1    3    3    0    0 -0.42092165180E+01  0.24869473567E+02 -0.86244987283E+01  0.26656897747E+02  0.00000000000E+00 0. -1.
</event>
<event>
 7    1  0.1826069E-013  0.7246157E+02  0.7816164E-02  0.1226708E+00
        -11   -1    0    0    0    0  0.00000000000E+00  0.00000000000E+00  0.45593999997E+02  0.45594000000E+02  0.51100000000E-03 0.  1.
         11   -1    0    0    0    0 -0.00000000000E+00 -0.00000000000E+00 -0.45593999997E+02  0.45594000000E+02  0.51100000000E-03 0. -1.
    9900012    2    1    2    0    0  0.22627251614E+01 -0.35657036418E+01 -0.18244044891E+02  0.72461565700E+02  0.69999994015E+02 0.  0.
        -12    1    1    2    0    0 -0.22627251614E+01  0.35657036418E+01  0.18244044891E+02  0.18726434300E+02  0.00000000000E+00 0.  1.
         11    1    3    3    0    0  0.13310765928E+02  0.10918526985E+02 -0.28846155509E+02  0.33593026197E+02  0.51100000000E-03 0. -1.
        -11    1    3    3    0    0  0.67660469218E+01 -0.16904525242E+02  0.43185012282E+00  0.18213425252E+02  0.51100000000E-03 0.  1.
         12    1    3    3    0    0 -0.17814087688E+02  0.24202946150E+01  0.10170260495E+02  0.20655114251E+02  0.00000000000E+00 0. -1.
</event>
<event>
 7    1  0.1826069E-013  0.7246156E+02  0.7816164E-02  0.1226708E+00
        -11   -1    0    0    0    0  0.00000000000E+00  0.00000000000E+00  0.45593999997E+02  0.45594000000E+02  0.51100000000E-03 0.  1.
         11   -1    0    0    0    0 -0.00000000000E+00 -0.00000000000E+00 -0.45593999997E+02  0.45594000000E+02  0.51100000000E-03 0. -1.
    9900012    2    1    2    0    0 -0.60166350219E+01 -0.16037534405E+02 -0.75681655837E+01  0.72461560480E+02  0.69999987215E+02 0.  0.
        -12    1    1    2    0    0  0.60166350219E+01  0.16037534405E+02  0.75681655837E+01  0.18726439520E+02  0.00000000000E+00 0.  1.
         11    1    3    3    0    0  0.63608567079E+01  0.17151580907E+02  0.15921787026E+02  0.24251608772E+02  0.51100000000E-03 0. -1.
        -11    1    3    3    0    0 -0.10121924372E+02 -0.11756195205E+02  0.10516157122E+01  0.15548870523E+02  0.51100000000E-03 0.  1.
         12    1    3    3    0    0 -0.22555673581E+01 -0.21432920108E+02 -0.24541568322E+02  0.32661081185E+02  0.00000000000E+00 0. -1.
</event>
<event>
 8    1  0.1826069E-013  0.7246156E+02  0.7816164E-02  0.1226708E+00
        -11   -1    0    0    0    0  0.00000000000E+00  0.00000000000E+00  0.45593999997E+02  0.45594000000E+02  0.51100000000E-03 0. -1.
         11   -1    0    0    0    0 -0.00000000000E+00 -0.00000000000E+00 -0.45593999997E+02  0.45594000000E+02  0.51100000000E-03 0.  1.
    9900012    2    1    2    0    0  0.11870344893E+02  0.15104989530E+01  0.14404606902E+02  0.72461564275E+02  0.69999992158E+02 0.  0.
        -24    2    3    3    0    0  0.36858011526E+01  0.32279233616E+01  0.26936199827E+02  0.57395804277E+02  0.50445166945E+02 0.  0.
        -12    1    1    2    0    0 -0.11870344893E+02 -0.15104989530E+01 -0.14404606902E+02  0.18726435725E+02  0.00000000000E+00 0.  1.
         11    1    4    4    0    0 -0.49691546758E+01 -0.10837120350E+02  0.36440743573E+02  0.38341406705E+02  0.51100000000E-03 0. -1.
        -11    1    3    3    0    0  0.81845437403E+01 -0.17174244086E+01 -0.12531592925E+02  0.15065759998E+02  0.51100000000E-03 0.  1.
        -12    1    4    4    0    0  0.86549558284E+01  0.14065043711E+02 -0.95045437466E+01  0.19054397572E+02  0.00000000000E+00 0.  1.
</event>
<event>
 7    1  0.1826069E-013  0.7246163E+02  0.7816164E-02  0.1226708E+00
        -11   -1    0    0    0    0  0.00000000000E+00  0.00000000000E+00  0.45593999997E+02  0.45594000000E+02  0.51100000000E-03 0.  1.
         11   -1    0    0    0    0 -0.00000000000E+00 -0.00000000000E+00 -0.45593999997E+02  0.45594000000E+02  0.51100000000E-03 0. -1.
    9900012    2    1    2    0    0 -0.25323255223E+01 -0.14851121245E+02 -0.11122434527E+02  0.72461627565E+02  0.70000074605E+02 0.  0.
        -12    1    1    2    0    0  0.25323255223E+01  0.14851121245E+02  0.11122434527E+02  0.18726372435E+02  0.00000000000E+00 0.  1.
         11    1    3    3    0    0 -0.18063774306E+02  0.10743095606E+02 -0.19217266603E+02  0.28478366901E+02  0.51100000000E-03 0. -1.
        -11    1    3    3    0    0  0.15249036250E+01 -0.28554841848E+02  0.28519551380E+01  0.28737396758E+02  0.51100000000E-03 0.  1.
         12    1    3    3    0    0  0.14006545159E+02  0.29606249974E+01  0.52428769376E+01  0.15245863906E+02  0.00000000000E+00 0. -1.
</event>
<event>
 7    1  0.1826069E-013  0.7246161E+02  0.7816164E-02  0.1226708E+00
        -11   -1    0    0    0    0  0.00000000000E+00  0.00000000000E+00  0.45593999997E+02  0.45594000000E+02  0.51100000000E-03 0. -1.
         11   -1    0    0    0    0 -0.00000000000E+00 -0.00000000000E+00 -0.45593999997E+02  0.45594000000E+02  0.51100000000E-03 0.  1.
    9900012    2    1    2    0    0  0.12874939750E+02  0.66889066969E+00  0.13581832063E+02  0.72461610853E+02  0.70000052835E+02 0.  0.
        -12    1    1    2    0    0 -0.12874939750E+02 -0.66889066969E+00 -0.13581832063E+02  0.18726389147E+02  0.00000000000E+00 0.  1.
         11    1    3    3    0    0 -0.18881753314E+02  0.10518268165E+02  0.10307143343E+02  0.23945600380E+02  0.51100000000E-03 0. -1.
        -11    1    3    3    0    0  0.19334955029E+02 -0.19883253933E+02  0.12114309492E+02  0.30264513340E+02  0.51100000000E-03 0.  1.
        -12    1    3    3    0    0  0.12421738035E+02  0.10033876438E+02 -0.88396207723E+01  0.18251497133E+02  0.00000000000E+00 0.  1.
</event>
<event>
 7    1  0.1826069E-013  0.7246159E+02  0.7816164E-02  0.1226708E+00
        -11   -1    0    0    0    0  0.00000000000E+00  0.00000000000E+00  0.45593999997E+02  0.45594000000E+02  0.51100000000E-03 0. -1.
         11   -1    0    0    0    0 -0.00000000000E+00 -0.00000000000E+00 -0.45593999997E+02  0.45594000000E+02  0.51100000000E-03 0.  1.
    9900012    2    1    2    0    0  0.30510127203E+01 -0.83924908290E+01  0.16460127547E+02  0.72461591380E+02  0.70000027468E+02 0.  0.
        -12    1    1    2    0    0 -0.30510127203E+01  0.83924908290E+01 -0.16460127547E+02  0.18726408620E+02  0.00000000000E+00 0.  1.
         11    1    3    3    0    0 -0.29830444429E+02 -0.42532058791E+01  0.12250747449E+02  0.32527311423E+02  0.51100000000E-03 0.  1.
        -11    1    3    3    0    0  0.15915973487E+02 -0.11434054522E+02  0.78507938880E+01  0.21111389812E+02  0.51100000000E-03 0. -1.
         12    1    3    3    0    0  0.16965483663E+02  0.72947695723E+01 -0.36414137900E+01  0.18822890145E+02  0.00000000000E+00 0. -1.
</event>
<event>
 7    1  0.1826069E-013  0.7246161E+02  0.7816164E-02  0.1226708E+00
        -11   -1    0    0    0    0  0.00000000000E+00  0.00000000000E+00  0.45593999997E+02  0.45594000000E+02  0.51100000000E-03 0. -1.
         11   -1    0    0    0    0 -0.00000000000E+00 -0.00000000000E+00 -0.45593999997E+02  0.45594000000E+02  0.51100000000E-03 0.  1.
    9900012    2    1    2    0    0 -0.16500843219E+02 -0.61217682014E+01  0.63971758365E+01  0.72461608689E+02  0.70000050016E+02 0.  0.
        -12    1    1    2    0    0  0.16500843219E+02  0.61217682014E+01 -0.63971758365E+01  0.18726391311E+02  0.00000000000E+00 0.  1.
         11    1    3    3    0    0 -0.29762603587E+02  0.14534227808E+02  0.96736265743E+01  0.34505585078E+02  0.51100000000E-03 0. -1.
        -11    1    3    3    0    0 -0.30672369096E+01 -0.12248499792E+02 -0.12181347214E+02  0.17544768726E+02  0.51100000000E-03 0.  1.
         12    1    3    3    0    0  0.16328997277E+02 -0.84074962169E+01  0.89048964768E+01  0.20411254885E+02  0.00000000000E+00 0. -1.
</event>
<event>
 7    1  0.1826069E-013  0.7246156E+02  0.7816164E-02  0.1226708E+00
        -11   -1    0    0    0    0  0.00000000000E+00  0.00000000000E+00  0.45593999997E+02  0.45594000000E+02  0.51100000000E-03 0.  1.
         11   -1    0    0    0    0 -0.00000000000E+00 -0.00000000000E+00 -0.45593999997E+02  0.45594000000E+02  0.51100000000E-03 0. -1.
    9900012    2    1    2    0    0 -0.10890925692E+02  0.13998769419E+02 -0.60084576741E+01  0.72461564906E+02  0.69999992981E+02 0.  0.
        -12    1    1    2    0    0  0.10890925692E+02 -0.13998769419E+02  0.60084576741E+01  0.18726435094E+02  0.00000000000E+00 0.  1.
         11    1    3    3    0    0  0.20304594609E+02 -0.15938416430E+02 -0.11082503608E+02  0.28091485667E+02  0.51100000000E-03 0. -1.
        -11    1    3    3    0    0 -0.10102837033E+02  0.97648337226E+01 -0.23714402962E+01  0.14249316583E+02  0.51100000000E-03 0.  1.
         12    1    3    3    0    0 -0.21092683269E+02  0.20172352126E+02  0.74454862304E+01  0.30120762656E+02  0.00000000000E+00 0. -1.
</event>
<event>
 7    1  0.1826069E-013  0.7246166E+02  0.7816164E-02  0.1226708E+00
        -11   -1    0    0    0    0  0.00000000000E+00  0.00000000000E+00  0.45593999997E+02  0.45594000000E+02  0.51100000000E-03 0. -1.
         11   -1    0    0    0    0 -0.00000000000E+00 -0.00000000000E+00 -0.45593999997E+02  0.45594000000E+02  0.51100000000E-03 0.  1.
    9900012    2    1    2    0    0 -0.10239695299E+02  0.11640993093E+02  0.10502934440E+02  0.72461662615E+02  0.70000120265E+02 0.  0.
        -12    1    1    2    0    0  0.10239695299E+02 -0.11640993093E+02 -0.10502934440E+02  0.18726337385E+02  0.00000000000E+00 0.  1.
         11    1    3    3    0    0 -0.67470129719E+01  0.25377717249E+01  0.31138146995E+01  0.78522806633E+01  0.51100000000E-03 0. -1.
        -11    1    3    3    0    0  0.18118506624E+02 -0.13809603873E+02  0.20353266905E+02  0.30548992052E+02  0.51100000000E-03 0.  1.
        -12    1    3    3    0    0 -0.21611188951E+02  0.22912825241E+02 -0.12964147164E+02  0.34060389900E+02  0.00000000000E+00 0.  1.
</event>
<event>
 7    1  0.1826069E-013  0.7246155E+02  0.7816164E-02  0.1226708E+00
        -11   -1    0    0    0    0  0.00000000000E+00  0.00000000000E+00  0.45593999997E+02  0.45594000000E+02  0.51100000000E-03 0. -1.
         11   -1    0    0    0    0 -0.00000000000E+00 -0.00000000000E+00 -0.45593999997E+02  0.45594000000E+02  0.51100000000E-03 0.  1.
    9900012    2    1    2    0    0 -0.53610485354E+01  0.17478982247E+02  0.40526659641E+01  0.72461554443E+02  0.69999979351E+02 0.  0.
        -12    1    1    2    0    0  0.53610485354E+01 -0.17478982247E+02 -0.40526659641E+01  0.18726445557E+02  0.00000000000E+00 0.  1.
         11    1    3    3    0    0  0.67487634335E+01 -0.36263751530E+01  0.22853280936E+01  0.79949439891E+01  0.51100000000E-03 0. -1.
        -11    1    3    3    0    0 -0.95636720057E+01  0.64330390259E+01 -0.28495514127E+02  0.30738284581E+02  0.51100000000E-03 0.  1.
        -12    1    3    3    0    0 -0.25461399631E+01  0.14672318374E+02  0.30262851998E+02  0.33728325873E+02  0.00000000000E+00 0.  1.
</event>
<event>
 7    1  0.1826069E-013  0.7246164E+02  0.7816164E-02  0.1226708E+00
        -11   -1    0    0    0    0  0.00000000000E+00  0.00000000000E+00  0.45593999997E+02  0.45594000000E+02  0.51100000000E-03 0.  1.
         11   -1    0    0    0    0 -0.00000000000E+00 -0.00000000000E+00 -0.45593999997E+02  0.45594000000E+02  0.51100000000E-03 0. -1.
    9900012    2    1    2    0    0 -0.62694221052E+00 -0.77806419353E+01 -0.17021902318E+02  0.72461638795E+02  0.70000089235E+02 0.  0.
        -12    1    1    2    0    0  0.62694221052E+00  0.77806419353E+01  0.17021902318E+02  0.18726361205E+02  0.00000000000E+00 0.  1.
         11    1    3    3    0    0 -0.11374283131E+01 -0.16660163767E+01 -0.13451817247E+02  0.13602232951E+02  0.51100000000E-03 0. -1.
        -11    1    3    3    0    0  0.47962832547E+01  0.25955842182E+02 -0.16800336163E+01  0.26448678410E+02  0.51100000000E-03 0.  1.
        -12    1    3    3    0    0 -0.42857971522E+01 -0.32070467740E+02 -0.18900514544E+01  0.32410727434E+02  0.00000000000E+00 0.  1.
</event>
<event>
 7    1  0.1826069E-013  0.7246158E+02  0.7816164E-02  0.1226708E+00
        -11   -1    0    0    0    0  0.00000000000E+00  0.00000000000E+00  0.45593999997E+02  0.45594000000E+02  0.51100000000E-03 0. -1.
         11   -1    0    0    0    0 -0.00000000000E+00 -0.00000000000E+00 -0.45593999997E+02  0.45594000000E+02  0.51100000000E-03 0.  1.
    9900012    2    1    2    0    0 -0.65095676915E+01  0.16330134348E+02  0.64522081239E+01  0.72461581522E+02  0.70000014626E+02 0.  0.
        -12    1    1    2    0    0  0.65095676915E+01 -0.16330134348E+02 -0.64522081239E+01  0.18726418478E+02  0.00000000000E+00 0.  1.
         11    1    3    3    0    0  0.13767084876E+02 -0.47889856162E+01 -0.14249125808E+02  0.20383929841E+02  0.51100000000E-03 0. -1.
        -11    1    3    3    0    0 -0.79631592350E+01  0.19275838699E+02 -0.67612271880E+01  0.21924508110E+02  0.51100000000E-03 0.  1.
        -12    1    3    3    0    0 -0.12313493333E+02  0.18432812656E+01  0.27462561120E+02  0.30153143570E+02  0.00000000000E+00 0.  1.
</event>
<event>
 7    1  0.1826069E-013  0.7246154E+02  0.7816164E-02  0.1226708E+00
        -11   -1    0    0    0    0  0.00000000000E+00  0.00000000000E+00  0.45593999997E+02  0.45594000000E+02  0.51100000000E-03 0.  1.
         11   -1    0    0    0    0 -0.00000000000E+00 -0.00000000000E+00 -0.45593999997E+02  0.45594000000E+02  0.51100000000E-03 0. -1.
    9900012    2    1    2    0    0 -0.18483881729E+02 -0.22456088725E+01  0.19958878861E+01  0.72461542475E+02  0.69999963761E+02 0.  0.
        -12    1    1    2    0    0  0.18483881729E+02  0.22456088725E+01 -0.19958878861E+01  0.18726457525E+02  0.00000000000E+00 0.  1.
         11    1    3    3    0    0  0.14323193553E+02 -0.11246830759E+02 -0.14059901498E+02  0.23007083823E+02  0.51100000000E-03 0.  1.
        -11    1    3    3    0    0 -0.31098149811E+02 -0.50006838696E+01  0.58314984834E+01  0.32032922684E+02  0.51100000000E-03 0. -1.
        -12    1    3    3    0    0 -0.17089254701E+01  0.14001905756E+02  0.10224290900E+02  0.17421535968E+02  0.00000000000E+00 0.  1.
</event>
<event>
 7    1  0.1826069E-013  0.7246160E+02  0.7816164E-02  0.1226708E+00
        -11   -1    0    0    0    0  0.00000000000E+00  0.00000000000E+00  0.45593999997E+02  0.45594000000E+02  0.51100000000E-03 0.  1.
         11   -1    0    0    0    0 -0.00000000000E+00 -0.00000000000E+00 -0.45593999997E+02  0.45594000000E+02  0.51100000000E-03 0. -1.
    9900012    2    1    2    0    0  0.18389019853E+01 -0.18218237051E+02 -0.39232925145E+01  0.72461602965E+02  0.70000042560E+02 0.  0.
        -12    1    1    2    0    0 -0.18389019853E+01  0.18218237051E+02  0.39232925145E+01  0.18726397035E+02  0.00000000000E+00 0.  1.
         11    1    3    3    0    0 -0.16236116484E+02 -0.16332339235E+02  0.17693527310E+02  0.29041654435E+02  0.51100000000E-03 0. -1.
        -11    1    3    3    0    0  0.25682423834E+02 -0.76136782747E+01 -0.10473194138E+02  0.28761828637E+02  0.51100000000E-03 0.  1.
         12    1    3    3    0    0 -0.76074053646E+01  0.57277804586E+01 -0.11143625686E+02  0.14658119893E+02  0.00000000000E+00 0. -1.
</event>
<event>
 7    1  0.1826069E-013  0.7246139E+02  0.7816164E-02  0.1226708E+00
        -11   -1    0    0    0    0  0.00000000000E+00  0.00000000000E+00  0.45593999997E+02  0.45594000000E+02  0.51100000000E-03 0. -1.
         11   -1    0    0    0    0 -0.00000000000E+00 -0.00000000000E+00 -0.45593999997E+02  0.45594000000E+02  0.51100000000E-03 0.  1.
    9900012    2    1    2    0    0 -0.12872557218E+02  0.32427833661E+01  0.13208612539E+02  0.72461392767E+02  0.69999768737E+02 0.  0.
        -12    1    1    2    0    0  0.12872557218E+02 -0.32427833661E+01 -0.13208612539E+02  0.18726607233E+02  0.00000000000E+00 0.  1.
         11    1    3    3    0    0 -0.27082324178E+02  0.48200893222E+01 -0.83689499918E+01  0.28752823656E+02  0.51100000000E-03 0. -1.
        -11    1    3    3    0    0  0.82091639633E+01  0.10614913461E+02  0.26132657841E+02  0.29376564926E+02  0.51100000000E-03 0.  1.
        -12    1    3    3    0    0  0.60006029974E+01 -0.12192219417E+02 -0.45550953106E+01  0.14332004184E+02  0.00000000000E+00 0.  1.
</event>
<event>
 7    1  0.1826069E-013  0.7246155E+02  0.7816164E-02  0.1226708E+00
        -11   -1    0    0    0    0  0.00000000000E+00  0.00000000000E+00  0.45593999997E+02  0.45594000000E+02  0.51100000000E-03 0.  1.
         11   -1    0    0    0    0 -0.00000000000E+00 -0.00000000000E+00 -0.45593999997E+02  0.45594000000E+02  0.51100000000E-03 0. -1.
    9900012    2    1    2    0    0 -0.12089251909E+01  0.16208159456E+02 -0.93012848875E+01  0.72461552562E+02  0.69999976901E+02 0.  0.
        -12    1    1    2    0    0  0.12089251909E+01 -0.16208159456E+02  0.93012848875E+01  0.18726447438E+02  0.00000000000E+00 0.  1.
         11    1    3    3    0    0 -0.25982910965E+01  0.12656473961E+02 -0.29474082090E+02  0.32181655723E+02  0.51100000000E-03 0. -1.
        -11    1    3    3    0    0 -0.10092306741E+02  0.14556932658E+02  0.15921993934E+02  0.23817406132E+02  0.51100000000E-03 0.  1.
        -12    1    3    3    0    0  0.11481672646E+02 -0.11005247162E+02  0.42508032689E+01  0.16462490707E+02  0.00000000000E+00 0.  1.
</event>
<event>
 7    1  0.1826069E-013  0.7246158E+02  0.7816164E-02  0.1226708E+00
        -11   -1    0    0    0    0  0.00000000000E+00  0.00000000000E+00  0.45593999997E+02  0.45594000000E+02  0.51100000000E-03 0.  1.
         11   -1    0    0    0    0 -0.00000000000E+00 -0.00000000000E+00 -0.45593999997E+02  0.45594000000E+02  0.51100000000E-03 0. -1.
    9900012    2    1    2    0    0  0.62194140504E+01 -0.14631232497E+02 -0.98956833751E+01  0.72461584834E+02  0.70000018940E+02 0.  0.
        -12    1    1    2    0    0 -0.62194140504E+01  0.14631232497E+02  0.98956833751E+01  0.18726415166E+02  0.00000000000E+00 0.  1.
         11    1    3    3    0    0 -0.17471397250E+02 -0.24922324715E+01  0.92034134223E+01  0.19903863028E+02  0.51100000000E-03 0. -1.
        -11    1    3    3    0    0  0.27532986426E+02  0.66513014512E+01 -0.17538530858E+02  0.33315240018E+02  0.51100000000E-03 0.  1.
        -12    1    3    3    0    0 -0.38421751254E+01 -0.18790301477E+02 -0.15605659394E+01  0.19242481787E+02  0.00000000000E+00 0.  1.
</event>
<event>
 7    1  0.1826069E-013  0.7246149E+02  0.7816164E-02  0.1226708E+00
        -11   -1    0    0    0    0  0.00000000000E+00  0.00000000000E+00  0.45593999997E+02  0.45594000000E+02  0.51100000000E-03 0.  1.
         11   -1    0    0    0    0 -0.00000000000E+00 -0.00000000000E+00 -0.45593999997E+02  0.45594000000E+02  0.51100000000E-03 0. -1.
    9900012    2    1    2    0    0  0.87766633951E+01  0.90167630338E+01 -0.13869036197E+02  0.72461494693E+02  0.69999901516E+02 0.  0.
        -12    1    1    2    0    0 -0.87766633951E+01 -0.90167630338E+01  0.13869036197E+02  0.18726505307E+02  0.00000000000E+00 0.  1.
         11    1    3    3    0    0  0.24599121322E+02 -0.94586899632E+00 -0.83057811972E+01  0.25980712837E+02  0.51100000000E-03 0. -1.
        -11    1    3    3    0    0 -0.21609480478E+02 -0.10060629259E+02 -0.87578926601E+01  0.25394617377E+02  0.51100000000E-03 0.  1.
        -12    1    3    3    0    0  0.57870225504E+01  0.20023261289E+02  0.31946376600E+01  0.21086164479E+02  0.00000000000E+00 0.  1.
</event>
<event>
 7    1  0.1826069E-013  0.7246158E+02  0.7816164E-02  0.1226708E+00
        -11   -1    0    0    0    0  0.00000000000E+00  0.00000000000E+00  0.45593999997E+02  0.45594000000E+02  0.51100000000E-03 0.  1.
         11   -1    0    0    0    0 -0.00000000000E+00 -0.00000000000E+00 -0.45593999997E+02  0.45594000000E+02  0.51100000000E-03 0. -1.
    9900012    2    1    2    0    0 -0.58698811039E+01 -0.61558850612E+01 -0.16683180755E+02  0.72461576285E+02  0.70000007803E+02 0.  0.
        -12    1    1    2    0    0  0.58698811039E+01  0.61558850612E+01  0.16683180755E+02  0.18726423715E+02  0.00000000000E+00 0.  1.
         11    1    3    3    0    0  0.48690727690E+01 -0.11394486874E+01 -0.21432941775E+02  0.22008571201E+02  0.51100000000E-03 0. -1.
        -11    1    3    3    0    0  0.13054176971E+02  0.53145906732E+01  0.16734271118E+02  0.21879036554E+02  0.51100000000E-03 0.  1.
        -12    1    3    3    0    0 -0.23793130844E+02 -0.10331027047E+02 -0.11984510099E+02  0.28573968529E+02  0.00000000000E+00 0.  1.
</event>
<event>
 7    1  0.1826069E-013  0.7246153E+02  0.7816164E-02  0.1226708E+00
        -11   -1    0    0    0    0  0.00000000000E+00  0.00000000000E+00  0.45593999997E+02  0.45594000000E+02  0.51100000000E-03 0.  1.
         11   -1    0    0    0    0 -0.00000000000E+00 -0.00000000000E+00 -0.45593999997E+02  0.45594000000E+02  0.51100000000E-03 0. -1.
    9900012    2    1    2    0    0  0.14546016409E+02  0.24150999281E+01 -0.11543888529E+02  0.72461530407E+02  0.69999948040E+02 0.  0.
        -12    1    1    2    0    0 -0.14546016409E+02 -0.24150999281E+01  0.11543888529E+02  0.18726469593E+02  0.00000000000E+00 0.  1.
         11    1    3    3    0    0  0.23792656978E+02  0.63300317092E+01 -0.33361339845E+02  0.41462499009E+02  0.51100000000E-03 0. -1.
        -11    1    3    3    0    0  0.47966972363E+01 -0.52511557702E+01  0.36389133805E+01  0.79890319909E+01  0.51100000000E-03 0.  1.
         12    1    3    3    0    0 -0.14043337805E+02  0.13362239890E+01  0.18178537935E+02  0.23009999408E+02  0.00000000000E+00 0. -1.
</event>
<event>
 7    1  0.1826069E-013  0.7246157E+02  0.7816164E-02  0.1226708E+00
        -11   -1    0    0    0    0  0.00000000000E+00  0.00000000000E+00  0.45593999997E+02  0.45594000000E+02  0.51100000000E-03 0.  1.
         11   -1    0    0    0    0 -0.00000000000E+00 -0.00000000000E+00 -0.45593999997E+02  0.45594000000E+02  0.51100000000E-03 0. -1.
    9900012    2    1    2    0    0  0.11352702985E+02  0.22880859108E+01 -0.14715978996E+02  0.72461568412E+02  0.69999997548E+02 0.  0.
        -12    1    1    2    0    0 -0.11352702985E+02 -0.22880859108E+01  0.14715978996E+02  0.18726431588E+02  0.00000000000E+00 0.  1.
         11    1    3    3    0    0  0.13407624398E+02  0.10189717793E+02 -0.15893528846E+02  0.23155971155E+02  0.51100000000E-03 0. -1.
        -11    1    3    3    0    0  0.21729253203E+01 -0.25459067762E+02 -0.10688139796E+02  0.27696968577E+02  0.51100000000E-03 0.  1.
        -12    1    3    3    0    0 -0.42278467339E+01  0.17557435880E+02  0.11865689646E+02  0.21608628681E+02  0.00000000000E+00 0.  1.
</event>
<event>
 7    1  0.1826069E-013  0.7246153E+02  0.7816164E-02  0.1226708E+00
        -11   -1    0    0    0    0  0.00000000000E+00  0.00000000000E+00  0.45593999997E+02  0.45594000000E+02  0.51100000000E-03 0.  1.
         11   -1    0    0    0    0 -0.00000000000E+00 -0.00000000000E+00 -0.45593999997E+02  0.45594000000E+02  0.51100000000E-03 0. -1.
    9900012    2    1    2    0    0  0.86926266993E+01 -0.16538612505E+02 -0.12622183750E+01  0.72461530559E+02  0.69999948237E+02 0.  0.
        -12    1    1    2    0    0 -0.86926266993E+01  0.16538612505E+02  0.12622183750E+01  0.18726469441E+02  0.00000000000E+00 0.  1.
         11    1    3    3    0    0  0.11609426402E+02 -0.73756291943E+01  0.88126580761E+01  0.16335287877E+02  0.51100000000E-03 0. -1.
        -11    1    3    3    0    0 -0.18149763148E+02  0.15153537650E+02 -0.13503246323E+02  0.27228317377E+02  0.51100000000E-03 0.  1.
        -12    1    3    3    0    0  0.15232963446E+02 -0.24316520960E+02  0.34283698720E+01  0.28897925305E+02  0.00000000000E+00 0.  1.
</event>
<event>
 7    1  0.1826069E-013  0.7246156E+02  0.7816164E-02  0.1226708E+00
        -11   -1    0    0    0    0  0.00000000000E+00  0.00000000000E+00  0.45593999997E+02  0.45594000000E+02  0.51100000000E-03 0. -1.
         11   -1    0    0    0    0 -0.00000000000E+00 -0.00000000000E+00 -0.45593999997E+02  0.45594000000E+02  0.51100000000E-03 0.  1.
    9900012    2    1    2    0    0 -0.83586763651E+00  0.40298518533E+01  0.18268583036E+02  0.72461561289E+02  0.69999988268E+02 0.  0.
        -12    1    1    2    0    0  0.83586763651E+00 -0.40298518533E+01 -0.18268583036E+02  0.18726438711E+02  0.00000000000E+00 0.  1.
         11    1    3    3    0    0 -0.16588980027E+02 -0.20048326105E+02 -0.21309571147E+01  0.26108822579E+02  0.51100000000E-03 0. -1.
        -11    1    3    3    0    0  0.20501968951E+02  0.53525352701E+01  0.15968937565E+02  0.26532759598E+02  0.51100000000E-03 0.  1.
        -12    1    3    3    0    0 -0.47488565605E+01  0.18725642688E+02  0.44306025858E+01  0.19819979112E+02  0.00000000000E+00 0.  1.
</event>
<event>
 7    1  0.1826069E-013  0.7246156E+02  0.7816164E-02  0.1226708E+00
        -11   -1    0    0    0    0  0.00000000000E+00  0.00000000000E+00  0.45593999997E+02  0.45594000000E+02  0.51100000000E-03 0.  1.
         11   -1    0    0    0    0 -0.00000000000E+00 -0.00000000000E+00 -0.45593999997E+02  0.45594000000E+02  0.51100000000E-03 0. -1.
    9900012    2    1    2    0    0 -0.14804126776E+02  0.76857820804E+01  0.85115212269E+01  0.72461563890E+02  0.69999991657E+02 0.  0.
        -12    1    1    2    0    0  0.14804126776E+02 -0.76857820804E+01 -0.85115212269E+01  0.18726436110E+02  0.00000000000E+00 0.  1.
         11    1    3    3    0    0 -0.47850195287E+01  0.79080299781E+01  0.26948696764E+02  0.28489745656E+02  0.51100000000E-03 0.  1.
        -11    1    3    3    0    0 -0.13010726258E+02 -0.69879248375E+01 -0.28134413063E+02  0.31775073406E+02  0.51100000000E-03 0. -1.
         12    1    3    3    0    0  0.29916190107E+01  0.67656769398E+01  0.96972375261E+01  0.12196744828E+02  0.00000000000E+00 0. -1.
</event>
<event>
 7    1  0.1826069E-013  0.7246155E+02  0.7816164E-02  0.1226708E+00
        -11   -1    0    0    0    0  0.00000000000E+00  0.00000000000E+00  0.45593999997E+02  0.45594000000E+02  0.51100000000E-03 0.  1.
         11   -1    0    0    0    0 -0.00000000000E+00 -0.00000000000E+00 -0.45593999997E+02  0.45594000000E+02  0.51100000000E-03 0. -1.
    9900012    2    1    2    0    0 -0.86329228907E+00 -0.16572508280E+01 -0.18632983156E+02  0.72461553055E+02  0.69999977543E+02 0.  0.
        -12    1    1    2    0    0  0.86329228907E+00  0.16572508280E+01  0.18632983156E+02  0.18726446945E+02  0.00000000000E+00 0.  1.
         11    1    3    3    0    0 -0.21655672141E+02  0.44026719814E+01 -0.31004342643E+02  0.38073887632E+02  0.51100000000E-03 0. -1.
        -11    1    3    3    0    0 -0.18647414449E+01  0.16818377611E+01  0.10019251094E+02  0.10329144769E+02  0.51100000000E-03 0.  1.
         12    1    3    3    0    0  0.22657121296E+02 -0.77417605705E+01  0.23521083936E+01  0.24058520654E+02  0.00000000000E+00 0. -1.
</event>
<event>
 7    1  0.1826069E-013  0.7246159E+02  0.7816164E-02  0.1226708E+00
        -11   -1    0    0    0    0  0.00000000000E+00  0.00000000000E+00  0.45593999997E+02  0.45594000000E+02  0.51100000000E-03 0. -1.
         11   -1    0    0    0    0 -0.00000000000E+00 -0.00000000000E+00 -0.45593999997E+02  0.45594000000E+02  0.51100000000E-03 0.  1.
    9900012    2    1    2    0    0 -0.12036295741E+02 -0.50086183181E+01  0.13443199845E+02  0.72461593652E+02  0.70000030428E+02 0.  0.
        -12    1    1    2    0    0  0.12036295741E+02  0.50086183181E+01 -0.13443199845E+02  0.18726406348E+02  0.00000000000E+00 0.  1.
         11    1    3    3    0    0  0.25200652624E+02  0.97185073650E+00 -0.86146235021E+01  0.26650124293E+02  0.51100000000E-03 0. -1.
        -11    1    3    3    0    0 -0.23474803214E+02 -0.84407551074E+01  0.85478121966E+01  0.26370017564E+02  0.51100000000E-03 0.  1.
         12    1    3    3    0    0 -0.13762145151E+02  0.24602860527E+01  0.13510011151E+02  0.19441451795E+02  0.00000000000E+00 0. -1.
</event>
<event>
 7    1  0.1826069E-013  0.7246156E+02  0.7816164E-02  0.1226708E+00
        -11   -1    0    0    0    0  0.00000000000E+00  0.00000000000E+00  0.45593999997E+02  0.45594000000E+02  0.51100000000E-03 0.  1.
         11   -1    0    0    0    0 -0.00000000000E+00 -0.00000000000E+00 -0.45593999997E+02  0.45594000000E+02  0.51100000000E-03 0. -1.
    9900012    2    1    2    0    0 -0.10101562015E+02  0.15466160243E+02  0.30717798478E+01  0.72461561491E+02  0.69999988532E+02 0.  0.
        -12    1    1    2    0    0  0.10101562015E+02 -0.15466160243E+02 -0.30717798478E+01  0.18726438509E+02  0.00000000000E+00 0.  1.
         11    1    3    3    0    0  0.18098623385E+02  0.17441098996E+02  0.16571926773E+02  0.30106159832E+02  0.51100000000E-03 0.  1.
        -11    1    3    3    0    0 -0.30396174526E+02 -0.33887324289E+01 -0.20962367197E+01  0.30656241484E+02  0.51100000000E-03 0. -1.
        -12    1    3    3    0    0  0.21959891264E+01  0.14137936766E+01 -0.11403910206E+02  0.11699160174E+02  0.00000000000E+00 0.  1.
</event>
<event>
 7    1  0.1826069E-013  0.7246125E+02  0.7816164E-02  0.1226709E+00
        -11   -1    0    0    0    0  0.00000000000E+00  0.00000000000E+00  0.45593999997E+02  0.45594000000E+02  0.51100000000E-03 0. -1.
         11   -1    0    0    0    0 -0.00000000000E+00 -0.00000000000E+00 -0.45593999997E+02  0.45594000000E+02  0.51100000000E-03 0.  1.
    9900012    2    1    2    0    0 -0.15276864812E+02 -0.23394332655E+00  0.10828380483E+02  0.72461250367E+02  0.69999583233E+02 0.  0.
        -12    1    1    2    0    0  0.15276864812E+02  0.23394332655E+00 -0.10828380483E+02  0.18726749633E+02  0.00000000000E+00 0.  1.
         11    1    3    3    0    0 -0.59751562096E+01 -0.13383121939E+02  0.36120111676E+02  0.38980417036E+02  0.51100000000E-03 0. -1.
        -11    1    3    3    0    0 -0.95452163974E+01  0.15587230394E+02 -0.17468280031E+02  0.25282676182E+02  0.51100000000E-03 0.  1.
         12    1    3    3    0    0  0.24350779530E+00 -0.24380517816E+01 -0.78234511621E+01  0.81981571479E+01  0.00000000000E+00 0. -1.
</event>
<event>
 7    1  0.1826069E-013  0.7246131E+02  0.7816164E-02  0.1226709E+00
        -11   -1    0    0    0    0  0.00000000000E+00  0.00000000000E+00  0.45593999997E+02  0.45594000000E+02  0.51100000000E-03 0.  1.
         11   -1    0    0    0    0 -0.00000000000E+00 -0.00000000000E+00 -0.45593999997E+02  0.45594000000E+02  0.51100000000E-03 0. -1.
    9900012    2    1    2    0    0  0.56547788188E+01  0.17602704896E+02 -0.29760948064E+01  0.72461310932E+02  0.69999662131E+02 0.  0.
        -12    1    1    2    0    0 -0.56547788188E+01 -0.17602704896E+02  0.29760948064E+01  0.18726689068E+02  0.00000000000E+00 0.  1.
         11    1    3    3    0    0 -0.73167190562E+01  0.35336576412E+02 -0.95910340594E+01  0.37338933366E+02  0.51100000000E-03 0. -1.
        -11    1    3    3    0    0 -0.78910092924E+01 -0.54888545663E+01 -0.12320625875E+01  0.96908993692E+01  0.51100000000E-03 0.  1.
         12    1    3    3    0    0  0.20862507167E+02 -0.12245016950E+02  0.78470018406E+01  0.25431478197E+02  0.00000000000E+00 0. -1.
</event>
<event>
 7    1  0.1826069E-013  0.7246159E+02  0.7816164E-02  0.1226708E+00
        -11   -1    0    0    0    0  0.00000000000E+00  0.00000000000E+00  0.45593999997E+02  0.45594000000E+02  0.51100000000E-03 0. -1.
         11   -1    0    0    0    0 -0.00000000000E+00 -0.00000000000E+00 -0.45593999997E+02  0.45594000000E+02  0.51100000000E-03 0.  1.
    9900012    2    1    2    0    0  0.58564037962E+01 -0.44024404306E+01  0.17233675421E+02  0.72461587752E+02  0.70000022742E+02 0.  0.
        -12    1    1    2    0    0 -0.58564037962E+01  0.44024404306E+01 -0.17233675421E+02  0.18726412248E+02  0.00000000000E+00 0.  1.
         11    1    3    3    0    0 -0.32966794302E+01  0.31054846730E+01  0.27580778467E+02  0.27950160490E+02  0.51100000000E-03 0. -1.
        -11    1    3    3    0    0 -0.13225854340E+02  0.17911959565E+01 -0.14737576681E+02  0.19882851221E+02  0.51100000000E-03 0.  1.
         12    1    3    3    0    0  0.22378937566E+02 -0.92991210601E+01  0.43904736349E+01  0.24628576041E+02  0.00000000000E+00 0. -1.
</event>
<event>
 7    1  0.1826069E-013  0.7246154E+02  0.7816164E-02  0.1226708E+00
        -11   -1    0    0    0    0  0.00000000000E+00  0.00000000000E+00  0.45593999997E+02  0.45594000000E+02  0.51100000000E-03 0. -1.
         11   -1    0    0    0    0 -0.00000000000E+00 -0.00000000000E+00 -0.45593999997E+02  0.45594000000E+02  0.51100000000E-03 0.  1.
    9900012    2    1    2    0    0 -0.10977591726E+02  0.96157224380E+01  0.11735015227E+02  0.72461542233E+02  0.69999963445E+02 0.  0.
        -12    1    1    2    0    0  0.10977591726E+02 -0.96157224380E+01 -0.11735015227E+02  0.18726457767E+02  0.00000000000E+00 0.  1.
         11    1    3    3    0    0 -0.10817924731E+02  0.24569220759E+02  0.34228519934E+02  0.43500180245E+02  0.51100000000E-03 0. -1.
        -11    1    3    3    0    0  0.36463263642E+01 -0.13589200268E+02 -0.15943444866E+02  0.21263948231E+02  0.51100000000E-03 0.  1.
         12    1    3    3    0    0 -0.38059933599E+01 -0.13642980532E+01 -0.65500598412E+01  0.76974137577E+01  0.00000000000E+00 0. -1.
</event>
<event>
 7    1  0.1826069E-013  0.7246161E+02  0.7816164E-02  0.1226708E+00
        -11   -1    0    0    0    0  0.00000000000E+00  0.00000000000E+00  0.45593999997E+02  0.45594000000E+02  0.51100000000E-03 0. -1.
         11   -1    0    0    0    0 -0.00000000000E+00 -0.00000000000E+00 -0.45593999997E+02  0.45594000000E+02  0.51100000000E-03 0.  1.
    9900012    2    1    2    0    0  0.10889803727E+01 -0.56769546322E+01  0.17811910537E+02  0.72461605549E+02  0.70000045926E+02 0.  0.
        -12    1    1    2    0    0 -0.10889803727E+01  0.56769546322E+01 -0.17811910537E+02  0.18726394451E+02  0.00000000000E+00 0.  1.
         11    1    3    3    0    0 -0.21170974814E+02 -0.15449040096E+02 -0.67772686531E+01  0.27070544604E+02  0.51100000000E-03 0. -1.
        -11    1    3    3    0    0  0.18400970741E+02  0.55329492216E+01 -0.92865710790E+00  0.19237246570E+02  0.51100000000E-03 0.  1.
         12    1    3    3    0    0  0.38589844457E+01  0.42391362427E+01  0.25517836298E+02  0.26153814375E+02  0.00000000000E+00 0. -1.
</event>
<event>
 7    1  0.1826069E-013  0.7246116E+02  0.7816164E-02  0.1226709E+00
        -11   -1    0    0    0    0  0.00000000000E+00  0.00000000000E+00  0.45593999997E+02  0.45594000000E+02  0.51100000000E-03 0.  1.
         11   -1    0    0    0    0 -0.00000000000E+00 -0.00000000000E+00 -0.45593999997E+02  0.45594000000E+02  0.51100000000E-03 0. -1.
    9900012    2    1    2    0    0 -0.46960035058E+01  0.12859907980E+02 -0.12777510139E+02  0.72461162372E+02  0.69999468604E+02 0.  0.
        -12    1    1    2    0    0  0.46960035058E+01 -0.12859907980E+02  0.12777510139E+02  0.18726837628E+02  0.00000000000E+00 0.  1.
         11    1    3    3    0    0 -0.17569191796E+02  0.10925854632E+02 -0.34928989369E+01  0.20982162496E+02  0.51100000000E-03 0. -1.
        -11    1    3    3    0    0  0.30629488825E+02  0.33224225116E+01  0.11616399557E+01  0.30831047414E+02  0.51100000000E-03 0.  1.
        -12    1    3    3    0    0 -0.17756300535E+02 -0.13883691629E+01 -0.10446251157E+02  0.20647952462E+02  0.00000000000E+00 0.  1.
</event>
<event>
 7    1  0.1826069E-013  0.7246155E+02  0.7816164E-02  0.1226708E+00
        -11   -1    0    0    0    0  0.00000000000E+00  0.00000000000E+00  0.45593999997E+02  0.45594000000E+02  0.51100000000E-03 0.  1.
         11   -1    0    0    0    0 -0.00000000000E+00 -0.00000000000E+00 -0.45593999997E+02  0.45594000000E+02  0.51100000000E-03 0. -1.
    9900012    2    1    2    0    0  0.14368106166E+00 -0.14844894814E+02 -0.11414399508E+02  0.72461546454E+02  0.69999968944E+02 0.  0.
        -12    1    1    2    0    0 -0.14368106166E+00  0.14844894814E+02  0.11414399508E+02  0.18726453546E+02  0.00000000000E+00 0.  1.
         11    1    3    3    0    0 -0.15942687818E+02  0.16703637186E+02 -0.19197865686E+02  0.30028966637E+02  0.51100000000E-03 0. -1.
        -11    1    3    3    0    0  0.11255729752E+02 -0.11866790835E+02  0.13683981853E+02  0.21325185500E+02  0.51100000000E-03 0.  1.
         12    1    3    3    0    0  0.48306391277E+01 -0.19681741165E+02 -0.59005156753E+01  0.21107394318E+02  0.00000000000E+00 0. -1.
</event>
<event>
 7    1  0.1826069E-013  0.7246158E+02  0.7816164E-02  0.1226708E+00
        -11   -1    0    0    0    0  0.00000000000E+00  0.00000000000E+00  0.45593999997E+02  0.45594000000E+02  0.51100000000E-03 0. -1.
         11   -1    0    0    0    0 -0.00000000000E+00 -0.00000000000E+00 -0.45593999997E+02  0.45594000000E+02  0.51100000000E-03 0.  1.
    9900012    2    1    2    0    0  0.10914817398E+02  0.78109387928E+01  0.13058901460E+02  0.72461577197E+02  0.70000008992E+02 0.  0.
        -12    1    1    2    0    0 -0.10914817398E+02 -0.78109387928E+01 -0.13058901460E+02  0.18726422803E+02  0.00000000000E+00 0.  1.
         11    1    3    3    0    0  0.23020164597E+02  0.14930968311E+02  0.28237737810E+02  0.39372980960E+02  0.51100000000E-03 0. -1.
        -11    1    3    3    0    0 -0.11595896061E+02 -0.35847278728E+01 -0.22148995676E+02  0.25256545470E+02  0.51100000000E-03 0.  1.
        -12    1    3    3    0    0 -0.50945113721E+00 -0.35353016458E+01  0.69701593253E+01  0.78320507664E+01  0.00000000000E+00 0.  1.
</event>
<event>
 7    1  0.1826069E-013  0.7246158E+02  0.7816164E-02  0.1226708E+00
        -11   -1    0    0    0    0  0.00000000000E+00  0.00000000000E+00  0.45593999997E+02  0.45594000000E+02  0.51100000000E-03 0. -1.
         11   -1    0    0    0    0 -0.00000000000E+00 -0.00000000000E+00 -0.45593999997E+02  0.45594000000E+02  0.51100000000E-03 0.  1.
    9900012    2    1    2    0    0  0.11692951998E+01  0.17873695295E+02  0.54628480814E+01  0.72461576318E+02  0.70000007847E+02 0.  0.
        -12    1    1    2    0    0 -0.11692951998E+01 -0.17873695295E+02 -0.54628480814E+01  0.18726423682E+02  0.00000000000E+00 0.  1.
         11    1    3    3    0    0  0.36104728343E+01  0.11178481435E+02 -0.16677505449E+02  0.20399341890E+02  0.51100000000E-03 0. -1.
        -11    1    3    3    0    0  0.53317795132E+01 -0.18451299725E+02  0.28204340685E+01  0.19412191605E+02  0.51100000000E-03 0.  1.
         12    1    3    3    0    0 -0.77729571478E+01  0.25146513585E+02  0.19319919462E+02  0.32650042823E+02  0.00000000000E+00 0. -1.
</event>
<event>
 7    1  0.1826069E-013  0.7246160E+02  0.7816164E-02  0.1226708E+00
        -11   -1    0    0    0    0  0.00000000000E+00  0.00000000000E+00  0.45593999997E+02  0.45594000000E+02  0.51100000000E-03 0. -1.
         11   -1    0    0    0    0 -0.00000000000E+00 -0.00000000000E+00 -0.45593999997E+02  0.45594000000E+02  0.51100000000E-03 0.  1.
    9900012    2    1    2    0    0  0.12502688863E+02 -0.75820795481E+00  0.13920696557E+02  0.72461604172E+02  0.70000044131E+02 0.  0.
        -12    1    1    2    0    0 -0.12502688863E+02  0.75820795481E+00 -0.13920696557E+02  0.18726395828E+02  0.00000000000E+00 0.  1.
         11    1    3    3    0    0  0.68420086426E+01 -0.64475910690E+01  0.29977803751E+02  0.31417403312E+02  0.51100000000E-03 0. -1.
        -11    1    3    3    0    0  0.64226820465E+01  0.20521578456E+02 -0.39060146698E+01  0.21855044677E+02  0.51100000000E-03 0.  1.
        -12    1    3    3    0    0 -0.76200182632E+00 -0.14832195342E+02 -0.12151092525E+02  0.19189156182E+02  0.00000000000E+00 0.  1.
</event>
<event>
 7    1  0.1826069E-013  0.7246155E+02  0.7816164E-02  0.1226708E+00
        -11   -1    0    0    0    0  0.00000000000E+00  0.00000000000E+00  0.45593999997E+02  0.45594000000E+02  0.51100000000E-03 0.  1.
         11   -1    0    0    0    0 -0.00000000000E+00 -0.00000000000E+00 -0.45593999997E+02  0.45594000000E+02  0.51100000000E-03 0. -1.
    9900012    2    1    2    0    0  0.12532404591E+02 -0.12652480062E+02 -0.57908021999E+01  0.72461553282E+02  0.69999977839E+02 0.  0.
        -12    1    1    2    0    0 -0.12532404591E+02  0.12652480062E+02  0.57908021999E+01  0.18726446718E+02  0.00000000000E+00 0.  1.
         11    1    3    3    0    0  0.65470755127E+01 -0.22544544477E+02 -0.13348802391E+02  0.27005762515E+02  0.51100000000E-03 0. -1.
        -11    1    3    3    0    0 -0.15733572209E+02  0.15744046299E+02  0.24756645568E+01  0.22395294229E+02  0.51100000000E-03 0.  1.
        -12    1    3    3    0    0  0.21718901288E+02 -0.58519818838E+01  0.50823356344E+01  0.23060496539E+02  0.00000000000E+00 0.  1.
</event>
<event>
 7    1  0.1826069E-013  0.7246157E+02  0.7816164E-02  0.1226708E+00
        -11   -1    0    0    0    0  0.00000000000E+00  0.00000000000E+00  0.45593999997E+02  0.45594000000E+02  0.51100000000E-03 0.  1.
         11   -1    0    0    0    0 -0.00000000000E+00 -0.00000000000E+00 -0.45593999997E+02  0.45594000000E+02  0.51100000000E-03 0. -1.
    9900012    2    1    2    0    0  0.52468502567E+01 -0.11453379017E+02 -0.13855320674E+02  0.72461568426E+02  0.69999997566E+02 0.  0.
        -12    1    1    2    0    0 -0.52468502567E+01  0.11453379017E+02  0.13855320674E+02  0.18726431574E+02  0.00000000000E+00 0.  1.
         11    1    3    3    0    0 -0.26402698108E+02  0.65108407712E+01 -0.44336477318E+01  0.27552690384E+02  0.51100000000E-03 0. -1.
        -11    1    3    3    0    0  0.16305302642E+02 -0.13933185579E+02  0.65215012721E+01  0.22417103598E+02  0.51100000000E-03 0.  1.
        -12    1    3    3    0    0  0.15344245723E+02 -0.40310342085E+01 -0.15943174215E+02  0.22491774444E+02  0.00000000000E+00 0.  1.
</event>
<event>
 7    1  0.1826069E-013  0.7246155E+02  0.7816164E-02  0.1226708E+00
        -11   -1    0    0    0    0  0.00000000000E+00  0.00000000000E+00  0.45593999997E+02  0.45594000000E+02  0.51100000000E-03 0.  1.
         11   -1    0    0    0    0 -0.00000000000E+00 -0.00000000000E+00 -0.45593999997E+02  0.45594000000E+02  0.51100000000E-03 0. -1.
    9900012    2    1    2    0    0 -0.13486642758E+02  0.12884305551E+02  0.16689002852E+01  0.72461545702E+02  0.69999967964E+02 0.  0.
        -12    1    1    2    0    0  0.13486642758E+02 -0.12884305551E+02 -0.16689002852E+01  0.18726454298E+02  0.00000000000E+00 0.  1.
         11    1    3    3    0    0  0.52121602711E+01 -0.20573028552E+02 -0.97102503772E+01  0.23338917737E+02  0.51100000000E-03 0. -1.
        -11    1    3    3    0    0 -0.11972589690E+02  0.31918290610E+02  0.18848763101E+02  0.38953768110E+02  0.51100000000E-03 0.  1.
         12    1    3    3    0    0 -0.67262133398E+01  0.15390434931E+01 -0.74696124381E+01  0.10168859855E+02  0.00000000000E+00 0. -1.
</event>
<event>
 7    1  0.1826069E-013  0.7246156E+02  0.7816164E-02  0.1226708E+00
        -11   -1    0    0    0    0  0.00000000000E+00  0.00000000000E+00  0.45593999997E+02  0.45594000000E+02  0.51100000000E-03 0.  1.
         11   -1    0    0    0    0 -0.00000000000E+00 -0.00000000000E+00 -0.45593999997E+02  0.45594000000E+02  0.51100000000E-03 0. -1.
    9900012    2    1    2    0    0  0.13718549456E+02  0.44371206761E+01 -0.11949605079E+02  0.72461556114E+02  0.69999981528E+02 0.  0.
        -12    1    1    2    0    0 -0.13718549456E+02 -0.44371206761E+01  0.11949605079E+02  0.18726443886E+02  0.00000000000E+00 0.  1.
         11    1    3    3    0    0  0.49701650405E+01  0.10660797535E+02 -0.79317889884E+01  0.14186910215E+02  0.51100000000E-03 0. -1.
        -11    1    3    3    0    0  0.30200114543E+02 -0.15665249748E+02  0.19896587442E+01  0.34079403021E+02  0.51100000000E-03 0.  1.
        -12    1    3    3    0    0 -0.21451730127E+02  0.94415728888E+01 -0.60074748344E+01  0.24195242879E+02  0.00000000000E+00 0.  1.
</event>
<event>
 7    1  0.1826069E-013  0.7246157E+02  0.7816164E-02  0.1226708E+00
        -11   -1    0    0    0    0  0.00000000000E+00  0.00000000000E+00  0.45593999997E+02  0.45594000000E+02  0.51100000000E-03 0. -1.
         11   -1    0    0    0    0 -0.00000000000E+00 -0.00000000000E+00 -0.45593999997E+02  0.45594000000E+02  0.51100000000E-03 0.  1.
    9900012    2    1    2    0    0 -0.16652372454E+02  0.74688517780E+01 -0.41945215130E+01  0.72461567719E+02  0.69999996646E+02 0.  0.
        -12    1    1    2    0    0  0.16652372454E+02 -0.74688517780E+01  0.41945215130E+01  0.18726432281E+02  0.00000000000E+00 0.  1.
         11    1    3    3    0    0 -0.26734963028E+02  0.69218484943E+01  0.23810923123E+02  0.36464095970E+02  0.51100000000E-03 0. -1.
        -11    1    3    3    0    0 -0.40932427219E+01 -0.49357805827E+01 -0.13693763190E+02  0.15120704894E+02  0.51100000000E-03 0.  1.
         12    1    3    3    0    0  0.14175833295E+02  0.54827838664E+01 -0.14311681446E+02  0.20876766856E+02  0.00000000000E+00 0. -1.
</event>
<event>
 7    1  0.1826069E-013  0.7246154E+02  0.7816164E-02  0.1226708E+00
        -11   -1    0    0    0    0  0.00000000000E+00  0.00000000000E+00  0.45593999997E+02  0.45594000000E+02  0.51100000000E-03 0. -1.
         11   -1    0    0    0    0 -0.00000000000E+00 -0.00000000000E+00 -0.45593999997E+02  0.45594000000E+02  0.51100000000E-03 0.  1.
    9900012    2    1    2    0    0 -0.11292699834E+01 -0.18009677498E+02 -0.50056505742E+01  0.72461540859E+02  0.69999961655E+02 0.  0.
        -12    1    1    2    0    0  0.11292699834E+01  0.18009677498E+02  0.50056505742E+01  0.18726459141E+02  0.00000000000E+00 0.  1.
         11    1    3    3    0    0 -0.34081861628E+01  0.94829312634E+01  0.24601121099E+02  0.26584899433E+02  0.51100000000E-03 0. -1.
        -11    1    3    3    0    0  0.11568673648E+02 -0.19606651152E+02 -0.17663647245E+02  0.28814222420E+02  0.51100000000E-03 0.  1.
         12    1    3    3    0    0 -0.92897574691E+01 -0.78859576092E+01 -0.11943124428E+02  0.17062419007E+02  0.00000000000E+00 0. -1.
</event>
<event>
 7    1  0.1826069E-013  0.7246156E+02  0.7816164E-02  0.1226708E+00
        -11   -1    0    0    0    0  0.00000000000E+00  0.00000000000E+00  0.45593999997E+02  0.45594000000E+02  0.51100000000E-03 0. -1.
         11   -1    0    0    0    0 -0.00000000000E+00 -0.00000000000E+00 -0.45593999997E+02  0.45594000000E+02  0.51100000000E-03 0.  1.
    9900012    2    1    2    0    0  0.17885534230E+02  0.53791003737E+01  0.13610407448E+01  0.72461561806E+02  0.69999988943E+02 0.  0.
        -12    1    1    2    0    0 -0.17885534230E+02 -0.53791003737E+01 -0.13610407448E+01  0.18726438194E+02  0.00000000000E+00 0.  1.
         11    1    3    3    0    0 -0.18524369177E+02 -0.10606394456E-01 -0.16279740663E+02  0.24661352806E+02  0.51100000000E-03 0. -1.
        -11    1    3    3    0    0  0.15465551803E+02 -0.44653725736E+01  0.18643569251E+02  0.24631392966E+02  0.51100000000E-03 0.  1.
        -12    1    3    3    0    0  0.20944351604E+02  0.98550793418E+01 -0.10027878434E+01  0.23168816034E+02  0.00000000000E+00 0.  1.
</event>
<event>
 7    1  0.1826069E-013  0.7246161E+02  0.7816164E-02  0.1226708E+00
        -11   -1    0    0    0    0  0.00000000000E+00  0.00000000000E+00  0.45593999997E+02  0.45594000000E+02  0.51100000000E-03 0. -1.
         11   -1    0    0    0    0 -0.00000000000E+00 -0.00000000000E+00 -0.45593999997E+02  0.45594000000E+02  0.51100000000E-03 0.  1.
    9900012    2    1    2    0    0  0.95764876032E+01  0.15952995106E+02 -0.21143777973E+01  0.72461607899E+02  0.70000048987E+02 0.  0.
        -12    1    1    2    0    0 -0.95764876032E+01 -0.15952995106E+02  0.21143777973E+01  0.18726392101E+02  0.00000000000E+00 0.  1.
         11    1    3    3    0    0  0.33937164808E+01  0.20115559266E+02  0.19998090466E+02  0.28567055478E+02  0.51100000000E-03 0. -1.
        -11    1    3    3    0    0  0.23148587334E+01 -0.18456701071E+02 -0.17032817293E+01  0.18679120811E+02  0.51100000000E-03 0.  1.
        -12    1    3    3    0    0  0.38679123890E+01  0.14294136910E+02 -0.20409186534E+02  0.25215431609E+02  0.00000000000E+00 0.  1.
</event>
<event>
 7    1  0.1826069E-013  0.7246155E+02  0.7816164E-02  0.1226708E+00
        -11   -1    0    0    0    0  0.00000000000E+00  0.00000000000E+00  0.45593999997E+02  0.45594000000E+02  0.51100000000E-03 0. -1.
         11   -1    0    0    0    0 -0.00000000000E+00 -0.00000000000E+00 -0.45593999997E+02  0.45594000000E+02  0.51100000000E-03 0.  1.
    9900012    2    1    2    0    0  0.45847766556E+01 -0.17361376256E+02  0.53143682228E+01  0.72461546195E+02  0.69999968607E+02 0.  0.
        -12    1    1    2    0    0 -0.45847766556E+01  0.17361376256E+02 -0.53143682228E+01  0.18726453805E+02  0.00000000000E+00 0.  1.
         11    1    3    3    0    0  0.27718236496E+02  0.60951924247E+01  0.39072005818E+01  0.28648180078E+02  0.51100000000E-03 0. -1.
        -11    1    3    3    0    0 -0.73298647255E+01 -0.26452627913E+02 -0.14004740064E+01  0.27485082647E+02  0.51100000000E-03 0.  1.
        -12    1    3    3    0    0 -0.15803595115E+02  0.29960592320E+01  0.28076416474E+01  0.16328283471E+02  0.00000000000E+00 0.  1.
</event>
<event>
 7    1  0.1826069E-013  0.7246158E+02  0.7816164E-02  0.1226708E+00
        -11   -1    0    0    0    0  0.00000000000E+00  0.00000000000E+00  0.45593999997E+02  0.45594000000E+02  0.51100000000E-03 0.  1.
         11   -1    0    0    0    0 -0.00000000000E+00 -0.00000000000E+00 -0.45593999997E+02  0.45594000000E+02  0.51100000000E-03 0. -1.
    9900012    2    1    2    0    0  0.13430549061E+02 -0.68147255400E+01 -0.11129183656E+02  0.72461578529E+02  0.70000010727E+02 0.  0.
        -12    1    1    2    0    0 -0.13430549061E+02  0.68147255400E+01  0.11129183656E+02  0.18726421471E+02  0.00000000000E+00 0.  1.
         11    1    3    3    0    0  0.44832962059E+01  0.20506357343E+02 -0.25345197572E+02  0.32908808495E+02  0.51100000000E-03 0. -1.
        -11    1    3    3    0    0  0.13876137741E+02 -0.65055307320E+01  0.39530600202E+01  0.15827059503E+02  0.51100000000E-03 0.  1.
         12    1    3    3    0    0 -0.49288848861E+01 -0.20815552151E+02  0.10262953895E+02  0.23725710531E+02  0.00000000000E+00 0. -1.
</event>
<event>
 7    1  0.1826069E-013  0.7246158E+02  0.7816164E-02  0.1226708E+00
        -11   -1    0    0    0    0  0.00000000000E+00  0.00000000000E+00  0.45593999997E+02  0.45594000000E+02  0.51100000000E-03 0.  1.
         11   -1    0    0    0    0 -0.00000000000E+00 -0.00000000000E+00 -0.45593999997E+02  0.45594000000E+02  0.51100000000E-03 0. -1.
    9900012    2    1    2    0    0  0.17827838111E+02  0.56855466501E+01 -0.72231378484E+00  0.72461575097E+02  0.70000006257E+02 0.  0.
        -12    1    1    2    0    0 -0.17827838111E+02 -0.56855466501E+01  0.72231378484E+00  0.18726424903E+02  0.00000000000E+00 0.  1.
         11    1    3    3    0    0  0.31528342174E+01  0.71303150310E+01 -0.74234297224E+01  0.10765178361E+02  0.51100000000E-03 0. -1.
        -11    1    3    3    0    0  0.37124074585E+02 -0.74108297158E+01  0.68299657648E+01  0.38467723399E+02  0.51100000000E-03 0.  1.
        -12    1    3    3    0    0 -0.22449070691E+02  0.59660613349E+01 -0.12884982726E+00  0.23228673338E+02  0.00000000000E+00 0.  1.
</event>
<event>
 7    1  0.1826069E-013  0.7246162E+02  0.7816164E-02  0.1226708E+00
        -11   -1    0    0    0    0  0.00000000000E+00  0.00000000000E+00  0.45593999997E+02  0.45594000000E+02  0.51100000000E-03 0. -1.
         11   -1    0    0    0    0 -0.00000000000E+00 -0.00000000000E+00 -0.45593999997E+02  0.45594000000E+02  0.51100000000E-03 0.  1.
    9900012    2    1    2    0    0 -0.12978781545E+02 -0.13018841034E+02 -0.35690784526E+01  0.72461619857E+02  0.70000064564E+02 0.  0.
        -12    1    1    2    0    0  0.12978781545E+02  0.13018841034E+02  0.35690784526E+01  0.18726380143E+02  0.00000000000E+00 0.  1.
         11    1    3    3    0    0  0.16656807394E+02 -0.15208989487E+02  0.21735376352E+02  0.31323939395E+02  0.51100000000E-03 0. -1.
        -11    1    3    3    0    0 -0.24844858793E+02  0.15358865191E+01 -0.13358380655E+02  0.28250173271E+02  0.51100000000E-03 0.  1.
         12    1    3    3    0    0 -0.47907301456E+01  0.65426193302E+00 -0.11946074150E+02  0.12887507191E+02  0.00000000000E+00 0. -1.
</event>
<event>
 7    1  0.1826069E-013  0.7246148E+02  0.7816164E-02  0.1226708E+00
        -11   -1    0    0    0    0  0.00000000000E+00  0.00000000000E+00  0.45593999997E+02  0.45594000000E+02  0.51100000000E-03 0. -1.
         11   -1    0    0    0    0 -0.00000000000E+00 -0.00000000000E+00 -0.45593999997E+02  0.45594000000E+02  0.51100000000E-03 0.  1.
    9900012    2    1    2    0    0 -0.14829352785E+02  0.52304212547E+01  0.10169334161E+02  0.72461484900E+02  0.69999888757E+02 0.  0.
        -12    1    1    2    0    0  0.14829352785E+02 -0.52304212547E+01 -0.10169334161E+02  0.18726515100E+02  0.00000000000E+00 0.  1.
         11    1    3    3    0    0 -0.16028283790E+02 -0.13055140868E+02  0.26781813446E+01  0.20845029142E+02  0.51100000000E-03 0. -1.
        -11    1    3    3    0    0 -0.10106772785E+02  0.30158358715E+02 -0.33177507260E+01  0.31979382837E+02  0.51100000000E-03 0.  1.
        -12    1    3    3    0    0  0.11305703790E+02 -0.11872796592E+02  0.10808903543E+02  0.19637072921E+02  0.00000000000E+00 0.  1.
</event>
<event>
 7    1  0.1826069E-013  0.7246158E+02  0.7816164E-02  0.1226708E+00
        -11   -1    0    0    0    0  0.00000000000E+00  0.00000000000E+00  0.45593999997E+02  0.45594000000E+02  0.51100000000E-03 0. -1.
         11   -1    0    0    0    0 -0.00000000000E+00 -0.00000000000E+00 -0.45593999997E+02  0.45594000000E+02  0.51100000000E-03 0.  1.
    9900012    2    1    2    0    0 -0.39755398155E+01  0.10641677209E+02  0.14887189490E+02  0.72461584925E+02  0.70000019059E+02 0.  0.
        -12    1    1    2    0    0  0.39755398155E+01 -0.10641677209E+02 -0.14887189490E+02  0.18726415075E+02  0.00000000000E+00 0.  1.
         11    1    3    3    0    0 -0.30749098848E+02  0.39448468009E+01  0.66522966655E+01  0.31706812319E+02  0.51100000000E-03 0. -1.
        -11    1    3    3    0    0  0.22407457670E+02  0.39306754677E+01 -0.76883799060E+01  0.24013653506E+02  0.51100000000E-03 0.  1.
        -12    1    3    3    0    0  0.43661013625E+01  0.27661549407E+01  0.15923272731E+02  0.16741119100E+02  0.00000000000E+00 0.  1.
</event>
<event>
 7    1  0.1826069E-013  0.7246171E+02  0.7816164E-02  0.1226708E+00
        -11   -1    0    0    0    0  0.00000000000E+00  0.00000000000E+00  0.45593999997E+02  0.45594000000E+02  0.51100000000E-03 0. -1.
         11   -1    0    0    0    0 -0.00000000000E+00 -0.00000000000E+00 -0.45593999997E+02  0.45594000000E+02  0.51100000000E-03 0.  1.
    9900012    2    1    2    0    0 -0.17021023584E+02 -0.32333513112E+01  0.71066129243E+01  0.72461714949E+02  0.70000188439E+02 0.  0.
        -12    1    1    2    0    0  0.17021023584E+02  0.32333513112E+01 -0.71066129243E+01  0.18726285051E+02  0.00000000000E+00 0.  1.
         11    1    3    3    0    0 -0.25299982020E+02 -0.11383455042E+02  0.22689479906E+02  0.35839707554E+02  0.51100000000E-03 0. -1.
        -11    1    3    3    0    0  0.10356577992E+02 -0.94680239883E+01 -0.17800735732E+01  0.14144640262E+02  0.51100000000E-03 0.  1.
         12    1    3    3    0    0 -0.20776195562E+01  0.17618127720E+02 -0.13802793409E+02  0.22477367133E+02  0.00000000000E+00 0. -1.
</event>
<event>
 7    1  0.1826069E-013  0.7246159E+02  0.7816164E-02  0.1226708E+00
        -11   -1    0    0    0    0  0.00000000000E+00  0.00000000000E+00  0.45593999997E+02  0.45594000000E+02  0.51100000000E-03 0.  1.
         11   -1    0    0    0    0 -0.00000000000E+00 -0.00000000000E+00 -0.45593999997E+02  0.45594000000E+02  0.51100000000E-03 0. -1.
    9900012    2    1    2    0    0 -0.17562952191E+02  0.38317065447E+01 -0.52477623258E+01  0.72461594201E+02  0.70000031143E+02 0.  0.
        -12    1    1    2    0    0  0.17562952191E+02 -0.38317065447E+01  0.52477623258E+01  0.18726405799E+02  0.00000000000E+00 0.  1.
         11    1    3    3    0    0 -0.59382290729E+01 -0.21645125372E+02 -0.27594648063E+02  0.35570192843E+02  0.51100000000E-03 0. -1.
        -11    1    3    3    0    0 -0.65175927723E+00  0.13028233701E+01  0.49288107898E+01  0.51395831496E+01  0.51100000000E-03 0.  1.
         12    1    3    3    0    0 -0.10972963841E+02  0.24174008547E+02  0.17418074948E+02  0.31751818209E+02  0.00000000000E+00 0. -1.
</event>
<event>
 7    1  0.1826069E-013  0.7246169E+02  0.7816164E-02  0.1226708E+00
        -11   -1    0    0    0    0  0.00000000000E+00  0.00000000000E+00  0.45593999997E+02  0.45594000000E+02  0.51100000000E-03 0.  1.
         11   -1    0    0    0    0 -0.00000000000E+00 -0.00000000000E+00 -0.45593999997E+02  0.45594000000E+02  0.51100000000E-03 0. -1.
    9900012    2    1    2    0    0  0.14846552348E+02  0.90545820431E+01 -0.69476052960E+01  0.72461687177E+02  0.70000152261E+02 0.  0.
        -12    1    1    2    0    0 -0.14846552348E+02 -0.90545820431E+01  0.69476052960E+01  0.18726312823E+02  0.00000000000E+00 0.  1.
         11    1    3    3    0    0  0.19644182796E+02  0.94168743413E+01 -0.13035536085E+02  0.25386938401E+02  0.51100000000E-03 0. -1.
        -11    1    3    3    0    0 -0.11320418806E+02 -0.11435648228E+02 -0.15247351509E+02  0.22167716631E+02  0.51100000000E-03 0.  1.
        -12    1    3    3    0    0  0.65227883587E+01  0.11073355930E+02  0.21335282298E+02  0.24907032145E+02  0.00000000000E+00 0.  1.
</event>
<event>
 7    1  0.1826069E-013  0.7246169E+02  0.7816164E-02  0.1226708E+00
        -11   -1    0    0    0    0  0.00000000000E+00  0.00000000000E+00  0.45593999997E+02  0.45594000000E+02  0.51100000000E-03 0.  1.
         11   -1    0    0    0    0 -0.00000000000E+00 -0.00000000000E+00 -0.45593999997E+02  0.45594000000E+02  0.51100000000E-03 0. -1.
    9900012    2    1    2    0    0  0.65343337406E+01  0.12090452254E+02 -0.12719983559E+02  0.72461694041E+02  0.70000161202E+02 0.  0.
        -12    1    1    2    0    0 -0.65343337406E+01 -0.12090452254E+02  0.12719983559E+02  0.18726305959E+02  0.00000000000E+00 0.  1.
         11    1    3    3    0    0 -0.98317983223E+01  0.25356337747E+00 -0.60127062148E+01  0.11527410330E+02  0.51100000000E-03 0. -1.
        -11    1    3    3    0    0  0.31353198799E+02 -0.11013814035E+02 -0.32697746501E+01  0.33391894242E+02  0.51100000000E-03 0.  1.
        -12    1    3    3    0    0 -0.14987066736E+02  0.22850702911E+02 -0.34375026944E+01  0.27542389469E+02  0.00000000000E+00 0.  1.
</event>
<event>
 7    1  0.1826069E-013  0.7246151E+02  0.7816164E-02  0.1226708E+00
        -11   -1    0    0    0    0  0.00000000000E+00  0.00000000000E+00  0.45593999997E+02  0.45594000000E+02  0.51100000000E-03 0.  1.
         11   -1    0    0    0    0 -0.00000000000E+00 -0.00000000000E+00 -0.45593999997E+02  0.45594000000E+02  0.51100000000E-03 0. -1.
    9900012    2    1    2    0    0 -0.15884068732E+02  0.98180407565E+01 -0.14085356869E+01  0.72461507094E+02  0.69999917670E+02 0.  0.
        -12    1    1    2    0    0  0.15884068732E+02 -0.98180407565E+01  0.14085356869E+01  0.18726492906E+02  0.00000000000E+00 0.  1.
         11    1    3    3    0    0 -0.25403437927E+02 -0.64647723484E+01  0.90728634649E+01  0.27738867889E+02  0.51100000000E-03 0. -1.
        -11    1    3    3    0    0  0.79535956050E+01  0.16201824010E+01  0.13976976905E+02  0.16162937781E+02  0.51100000000E-03 0.  1.
         12    1    3    3    0    0  0.15657735907E+01  0.14662630704E+02 -0.24458376057E+02  0.28559701424E+02  0.00000000000E+00 0. -1.
</event>
<event>
 7    1  0.1826069E-013  0.7246156E+02  0.7816164E-02  0.1226708E+00
        -11   -1    0    0    0    0  0.00000000000E+00  0.00000000000E+00  0.45593999997E+02  0.45594000000E+02  0.51100000000E-03 0.  1.
         11   -1    0    0    0    0 -0.00000000000E+00 -0.00000000000E+00 -0.45593999997E+02  0.45594000000E+02  0.51100000000E-03 0. -1.
    9900012    2    1    2    0    0 -0.14821207730E+02  0.10857988612E+02  0.36215453428E+01  0.72461555972E+02  0.69999981342E+02 0.  0.
        -12    1    1    2    0    0  0.14821207730E+02 -0.10857988612E+02 -0.36215453428E+01  0.18726444028E+02  0.00000000000E+00 0.  1.
         11    1    3    3    0    0 -0.16597155490E+02  0.33497060374E+02  0.41442139948E+01  0.37612406649E+02  0.51100000000E-03 0. -1.
        -11    1    3    3    0    0  0.78577296304E+00 -0.21009771296E+02  0.10613099614E+02  0.23551344181E+02  0.51100000000E-03 0.  1.
         12    1    3    3    0    0  0.99017479642E+00 -0.16293004660E+01 -0.11135768266E+02  0.11297805141E+02  0.00000000000E+00 0. -1.
</event>
<event>
 7    1  0.1826069E-013  0.7246156E+02  0.7816164E-02  0.1226708E+00
        -11   -1    0    0    0    0  0.00000000000E+00  0.00000000000E+00  0.45593999997E+02  0.45594000000E+02  0.51100000000E-03 0.  1.
         11   -1    0    0    0    0 -0.00000000000E+00 -0.00000000000E+00 -0.45593999997E+02  0.45594000000E+02  0.51100000000E-03 0. -1.
    9900012    2    1    2    0    0  0.10326505409E+02  0.61425543380E+01 -0.14363564677E+02  0.72461556718E+02  0.69999982315E+02 0.  0.
        -12    1    1    2    0    0 -0.10326505409E+02 -0.61425543380E+01  0.14363564677E+02  0.18726443282E+02  0.00000000000E+00 0.  1.
         11    1    3    3    0    0 -0.16620970796E+02  0.12888524928E+02  0.44599496057E+01  0.21500276644E+02  0.51100000000E-03 0. -1.
        -11    1    3    3    0    0  0.10893085458E+02 -0.20685580706E+02 -0.13096681719E+01  0.23415118854E+02  0.51100000000E-03 0.  1.
        -12    1    3    3    0    0  0.16054390746E+02  0.13939610116E+02 -0.17513846111E+02  0.27546161221E+02  0.00000000000E+00 0.  1.
</event>
<event>
 7    1  0.1826069E-013  0.7246166E+02  0.7816164E-02  0.1226708E+00
        -11   -1    0    0    0    0  0.00000000000E+00  0.00000000000E+00  0.45593999997E+02  0.45594000000E+02  0.51100000000E-03 0.  1.
         11   -1    0    0    0    0 -0.00000000000E+00 -0.00000000000E+00 -0.45593999997E+02  0.45594000000E+02  0.51100000000E-03 0. -1.
    9900012    2    1    2    0    0 -0.11804248966E+02  0.54850013145E+01 -0.13462920360E+02  0.72461661391E+02  0.70000118671E+02 0.  0.
        -12    1    1    2    0    0  0.11804248966E+02 -0.54850013145E+01  0.13462920360E+02  0.18726338609E+02  0.00000000000E+00 0.  1.
         11    1    3    3    0    0  0.11725690061E+02  0.26241803532E+02 -0.88112673122E+01  0.30062642797E+02  0.51100000000E-03 0. -1.
        -11    1    3    3    0    0 -0.17969343365E+02  0.10569574184E+01 -0.78941973971E+01  0.19655350741E+02  0.51100000000E-03 0.  1.
         12    1    3    3    0    0 -0.55605956612E+01 -0.21813759636E+02  0.32425443492E+01  0.22743667853E+02  0.00000000000E+00 0. -1.
</event>
<event>
 7    1  0.1826069E-013  0.7246153E+02  0.7816164E-02  0.1226708E+00
        -11   -1    0    0    0    0  0.00000000000E+00  0.00000000000E+00  0.45593999997E+02  0.45594000000E+02  0.51100000000E-03 0. -1.
         11   -1    0    0    0    0 -0.00000000000E+00 -0.00000000000E+00 -0.45593999997E+02  0.45594000000E+02  0.51100000000E-03 0.  1.
    9900012    2    1    2    0    0  0.13661572693E+02  0.12434024529E+02 -0.30719799099E+01  0.72461532233E+02  0.69999950419E+02 0.  0.
        -12    1    1    2    0    0 -0.13661572693E+02 -0.12434024529E+02  0.30719799099E+01  0.18726467767E+02  0.00000000000E+00 0.  1.
         11    1    3    3    0    0  0.17462257613E+02  0.68674016001E+01  0.31645089123E+02  0.36789989285E+02  0.51100000000E-03 0. -1.
        -11    1    3    3    0    0 -0.21563300793E+01  0.23695894390E+00 -0.52375933132E+01  0.56690645549E+01  0.51100000000E-03 0.  1.
         12    1    3    3    0    0 -0.16443548402E+01  0.53296639850E+01 -0.29479475720E+02  0.30002478394E+02  0.00000000000E+00 0. -1.
</event>
<event>
 7    1  0.1826069E-013  0.7246157E+02  0.7816164E-02  0.1226708E+00
        -11   -1    0    0    0    0  0.00000000000E+00  0.00000000000E+00  0.45593999997E+02  0.45594000000E+02  0.51100000000E-03 0. -1.
         11   -1    0    0    0    0 -0.00000000000E+00 -0.00000000000E+00 -0.45593999997E+02  0.45594000000E+02  0.51100000000E-03 0.  1.
    9900012    2    1    2    0    0  0.39988198246E+01  0.11290573205E+02  0.14394848940E+02  0.72461567363E+02  0.69999996182E+02 0.  0.
        -12    1    1    2    0    0 -0.39988198246E+01 -0.11290573205E+02 -0.14394848940E+02  0.18726432637E+02  0.00000000000E+00 0.  1.
         11    1    3    3    0    0 -0.54877313054E+01  0.34296975077E+02  0.18115948168E+02  0.39173782975E+02  0.51100000000E-03 0. -1.
        -11    1    3    3    0    0  0.81705304676E+01 -0.56914569985E+01 -0.10660606514E+02  0.14587624289E+02  0.51100000000E-03 0.  1.
         12    1    3    3    0    0  0.13160206624E+01 -0.17314944873E+02  0.69395072862E+01  0.18700160099E+02  0.00000000000E+00 0. -1.
</event>
<event>
 7    1  0.1826069E-013  0.7246158E+02  0.7816164E-02  0.1226708E+00
        -11   -1    0    0    0    0  0.00000000000E+00  0.00000000000E+00  0.45593999997E+02  0.45594000000E+02  0.51100000000E-03 0.  1.
         11   -1    0    0    0    0 -0.00000000000E+00 -0.00000000000E+00 -0.45593999997E+02  0.45594000000E+02  0.51100000000E-03 0. -1.
    9900012    2    1    2    0    0 -0.12403656003E+01  0.38330529299E+00 -0.18681364030E+02  0.72461580380E+02  0.70000013138E+02 0.  0.
        -12    1    1    2    0    0  0.12403656003E+01 -0.38330529299E+00  0.18681364030E+02  0.18726419620E+02  0.00000000000E+00 0.  1.
         11    1    3    3    0    0 -0.16009132229E+02  0.13805605193E+01  0.15759670897E+02  0.22507009777E+02  0.51100000000E-03 0. -1.
        -11    1    3    3    0    0  0.11146565342E+02  0.87758092457E+01 -0.36650372470E+02  0.39300261441E+02  0.51100000000E-03 0.  1.
        -12    1    3    3    0    0  0.36222012864E+01 -0.97730644720E+01  0.22093375426E+01  0.10654309162E+02  0.00000000000E+00 0.  1.
</event>
<event>
 7    1  0.1826069E-013  0.7246151E+02  0.7816164E-02  0.1226708E+00
        -11   -1    0    0    0    0  0.00000000000E+00  0.00000000000E+00  0.45593999997E+02  0.45594000000E+02  0.51100000000E-03 0.  1.
         11   -1    0    0    0    0 -0.00000000000E+00 -0.00000000000E+00 -0.45593999997E+02  0.45594000000E+02  0.51100000000E-03 0. -1.
    9900012    2    1    2    0    0 -0.93187640741E+01  0.81165460830E+01 -0.14069953137E+02  0.72461514332E+02  0.69999927099E+02 0.  0.
        -12    1    1    2    0    0  0.93187640741E+01 -0.81165460830E+01  0.14069953137E+02  0.18726485668E+02  0.00000000000E+00 0.  1.
         11    1    3    3    0    0 -0.16506979914E+02  0.31098932697E+01  0.56589261736E+01  0.17724989922E+02  0.51100000000E-03 0. -1.
        -11    1    3    3    0    0  0.22883983339E+02 -0.93108174983E+01  0.14371540542E+01  0.24747392347E+02  0.51100000000E-03 0.  1.
        -12    1    3    3    0    0 -0.15695767499E+02  0.14317470312E+02 -0.21166033365E+02  0.29989132063E+02  0.00000000000E+00 0.  1.
</event>
<event>
 7    1  0.1826069E-013  0.7246158E+02  0.7816164E-02  0.1226708E+00
        -11   -1    0    0    0    0  0.00000000000E+00  0.00000000000E+00  0.45593999997E+02  0.45594000000E+02  0.51100000000E-03 0.  1.
         11   -1    0    0    0    0 -0.00000000000E+00 -0.00000000000E+00 -0.45593999997E+02  0.45594000000E+02  0.51100000000E-03 0. -1.
    9900012    2    1    2    0    0 -0.77178441363E+01 -0.10138863407E+02 -0.13722874972E+02  0.72461575707E+02  0.70000007051E+02 0.  0.
        -12    1    1    2    0    0  0.77178441363E+01  0.10138863407E+02  0.13722874972E+02  0.18726424293E+02  0.00000000000E+00 0.  1.
         11    1    3    3    0    0 -0.23959603912E+02  0.88670208220E+01  0.12439585339E+00  0.25548036176E+02  0.51100000000E-03 0.  1.
        -11    1    3    3    0    0  0.28025171435E+02 -0.16135824439E+02 -0.73833513378E+01  0.33170603575E+02  0.51100000000E-03 0. -1.
         12    1    3    3    0    0 -0.11783411660E+02 -0.28700597907E+01 -0.64639194874E+01  0.13742935956E+02  0.00000000000E+00 0. -1.
</event>
<event>
 7    1  0.1826069E-013  0.7246152E+02  0.7816164E-02  0.1226708E+00
        -11   -1    0    0    0    0  0.00000000000E+00  0.00000000000E+00  0.45593999997E+02  0.45594000000E+02  0.51100000000E-03 0. -1.
         11   -1    0    0    0    0 -0.00000000000E+00 -0.00000000000E+00 -0.45593999997E+02  0.45594000000E+02  0.51100000000E-03 0.  1.
    9900012    2    1    2    0    0  0.13190020874E+01 -0.92695513466E+01  0.16217793594E+02  0.72461516675E+02  0.69999930150E+02 0.  0.
        -12    1    1    2    0    0 -0.13190020874E+01  0.92695513466E+01 -0.16217793594E+02  0.18726483325E+02  0.00000000000E+00 0.  1.
         11    1    3    3    0    0 -0.15947342062E+02 -0.54337881347E+01 -0.21128381206E+02  0.27023180142E+02  0.51100000000E-03 0. -1.
        -11    1    3    3    0    0  0.12066053419E+02 -0.11379462647E+02  0.26216668483E+02  0.31022500252E+02  0.51100000000E-03 0.  1.
         12    1    3    3    0    0  0.52002907298E+01  0.75436994350E+01  0.11129506316E+02  0.14415836281E+02  0.00000000000E+00 0. -1.
</event>
<event>
 7    1  0.1826069E-013  0.7246158E+02  0.7816164E-02  0.1226708E+00
        -11   -1    0    0    0    0  0.00000000000E+00  0.00000000000E+00  0.45593999997E+02  0.45594000000E+02  0.51100000000E-03 0.  1.
         11   -1    0    0    0    0 -0.00000000000E+00 -0.00000000000E+00 -0.45593999997E+02  0.45594000000E+02  0.51100000000E-03 0. -1.
    9900012    2    1    2    0    0  0.16419163479E+01  0.12983025876E+02 -0.13394922987E+02  0.72461579840E+02  0.70000012435E+02 0.  0.
        -12    1    1    2    0    0 -0.16419163479E+01 -0.12983025876E+02  0.13394922987E+02  0.18726420160E+02  0.00000000000E+00 0.  1.
         11    1    3    3    0    0  0.24666203861E+02 -0.39943191553E+01 -0.48533888546E+01  0.25454500232E+02  0.51100000000E-03 0. -1.
        -11    1    3    3    0    0 -0.13513269077E+02  0.28021078027E+02 -0.91270927795E+01  0.32420565661E+02  0.51100000000E-03 0.  1.
        -12    1    3    3    0    0 -0.95110184366E+01 -0.11043732995E+02  0.58555864727E+00  0.14586513946E+02  0.00000000000E+00 0.  1.
</event>
<event>
 7    1  0.1826069E-013  0.7246156E+02  0.7816164E-02  0.1226708E+00
        -11   -1    0    0    0    0  0.00000000000E+00  0.00000000000E+00  0.45593999997E+02  0.45594000000E+02  0.51100000000E-03 0. -1.
         11   -1    0    0    0    0 -0.00000000000E+00 -0.00000000000E+00 -0.45593999997E+02  0.45594000000E+02  0.51100000000E-03 0.  1.
    9900012    2    1    2    0    0 -0.77968980135E+01 -0.14036492036E+02  0.96366315012E+01  0.72461564301E+02  0.69999992192E+02 0.  0.
        -12    1    1    2    0    0  0.77968980135E+01  0.14036492036E+02 -0.96366315012E+01  0.18726435699E+02  0.00000000000E+00 0.  1.
         11    1    3    3    0    0 -0.14841096943E+02  0.14599990624E+02  0.36637788015E+01  0.21138617743E+02  0.51100000000E-03 0. -1.
        -11    1    3    3    0    0 -0.10677682380E+02 -0.26093172656E+02  0.14260006104E+02  0.31594530138E+02  0.51100000000E-03 0.  1.
         12    1    3    3    0    0  0.17721881309E+02 -0.25433100039E+01 -0.82871534043E+01  0.19728416420E+02  0.00000000000E+00 0. -1.
</event>
<event>
 7    1  0.1826069E-013  0.7246158E+02  0.7816164E-02  0.1226708E+00
        -11   -1    0    0    0    0  0.00000000000E+00  0.00000000000E+00  0.45593999997E+02  0.45594000000E+02  0.51100000000E-03 0. -1.
         11   -1    0    0    0    0 -0.00000000000E+00 -0.00000000000E+00 -0.45593999997E+02  0.45594000000E+02  0.51100000000E-03 0.  1.
    9900012    2    1    2    0    0  0.16468860996E+02  0.74393890709E+01  0.49102864290E+01  0.72461580025E+02  0.70000012677E+02 0.  0.
        -12    1    1    2    0    0 -0.16468860996E+02 -0.74393890709E+01 -0.49102864290E+01  0.18726419975E+02  0.00000000000E+00 0.  1.
         11    1    3    3    0    0  0.20965837546E+02 -0.83185531249E+01  0.15605667380E+02  0.27428115589E+02  0.51100000000E-03 0. -1.
        -11    1    3    3    0    0 -0.11437281982E+02  0.17983847471E+02 -0.22606691310E+02  0.31069159648E+02  0.51100000000E-03 0.  1.
        -12    1    3    3    0    0  0.69403054320E+01 -0.22259052750E+01  0.11911310358E+02  0.13964304789E+02  0.00000000000E+00 0.  1.
</event>
<event>
 7    1  0.1826069E-013  0.7246164E+02  0.7816164E-02  0.1226708E+00
        -11   -1    0    0    0    0  0.00000000000E+00  0.00000000000E+00  0.45593999997E+02  0.45594000000E+02  0.51100000000E-03 0. -1.
         11   -1    0    0    0    0 -0.00000000000E+00 -0.00000000000E+00 -0.45593999997E+02  0.45594000000E+02  0.51100000000E-03 0.  1.
    9900012    2    1    2    0    0 -0.29892535399E+00 -0.18059122479E+02 -0.49452140031E+01  0.72461644171E+02  0.70000096239E+02 0.  0.
        -12    1    1    2    0    0  0.29892535399E+00  0.18059122479E+02  0.49452140031E+01  0.18726355829E+02  0.00000000000E+00 0.  1.
         11    1    3    3    0    0  0.19133576802E+01 -0.43588174850E+01  0.18124497775E+02  0.18739200819E+02  0.51100000000E-03 0. -1.
        -11    1    3    3    0    0 -0.22075746639E+02 -0.13968635443E+01 -0.20600790071E+02  0.30227179313E+02  0.51100000000E-03 0.  1.
        -12    1    3    3    0    0  0.19863463605E+02 -0.12303441450E+02 -0.24689217066E+01  0.23495264039E+02  0.00000000000E+00 0.  1.
</event>
<event>
 7    1  0.1826069E-013  0.7246156E+02  0.7816164E-02  0.1226708E+00
        -11   -1    0    0    0    0  0.00000000000E+00  0.00000000000E+00  0.45593999997E+02  0.45594000000E+02  0.51100000000E-03 0.  1.
         11   -1    0    0    0    0 -0.00000000000E+00 -0.00000000000E+00 -0.45593999997E+02  0.45594000000E+02  0.51100000000E-03 0. -1.
    9900012    2    1    2    0    0  0.65217372832E+01  0.82729213931E+01 -0.15482413402E+02  0.72461563865E+02  0.69999991624E+02 0.  0.
        -12    1    1    2    0    0 -0.65217372832E+01 -0.82729213931E+01  0.15482413402E+02  0.18726436135E+02  0.00000000000E+00 0.  1.
         11    1    3    3    0    0 -0.16056314587E+02  0.24599193173E+02 -0.75905085968E+01  0.30340424584E+02  0.51100000000E-03 0. -1.
        -11    1    3    3    0    0  0.20327194487E+02 -0.46642147283E+01 -0.17198351627E+02  0.27032074165E+02  0.51100000000E-03 0.  1.
         12    1    3    3    0    0  0.22508573834E+01 -0.11662057052E+02  0.93064468213E+01  0.15089065116E+02  0.00000000000E+00 0. -1.
</event>
<event>
 7    1  0.1826069E-013  0.7246157E+02  0.7816164E-02  0.1226708E+00
        -11   -1    0    0    0    0  0.00000000000E+00  0.00000000000E+00  0.45593999997E+02  0.45594000000E+02  0.51100000000E-03 0.  1.
         11   -1    0    0    0    0 -0.00000000000E+00 -0.00000000000E+00 -0.45593999997E+02  0.45594000000E+02  0.51100000000E-03 0. -1.
    9900012    2    1    2    0    0 -0.69902036611E+01  0.30257360137E+01 -0.17107336956E+02  0.72461574731E+02  0.70000005780E+02 0.  0.
        -12    1    1    2    0    0  0.69902036611E+01 -0.30257360137E+01  0.17107336956E+02  0.18726425269E+02  0.00000000000E+00 0.  1.
         11    1    3    3    0    0  0.23088255324E+01 -0.18986539408E+02  0.14262121420E+02  0.23858488253E+02  0.51100000000E-03 0. -1.
        -11    1    3    3    0    0  0.93065121209E+01  0.89968259228E+01 -0.18265245978E+02  0.22386899192E+02  0.51100000000E-03 0.  1.
         12    1    3    3    0    0 -0.18605541314E+02  0.13015449499E+02 -0.13104212398E+02  0.26216187286E+02  0.00000000000E+00 0. -1.
</event>
<event>
 7    1  0.1826069E-013  0.7246156E+02  0.7816164E-02  0.1226708E+00
        -11   -1    0    0    0    0  0.00000000000E+00  0.00000000000E+00  0.45593999997E+02  0.45594000000E+02  0.51100000000E-03 0. -1.
         11   -1    0    0    0    0 -0.00000000000E+00 -0.00000000000E+00 -0.45593999997E+02  0.45594000000E+02  0.51100000000E-03 0.  1.
    9900012    2    1    2    0    0  0.37389941959E+01  0.27593051920E+01  0.18140720799E+02  0.72461558965E+02  0.69999985241E+02 0.  0.
        -12    1    1    2    0    0 -0.37389941959E+01 -0.27593051920E+01 -0.18140720799E+02  0.18726441035E+02  0.00000000000E+00 0.  1.
         11    1    3    3    0    0 -0.20377251508E+01  0.10798115778E+02  0.90124454750E+00  0.11025600671E+02  0.51100000000E-03 0. -1.
        -11    1    3    3    0    0 -0.70878483701E+01 -0.22653830279E+02  0.29926202633E+02  0.38197005447E+02  0.51100000000E-03 0.  1.
        -12    1    3    3    0    0  0.12864567717E+02  0.14615019692E+02 -0.12686726382E+02  0.23238952847E+02  0.00000000000E+00 0.  1.
</event>
<event>
 7    1  0.1826069E-013  0.7246171E+02  0.7816164E-02  0.1226708E+00
        -11   -1    0    0    0    0  0.00000000000E+00  0.00000000000E+00  0.45593999997E+02  0.45594000000E+02  0.51100000000E-03 0.  1.
         11   -1    0    0    0    0 -0.00000000000E+00 -0.00000000000E+00 -0.45593999997E+02  0.45594000000E+02  0.51100000000E-03 0. -1.
    9900012    2    1    2    0    0 -0.13011998653E+02  0.13466939059E+02 -0.58919190657E-01  0.72461707574E+02  0.70000178832E+02 0.  0.
        -12    1    1    2    0    0  0.13011998653E+02 -0.13466939059E+02  0.58919190657E-01  0.18726292426E+02  0.00000000000E+00 0.  1.
         11    1    3    3    0    0  0.16955036905E+02 -0.14151862900E+02  0.52938768505E+01  0.22710650197E+02  0.51100000000E-03 0. -1.
        -11    1    3    3    0    0 -0.29693884714E+02  0.11504482128E+02  0.22643851723E+01  0.31925026842E+02  0.51100000000E-03 0.  1.
        -12    1    3    3    0    0 -0.27315084431E+00  0.16114319831E+02 -0.76171812134E+01  0.17826030535E+02  0.00000000000E+00 0.  1.
</event>
<event>
 7    1  0.1826069E-013  0.7246150E+02  0.7816164E-02  0.1226708E+00
        -11   -1    0    0    0    0  0.00000000000E+00  0.00000000000E+00  0.45593999997E+02  0.45594000000E+02  0.51100000000E-03 0. -1.
         11   -1    0    0    0    0 -0.00000000000E+00 -0.00000000000E+00 -0.45593999997E+02  0.45594000000E+02  0.51100000000E-03 0.  1.
    9900012    2    1    2    0    0  0.43838791578E+00 -0.18309107678E+02 -0.39071908077E+01  0.72461501450E+02  0.69999910318E+02 0.  0.
        -12    1    1    2    0    0 -0.43838791578E+00  0.18309107678E+02  0.39071908077E+01  0.18726498550E+02  0.00000000000E+00 0.  1.
         11    1    3    3    0    0 -0.25484862810E+01 -0.29978429414E+02  0.16987897018E+02  0.34551261305E+02  0.51100000000E-03 0. -1.
        -11    1    3    3    0    0  0.13576654467E+02  0.11827984919E+02 -0.47860573301E+01  0.18631508763E+02  0.51100000000E-03 0.  1.
         12    1    3    3    0    0 -0.10589780270E+02 -0.15866318337E+00 -0.16109030496E+02  0.19278731382E+02  0.00000000000E+00 0. -1.
</event>
<event>
 7    1  0.1826069E-013  0.7246175E+02  0.7816164E-02  0.1226708E+00
        -11   -1    0    0    0    0  0.00000000000E+00  0.00000000000E+00  0.45593999997E+02  0.45594000000E+02  0.51100000000E-03 0.  1.
         11   -1    0    0    0    0 -0.00000000000E+00 -0.00000000000E+00 -0.45593999997E+02  0.45594000000E+02  0.51100000000E-03 0. -1.
    9900012    2    1    2    0    0 -0.29651265732E+01 -0.81884518118E+01 -0.16577993157E+02  0.72461746349E+02  0.70000229344E+02 0.  0.
        -12    1    1    2    0    0  0.29651265732E+01  0.81884518118E+01  0.16577993157E+02  0.18726253651E+02  0.00000000000E+00 0.  1.
         11    1    3    3    0    0  0.10051185828E+02  0.27862664369E+02 -0.16864601474E+02  0.34084735373E+02  0.51100000000E-03 0. -1.
        -11    1    3    3    0    0 -0.77311930603E+01 -0.20737539560E+02 -0.74410738100E+00  0.22144312796E+02  0.51100000000E-03 0.  1.
         12    1    3    3    0    0 -0.52851193410E+01 -0.15313576621E+02  0.10307156981E+01  0.16232698181E+02  0.00000000000E+00 0. -1.
</event>
<event>
 7    1  0.1826069E-013  0.7246153E+02  0.7816164E-02  0.1226708E+00
        -11   -1    0    0    0    0  0.00000000000E+00  0.00000000000E+00  0.45593999997E+02  0.45594000000E+02  0.51100000000E-03 0.  1.
         11   -1    0    0    0    0 -0.00000000000E+00 -0.00000000000E+00 -0.45593999997E+02  0.45594000000E+02  0.51100000000E-03 0. -1.
    9900012    2    1    2    0    0  0.13023271065E+02 -0.10707635903E+02 -0.81499508851E+01  0.72461527954E+02  0.69999944843E+02 0.  0.
        -12    1    1    2    0    0 -0.13023271065E+02  0.10707635903E+02  0.81499508851E+01  0.18726472046E+02  0.00000000000E+00 0.  1.
         11    1    3    3    0    0 -0.39187087141E+01 -0.26376272430E+01  0.26576253954E+02  0.26992788480E+02  0.51100000000E-03 0.  1.
        -11    1    3    3    0    0  0.21206985076E+02 -0.10881119737E+02 -0.25380539083E+02  0.34818195633E+02  0.51100000000E-03 0. -1.
         12    1    3    3    0    0 -0.42650052970E+01  0.28111110765E+01 -0.93456657561E+01  0.10650543840E+02  0.00000000000E+00 0. -1.
</event>
<event>
 7    1  0.1826069E-013  0.7246156E+02  0.7816164E-02  0.1226708E+00
        -11   -1    0    0    0    0  0.00000000000E+00  0.00000000000E+00  0.45593999997E+02  0.45594000000E+02  0.51100000000E-03 0. -1.
         11   -1    0    0    0    0 -0.00000000000E+00 -0.00000000000E+00 -0.45593999997E+02  0.45594000000E+02  0.51100000000E-03 0.  1.
    9900012    2    1    2    0    0 -0.16703754524E+02  0.16623848068E+01  0.83006374958E+01  0.72461560902E+02  0.69999987765E+02 0.  0.
        -12    1    1    2    0    0  0.16703754524E+02 -0.16623848068E+01 -0.83006374958E+01  0.18726439098E+02  0.00000000000E+00 0.  1.
         11    1    3    3    0    0  0.99947768780E+00  0.51785863838E+01  0.24097664359E+02  0.24668079382E+02  0.51100000000E-03 0. -1.
        -11    1    3    3    0    0 -0.66076948662E+01 -0.16622843598E+02 -0.23029089317E+02  0.29160238609E+02  0.51100000000E-03 0.  1.
        -12    1    3    3    0    0 -0.11095537345E+02  0.13106642021E+02  0.72320624538E+01  0.18633242911E+02  0.00000000000E+00 0.  1.
</event>
<event>
 7    1  0.1826069E-013  0.7246169E+02  0.7816164E-02  0.1226708E+00
        -11   -1    0    0    0    0  0.00000000000E+00  0.00000000000E+00  0.45593999997E+02  0.45594000000E+02  0.51100000000E-03 0.  1.
         11   -1    0    0    0    0 -0.00000000000E+00 -0.00000000000E+00 -0.45593999997E+02  0.45594000000E+02  0.51100000000E-03 0. -1.
    9900012    2    1    2    0    0  0.13836774443E+02  0.12248075065E+02  0.30336772615E+01  0.72461685159E+02  0.70000149632E+02 0.  0.
        -12    1    1    2    0    0 -0.13836774443E+02 -0.12248075065E+02 -0.30336772615E+01  0.18726314841E+02  0.00000000000E+00 0.  1.
         11    1    3    3    0    0 -0.90946794620E+01 -0.24296135200E+02 -0.41787501246E+01  0.26276935381E+02  0.51100000000E-03 0. -1.
        -11    1    3    3    0    0  0.70924731191E+01  0.12988237793E+02  0.96934192762E+01  0.17690671933E+02  0.51100000000E-03 0.  1.
         12    1    3    3    0    0  0.15838980786E+02  0.23555972472E+02 -0.24809918901E+01  0.28494077844E+02  0.00000000000E+00 0. -1.
</event>
<event>
 7    1  0.1826069E-013  0.7246156E+02  0.7816164E-02  0.1226708E+00
        -11   -1    0    0    0    0  0.00000000000E+00  0.00000000000E+00  0.45593999997E+02  0.45594000000E+02  0.51100000000E-03 0.  1.
         11   -1    0    0    0    0 -0.00000000000E+00 -0.00000000000E+00 -0.45593999997E+02  0.45594000000E+02  0.51100000000E-03 0. -1.
    9900012    2    1    2    0    0  0.19699220937E+01  0.14550507487E+02 -0.11622459830E+02  0.72461563241E+02  0.69999990812E+02 0.  0.
        -12    1    1    2    0    0 -0.19699220937E+01 -0.14550507487E+02  0.11622459830E+02  0.18726436759E+02  0.00000000000E+00 0.  1.
         11    1    3    3    0    0  0.67655649437E+01  0.20202721048E+02 -0.21316012445E+02  0.30137936120E+02  0.51100000000E-03 0. -1.
        -11    1    3    3    0    0 -0.18097290466E+02  0.99141148830E+01  0.34817047975E+01  0.20926630514E+02  0.51100000000E-03 0.  1.
         12    1    3    3    0    0  0.13301647616E+02 -0.15566328444E+02  0.62118478172E+01  0.21396996607E+02  0.00000000000E+00 0. -1.
</event>
<event>
 7    1  0.1826069E-013  0.7246162E+02  0.7816164E-02  0.1226708E+00
        -11   -1    0    0    0    0  0.00000000000E+00  0.00000000000E+00  0.45593999997E+02  0.45594000000E+02  0.51100000000E-03 0.  1.
         11   -1    0    0    0    0 -0.00000000000E+00 -0.00000000000E+00 -0.45593999997E+02  0.45594000000E+02  0.51100000000E-03 0. -1.
    9900012    2    1    2    0    0 -0.63606323922E+01 -0.40954370236E+01 -0.17130298136E+02  0.72461618527E+02  0.70000062832E+02 0.  0.
        -12    1    1    2    0    0  0.63606323922E+01  0.40954370236E+01  0.17130298136E+02  0.18726381473E+02  0.00000000000E+00 0.  1.
         11    1    3    3    0    0 -0.26998646488E+02 -0.17989674552E+02 -0.82029503392E+00  0.32453477269E+02  0.51100000000E-03 0. -1.
        -11    1    3    3    0    0 -0.55178076152E+01  0.77414510272E+01 -0.26695771486E+01  0.98743560447E+01  0.51100000000E-03 0.  1.
         12    1    3    3    0    0  0.26155821711E+02  0.61527865008E+01 -0.13640425953E+02  0.30133785213E+02  0.00000000000E+00 0. -1.
</event>
<event>
 7    1  0.1826069E-013  0.7246208E+02  0.7816164E-02  0.1226707E+00
        -11   -1    0    0    0    0  0.00000000000E+00  0.00000000000E+00  0.45593999997E+02  0.45594000000E+02  0.51100000000E-03 0.  1.
         11   -1    0    0    0    0 -0.00000000000E+00 -0.00000000000E+00 -0.45593999997E+02  0.45594000000E+02  0.51100000000E-03 0. -1.
    9900012    2    1    2    0    0  0.92177461884E+01  0.92593840083E+01 -0.13414804733E+02  0.72462081517E+02  0.70000665959E+02 0.  0.
        -12    1    1    2    0    0 -0.92177461884E+01 -0.92593840083E+01  0.13414804733E+02  0.18725918483E+02  0.00000000000E+00 0.  1.
         11    1    3    3    0    0 -0.18609385963E+02  0.76584608513E+01 -0.24032262081E+00  0.20125084441E+02  0.51100000000E-03 0.  1.
        -11    1    3    3    0    0  0.27505749669E+02 -0.12742157559E+02 -0.20134375150E+02  0.36391233932E+02  0.51100000000E-03 0. -1.
        -12    1    3    3    0    0  0.32138248246E+00  0.14343080716E+02  0.69598930378E+01  0.15945763144E+02  0.00000000000E+00 0.  1.
</event>
<event>
 7    1  0.1826069E-013  0.7246158E+02  0.7816164E-02  0.1226708E+00
        -11   -1    0    0    0    0  0.00000000000E+00  0.00000000000E+00  0.45593999997E+02  0.45594000000E+02  0.51100000000E-03 0.  1.
         11   -1    0    0    0    0 -0.00000000000E+00 -0.00000000000E+00 -0.45593999997E+02  0.45594000000E+02  0.51100000000E-03 0. -1.
    9900012    2    1    2    0    0 -0.10969577713E+02 -0.13584444503E+02 -0.67683179649E+01  0.72461577605E+02  0.70000009523E+02 0.  0.
        -12    1    1    2    0    0  0.10969577713E+02  0.13584444503E+02  0.67683179649E+01  0.18726422395E+02  0.00000000000E+00 0.  1.
         11    1    3    3    0    0 -0.28506763818E+02 -0.14138993175E+02  0.10335866837E+02  0.33457089756E+02  0.51100000000E-03 0. -1.
        -11    1    3    3    0    0  0.15718061445E+02  0.14260666255E+02 -0.10668370225E+02  0.23753698262E+02  0.51100000000E-03 0.  1.
         12    1    3    3    0    0  0.18191246607E+01 -0.13706117583E+02 -0.64358145769E+01  0.15250789586E+02  0.00000000000E+00 0. -1.
</event>
<event>
 7    1  0.1826069E-013  0.7246153E+02  0.7816164E-02  0.1226708E+00
        -11   -1    0    0    0    0  0.00000000000E+00  0.00000000000E+00  0.45593999997E+02  0.45594000000E+02  0.51100000000E-03 0. -1.
         11   -1    0    0    0    0 -0.00000000000E+00 -0.00000000000E+00 -0.45593999997E+02  0.45594000000E+02  0.51100000000E-03 0.  1.
    9900012    2    1    2    0    0 -0.15580236428E+02 -0.10271330078E+02  0.15609730955E+01  0.72461531413E+02  0.69999949350E+02 0.  0.
        -12    1    1    2    0    0  0.15580236428E+02  0.10271330078E+02 -0.15609730955E+01  0.18726468587E+02  0.00000000000E+00 0.  1.
         11    1    3    3    0    0 -0.39480980506E+01 -0.69525401156E+01  0.24855822913E+02  0.26110098147E+02  0.51100000000E-03 0. -1.
        -11    1    3    3    0    0 -0.15976887281E+02  0.94348417508E+01 -0.26643903373E+02  0.32468057429E+02  0.51100000000E-03 0.  1.
         12    1    3    3    0    0  0.43447489034E+01 -0.12753631713E+02  0.33490535549E+01  0.13883375837E+02  0.00000000000E+00 0. -1.
</event>
<event>
 7    1  0.1826069E-013  0.7246160E+02  0.7816164E-02  0.1226708E+00
        -11   -1    0    0    0    0  0.00000000000E+00  0.00000000000E+00  0.45593999997E+02  0.45594000000E+02  0.51100000000E-03 0.  1.
         11   -1    0    0    0    0 -0.00000000000E+00 -0.00000000000E+00 -0.45593999997E+02  0.45594000000E+02  0.51100000000E-03 0. -1.
    9900012    2    1    2    0    0  0.54367875106E+00 -0.18423203221E+02 -0.33117859610E+01  0.72461603396E+02  0.70000043121E+02 0.  0.
        -12    1    1    2    0    0 -0.54367875106E+00  0.18423203221E+02  0.33117859610E+01  0.18726396604E+02  0.00000000000E+00 0.  1.
         11    1    3    3    0    0  0.15719198167E+02 -0.30986715313E+02 -0.80851280002E+01  0.35674066378E+02  0.51100000000E-03 0. -1.
        -11    1    3    3    0    0 -0.55960959215E+01  0.19399511268E+02  0.11496371850E+02  0.23234110549E+02  0.51100000000E-03 0.  1.
         12    1    3    3    0    0 -0.95794234945E+01 -0.68359991768E+01 -0.67230298111E+01  0.13553426470E+02  0.00000000000E+00 0. -1.
</event>
<event>
 7    1  0.1826069E-013  0.7246118E+02  0.7816164E-02  0.1226709E+00
        -11   -1    0    0    0    0  0.00000000000E+00  0.00000000000E+00  0.45593999997E+02  0.45594000000E+02  0.51100000000E-03 0. -1.
         11   -1    0    0    0    0 -0.00000000000E+00 -0.00000000000E+00 -0.45593999997E+02  0.45594000000E+02  0.51100000000E-03 0.  1.
    9900012    2    1    2    0    0 -0.13809736760E+02 -0.10543464573E+02  0.69871558044E+01  0.72461179106E+02  0.69999490402E+02 0.  0.
        -12    1    1    2    0    0  0.13809736760E+02  0.10543464573E+02 -0.69871558044E+01  0.18726820894E+02  0.00000000000E+00 0.  1.
         11    1    3    3    0    0  0.19245024762E+01 -0.18824907850E+02 -0.18964618869E+01  0.19017818836E+02  0.51100000000E-03 0. -1.
        -11    1    3    3    0    0 -0.33119179364E+02  0.11075455513E+02  0.38718888569E+01  0.35135982698E+02  0.51100000000E-03 0.  1.
        -12    1    3    3    0    0  0.17384940128E+02 -0.27940122363E+01  0.50117288344E+01  0.18307377571E+02  0.00000000000E+00 0.  1.
</event>
<event>
 7    1  0.1826069E-013  0.7246153E+02  0.7816164E-02  0.1226708E+00
        -11   -1    0    0    0    0  0.00000000000E+00  0.00000000000E+00  0.45593999997E+02  0.45594000000E+02  0.51100000000E-03 0.  1.
         11   -1    0    0    0    0 -0.00000000000E+00 -0.00000000000E+00 -0.45593999997E+02  0.45594000000E+02  0.51100000000E-03 0. -1.
    9900012    2    1    2    0    0 -0.17134528470E+01 -0.10457998875E+02 -0.15439394792E+02  0.72461532830E+02  0.69999951195E+02 0.  0.
        -12    1    1    2    0    0  0.17134528470E+01  0.10457998875E+02  0.15439394792E+02  0.18726467170E+02  0.00000000000E+00 0.  1.
         11    1    3    3    0    0 -0.73872326822E+01 -0.26944218208E+01  0.65819295151E+00  0.78907752390E+01  0.51100000000E-03 0. -1.
        -11    1    3    3    0    0  0.27519010482E+02 -0.22802279265E+02 -0.12206571185E+02  0.37765596221E+02  0.51100000000E-03 0.  1.
        -12    1    3    3    0    0 -0.21845230647E+02  0.15038702210E+02 -0.38910165586E+01  0.26805161370E+02  0.00000000000E+00 0.  1.
</event>
<event>
 7    1  0.1826069E-013  0.7246154E+02  0.7816164E-02  0.1226708E+00
        -11   -1    0    0    0    0  0.00000000000E+00  0.00000000000E+00  0.45593999997E+02  0.45594000000E+02  0.51100000000E-03 0. -1.
         11   -1    0    0    0    0 -0.00000000000E+00 -0.00000000000E+00 -0.45593999997E+02  0.45594000000E+02  0.51100000000E-03 0.  1.
    9900012    2    1    2    0    0  0.18084563646E+02 -0.17114420684E+01  0.45496944258E+01  0.72461542898E+02  0.69999964312E+02 0.  0.
        -12    1    1    2    0    0 -0.18084563646E+02  0.17114420684E+01 -0.45496944258E+01  0.18726457102E+02  0.00000000000E+00 0.  1.
         11    1    3    3    0    0  0.46724665795E+01 -0.56293538870E+00  0.12807856271E+02  0.13645146489E+02  0.51100000000E-03 0. -1.
        -11    1    3    3    0    0  0.81976004948E+01 -0.28324927509E+02 -0.98753335107E+01  0.31097015684E+02  0.51100000000E-03 0.  1.
        -12    1    3    3    0    0  0.52144965714E+01  0.27176420829E+02  0.16171716655E+01  0.27719380725E+02  0.00000000000E+00 0.  1.
</event>
<event>
 7    1  0.1826069E-013  0.7246159E+02  0.7816164E-02  0.1226708E+00
        -11   -1    0    0    0    0  0.00000000000E+00  0.00000000000E+00  0.45593999997E+02  0.45594000000E+02  0.51100000000E-03 0.  1.
         11   -1    0    0    0    0 -0.00000000000E+00 -0.00000000000E+00 -0.45593999997E+02  0.45594000000E+02  0.51100000000E-03 0. -1.
    9900012    2    1    2    0    0  0.13767064018E+01  0.15113032734E+01 -0.18614486501E+02  0.72461589084E+02  0.70000024477E+02 0.  0.
        -12    1    1    2    0    0 -0.13767064018E+01 -0.15113032734E+01  0.18614486501E+02  0.18726410916E+02  0.00000000000E+00 0.  1.
         11    1    3    3    0    0  0.78122475571E+01 -0.25061442972E+02 -0.91428678617E+01  0.27797466948E+02  0.51100000000E-03 0. -1.
        -11    1    3    3    0    0  0.46376640838E+01  0.31177278553E+02 -0.52751315128E+01  0.31958686439E+02  0.51100000000E-03 0.  1.
        -12    1    3    3    0    0 -0.11073205239E+02 -0.46045323078E+01 -0.41964871266E+01  0.12705435697E+02  0.00000000000E+00 0.  1.
</event>
<event>
 7    1  0.1826069E-013  0.7246163E+02  0.7816164E-02  0.1226708E+00
        -11   -1    0    0    0    0  0.00000000000E+00  0.00000000000E+00  0.45593999997E+02  0.45594000000E+02  0.51100000000E-03 0. -1.
         11   -1    0    0    0    0 -0.00000000000E+00 -0.00000000000E+00 -0.45593999997E+02  0.45594000000E+02  0.51100000000E-03 0.  1.
    9900012    2    1    2    0    0 -0.16274063098E+02 -0.43914410959E+00  0.92541250903E+01  0.72461633336E+02  0.70000082123E+02 0.  0.
        -12    1    1    2    0    0  0.16274063098E+02  0.43914410959E+00 -0.92541250903E+01  0.18726366664E+02  0.00000000000E+00 0.  1.
         11    1    3    3    0    0 -0.18984951593E+01  0.56785406438E+00  0.10381749650E+02  0.10569175378E+02  0.51100000000E-03 0. -1.
        -11    1    3    3    0    0 -0.37356491434E+02 -0.11319594097E+01 -0.73372100359E+01  0.38087050761E+02  0.51100000000E-03 0.  1.
        -12    1    3    3    0    0  0.22980923495E+02  0.12496123568E+00  0.62095854759E+01  0.23805407196E+02  0.00000000000E+00 0.  1.
</event>
<event>
 7    1  0.1826069E-013  0.7246146E+02  0.7816164E-02  0.1226708E+00
        -11   -1    0    0    0    0  0.00000000000E+00  0.00000000000E+00  0.45593999997E+02  0.45594000000E+02  0.51100000000E-03 0.  1.
         11   -1    0    0    0    0 -0.00000000000E+00 -0.00000000000E+00 -0.45593999997E+02  0.45594000000E+02  0.51100000000E-03 0. -1.
    9900012    2    1    2    0    0 -0.82523088161E+01  0.11216901349E+02 -0.12520532234E+02  0.72461462570E+02  0.69999859669E+02 0.  0.
        -12    1    1    2    0    0  0.82523088161E+01 -0.11216901349E+02  0.12520532234E+02  0.18726537430E+02  0.00000000000E+00 0.  1.
         11    1    3    3    0    0 -0.37702156942E+01  0.68396648890E+01 -0.53469268116E+01  0.94649442029E+01  0.51100000000E-03 0. -1.
        -11    1    3    3    0    0  0.10591700741E+02 -0.13880371453E+02 -0.26974245967E+02  0.32131896645E+02  0.51100000000E-03 0.  1.
        -12    1    3    3    0    0 -0.15073793862E+02  0.18257607913E+02  0.19800640544E+02  0.30864621723E+02  0.00000000000E+00 0.  1.
</event>
<event>
 7    1  0.1826069E-013  0.7246157E+02  0.7816164E-02  0.1226708E+00
        -11   -1    0    0    0    0  0.00000000000E+00  0.00000000000E+00  0.45593999997E+02  0.45594000000E+02  0.51100000000E-03 0. -1.
         11   -1    0    0    0    0 -0.00000000000E+00 -0.00000000000E+00 -0.45593999997E+02  0.45594000000E+02  0.51100000000E-03 0.  1.
    9900012    2    1    2    0    0  0.84515355326E+01  0.10721037769E+02  0.12818347144E+02  0.72461571424E+02  0.70000001472E+02 0.  0.
        -12    1    1    2    0    0 -0.84515355326E+01 -0.10721037769E+02 -0.12818347144E+02  0.18726428576E+02  0.00000000000E+00 0.  1.
         11    1    3    3    0    0  0.10882346728E+01  0.20100795025E+02  0.30521579362E+02  0.36562180219E+02  0.51100000000E-03 0. -1.
        -11    1    3    3    0    0 -0.25759265387E+01  0.26672726042E+01 -0.19797432243E+02  0.20141699639E+02  0.51100000000E-03 0.  1.
         12    1    3    3    0    0  0.99392273986E+01 -0.12047029860E+02  0.20942000244E+01  0.15757691566E+02  0.00000000000E+00 0. -1.
</event>
<event>
 7    1  0.1826069E-013  0.7246214E+02  0.7816164E-02  0.1226706E+00
        -11   -1    0    0    0    0  0.00000000000E+00  0.00000000000E+00  0.45593999997E+02  0.45594000000E+02  0.51100000000E-03 0. -1.
         11   -1    0    0    0    0 -0.00000000000E+00 -0.00000000000E+00 -0.45593999997E+02  0.45594000000E+02  0.51100000000E-03 0.  1.
    9900012    2    1    2    0    0 -0.11453944330E+01 -0.29523945774E+01  0.18456139621E+02  0.72462144830E+02  0.70000748435E+02 0.  0.
        -12    1    1    2    0    0  0.11453944330E+01  0.29523945774E+01 -0.18456139621E+02  0.18725855170E+02  0.00000000000E+00 0.  1.
         11    1    3    3    0    0  0.65553016419E+00 -0.24708697131E+02  0.27601700893E+02  0.37051360651E+02  0.51100000000E-03 0. -1.
        -11    1    3    3    0    0  0.13318994218E-01  0.18215492363E+02 -0.18058719814E+02  0.25649984426E+02  0.51100000000E-03 0.  1.
        -12    1    3    3    0    0 -0.18142435914E+01  0.35408101901E+01  0.89131585427E+01  0.97607997530E+01  0.00000000000E+00 0.  1.
</event>
<event>
 7    1  0.1826069E-013  0.7246154E+02  0.7816164E-02  0.1226708E+00
        -11   -1    0    0    0    0  0.00000000000E+00  0.00000000000E+00  0.45593999997E+02  0.45594000000E+02  0.51100000000E-03 0.  1.
         11   -1    0    0    0    0 -0.00000000000E+00 -0.00000000000E+00 -0.45593999997E+02  0.45594000000E+02  0.51100000000E-03 0. -1.
    9900012    2    1    2    0    0  0.15996745484E+02  0.31818416424E+01  0.92011004348E+01  0.72461541938E+02  0.69999963061E+02 0.  0.
        -12    1    1    2    0    0 -0.15996745484E+02 -0.31818416424E+01 -0.92011004348E+01  0.18726458062E+02  0.00000000000E+00 0.  1.
         11    1    3    3    0    0 -0.22419967495E+02 -0.13319660024E+02  0.83403879270E+01  0.27379378310E+02  0.51100000000E-03 0. -1.
        -11    1    3    3    0    0  0.52972744519E+01  0.37448220888E+01  0.64562777424E+01  0.91525041187E+01  0.51100000000E-03 0.  1.
         12    1    3    3    0    0  0.33119438527E+02  0.12756679577E+02 -0.55955652345E+01  0.35929659510E+02  0.00000000000E+00 0. -1.
</event>
<event>
 7    1  0.1826069E-013  0.7246150E+02  0.7816164E-02  0.1226708E+00
        -11   -1    0    0    0    0  0.00000000000E+00  0.00000000000E+00  0.45593999997E+02  0.45594000000E+02  0.51100000000E-03 0. -1.
         11   -1    0    0    0    0 -0.00000000000E+00 -0.00000000000E+00 -0.45593999997E+02  0.45594000000E+02  0.51100000000E-03 0.  1.
    9900012    2    1    2    0    0  0.11012652423E+02 -0.14612357328E+02  0.39852751871E+01  0.72461496900E+02  0.69999904390E+02 0.  0.
        -12    1    1    2    0    0 -0.11012652423E+02  0.14612357328E+02 -0.39852751871E+01  0.18726503100E+02  0.00000000000E+00 0.  1.
         11    1    3    3    0    0  0.70593481068E+01  0.17128851297E+02 -0.13800767685E+02  0.23101799310E+02  0.51100000000E-03 0.  1.
        -11    1    3    3    0    0 -0.79592365204E+01 -0.23168032299E+02 -0.21640651800E+01  0.24592485539E+02  0.51100000000E-03 0. -1.
        -12    1    3    3    0    0  0.11912540836E+02 -0.85731763252E+01  0.19950108052E+02  0.24767212050E+02  0.00000000000E+00 0.  1.
</event>
<event>
 7    1  0.1826069E-013  0.7246138E+02  0.7816164E-02  0.1226709E+00
        -11   -1    0    0    0    0  0.00000000000E+00  0.00000000000E+00  0.45593999997E+02  0.45594000000E+02  0.51100000000E-03 0.  1.
         11   -1    0    0    0    0 -0.00000000000E+00 -0.00000000000E+00 -0.45593999997E+02  0.45594000000E+02  0.51100000000E-03 0. -1.
    9900012    2    1    2    0    0 -0.12922187925E+02  0.46269527321E+00 -0.13545821392E+02  0.72461379780E+02  0.69999751820E+02 0.  0.
        -12    1    1    2    0    0  0.12922187925E+02 -0.46269527321E+00  0.13545821392E+02  0.18726620220E+02  0.00000000000E+00 0.  1.
         11    1    3    3    0    0  0.74561012287E+01  0.12511444607E+02  0.19049621220E+01  0.14688722634E+02  0.51100000000E-03 0. -1.
        -11    1    3    3    0    0 -0.32995776853E+01 -0.23215904602E+02 -0.25823946227E+02  0.34881823896E+02  0.51100000000E-03 0.  1.
        -12    1    3    3    0    0 -0.17078711468E+02  0.11167155268E+02  0.10373162713E+02  0.22890833249E+02  0.00000000000E+00 0.  1.
</event>
<event>
 7    1  0.1826069E-013  0.7246155E+02  0.7816164E-02  0.1226708E+00
        -11   -1    0    0    0    0  0.00000000000E+00  0.00000000000E+00  0.45593999997E+02  0.45594000000E+02  0.51100000000E-03 0. -1.
         11   -1    0    0    0    0 -0.00000000000E+00 -0.00000000000E+00 -0.45593999997E+02  0.45594000000E+02  0.51100000000E-03 0.  1.
    9900012    2    1    2    0    0  0.94277275053E+00  0.15979288191E+02  0.97187221921E+01  0.72461547250E+02  0.69999969981E+02 0.  0.
        -12    1    1    2    0    0 -0.94277275053E+00 -0.15979288191E+02 -0.97187221921E+01  0.18726452750E+02  0.00000000000E+00 0.  1.
         11    1    3    3    0    0 -0.11666824537E+02  0.44078273155E+01  0.26146559121E+02  0.28968712269E+02  0.51100000000E-03 0. -1.
        -11    1    3    3    0    0 -0.23814039271E+01  0.98392814741E+01 -0.24406487811E+02  0.26422702211E+02  0.51100000000E-03 0.  1.
         12    1    3    3    0    0  0.14991001214E+02  0.17321794014E+01  0.79786508824E+01  0.17070132770E+02  0.00000000000E+00 0. -1.
</event>
<event>
 7    1  0.1826069E-013  0.7246169E+02  0.7816164E-02  0.1226708E+00
        -11   -1    0    0    0    0  0.00000000000E+00  0.00000000000E+00  0.45593999997E+02  0.45594000000E+02  0.51100000000E-03 0.  1.
         11   -1    0    0    0    0 -0.00000000000E+00 -0.00000000000E+00 -0.45593999997E+02  0.45594000000E+02  0.51100000000E-03 0. -1.
    9900012    2    1    2    0    0  0.17768412156E+02  0.71827724836E+00 -0.58687625828E+01  0.72461687843E+02  0.70000153129E+02 0.  0.
        -12    1    1    2    0    0 -0.17768412156E+02 -0.71827724836E+00  0.58687625828E+01  0.18726312157E+02  0.00000000000E+00 0.  1.
         11    1    3    3    0    0  0.36125942066E+02  0.20643102031E+02 -0.30870626792E+01  0.41722311871E+02  0.51100000000E-03 0. -1.
        -11    1    3    3    0    0 -0.34850937781E+01 -0.13201714769E+02  0.18370185480E+01  0.13777002174E+02  0.51100000000E-03 0.  1.
         12    1    3    3    0    0 -0.14872436132E+02 -0.67231100130E+01 -0.46187184516E+01  0.16962373798E+02  0.00000000000E+00 0. -1.
</event>
<event>
 7    1  0.1826069E-013  0.7246158E+02  0.7816164E-02  0.1226708E+00
        -11   -1    0    0    0    0  0.00000000000E+00  0.00000000000E+00  0.45593999997E+02  0.45594000000E+02  0.51100000000E-03 0.  1.
         11   -1    0    0    0    0 -0.00000000000E+00 -0.00000000000E+00 -0.45593999997E+02  0.45594000000E+02  0.51100000000E-03 0. -1.
    9900012    2    1    2    0    0  0.11622040251E+02 -0.75963898498E+01 -0.12565894844E+02  0.72461583589E+02  0.70000017319E+02 0.  0.
        -12    1    1    2    0    0 -0.11622040251E+02  0.75963898498E+01  0.12565894844E+02  0.18726416411E+02  0.00000000000E+00 0.  1.
         11    1    3    3    0    0  0.22948867475E+02 -0.74490962579E+00  0.20521425369E+00  0.22961871045E+02  0.51100000000E-03 0. -1.
        -11    1    3    3    0    0 -0.30266181495E+01 -0.22264700639E+02  0.65722133346E+01  0.23410922672E+02  0.51100000000E-03 0.  1.
        -12    1    3    3    0    0 -0.83002090748E+01  0.15413220415E+02 -0.19343322433E+02  0.26088789872E+02  0.00000000000E+00 0.  1.
</event>
<event>
 7    1  0.1826069E-013  0.7246159E+02  0.7816164E-02  0.1226708E+00
        -11   -1    0    0    0    0  0.00000000000E+00  0.00000000000E+00  0.45593999997E+02  0.45594000000E+02  0.51100000000E-03 0.  1.
         11   -1    0    0    0    0 -0.00000000000E+00 -0.00000000000E+00 -0.45593999997E+02  0.45594000000E+02  0.51100000000E-03 0. -1.
    9900012    2    1    2    0    0 -0.13718006252E+02  0.72540874295E+01 -0.10482021349E+02  0.72461594805E+02  0.70000031930E+02 0.  0.
        -12    1    1    2    0    0  0.13718006252E+02 -0.72540874295E+01  0.10482021349E+02  0.18726405195E+02  0.00000000000E+00 0.  1.
         11    1    3    3    0    0 -0.22187191822E+01  0.40949608428E+01 -0.36160029296E+02  0.36458731986E+02  0.51100000000E-03 0. -1.
        -11    1    3    3    0    0 -0.13474771592E+02  0.10647657858E+02  0.14936719772E+02  0.22760660911E+02  0.51100000000E-03 0.  1.
         12    1    3    3    0    0  0.19754845222E+01 -0.74885312718E+01  0.10741288175E+02  0.13242201908E+02  0.00000000000E+00 0. -1.
</event>
<event>
 7    1  0.1826069E-013  0.7246150E+02  0.7816164E-02  0.1226708E+00
        -11   -1    0    0    0    0  0.00000000000E+00  0.00000000000E+00  0.45593999997E+02  0.45594000000E+02  0.51100000000E-03 0. -1.
         11   -1    0    0    0    0 -0.00000000000E+00 -0.00000000000E+00 -0.45593999997E+02  0.45594000000E+02  0.51100000000E-03 0.  1.
    9900012    2    1    2    0    0  0.64686814692E+01  0.14828138623E+02  0.94320922294E+01  0.72461497423E+02  0.69999905071E+02 0.  0.
        -12    1    1    2    0    0 -0.64686814692E+01 -0.14828138623E+02 -0.94320922294E+01  0.18726502577E+02  0.00000000000E+00 0.  1.
         11    1    3    3    0    0  0.42422440170E+01  0.68698625416E+01  0.49229482200E+01  0.94565884481E+01  0.51100000000E-03 0. -1.
        -11    1    3    3    0    0 -0.61932652416E+01 -0.25649083160E+02  0.94101335055E+01  0.28013971767E+02  0.51100000000E-03 0.  1.
        -12    1    3    3    0    0  0.84197026939E+01  0.33607359241E+02 -0.49009894961E+01  0.34990937207E+02  0.00000000000E+00 0.  1.
</event>
<event>
 7    1  0.1826069E-013  0.7246157E+02  0.7816164E-02  0.1226708E+00
        -11   -1    0    0    0    0  0.00000000000E+00  0.00000000000E+00  0.45593999997E+02  0.45594000000E+02  0.51100000000E-03 0. -1.
         11   -1    0    0    0    0 -0.00000000000E+00 -0.00000000000E+00 -0.45593999997E+02  0.45594000000E+02  0.51100000000E-03 0.  1.
    9900012    2    1    2    0    0  0.38958465305E+01 -0.72032748284E+01  0.16840860265E+02  0.72461565131E+02  0.69999993274E+02 0.  0.
        -12    1    1    2    0    0 -0.38958465305E+01  0.72032748284E+01 -0.16840860265E+02  0.18726434869E+02  0.00000000000E+00 0.  1.
         11    1    3    3    0    0 -0.25709043242E+02 -0.10015938232E+02  0.88872664592E+01  0.28987194215E+02  0.51100000000E-03 0. -1.
        -11    1    3    3    0    0  0.72770032214E+01  0.14556649280E+02  0.82470748720E+01  0.18244589837E+02  0.51100000000E-03 0.  1.
         12    1    3    3    0    0  0.22327886551E+02 -0.11743985876E+02 -0.29348106604E+00  0.25229781078E+02  0.00000000000E+00 0. -1.
</event>
<event>
 7    1  0.1826069E-013  0.7246170E+02  0.7816164E-02  0.1226708E+00
        -11   -1    0    0    0    0  0.00000000000E+00  0.00000000000E+00  0.45593999997E+02  0.45594000000E+02  0.51100000000E-03 0. -1.
         11   -1    0    0    0    0 -0.00000000000E+00 -0.00000000000E+00 -0.45593999997E+02  0.45594000000E+02  0.51100000000E-03 0.  1.
    9900012    2    1    2    0    0 -0.16311721475E+02  0.38077680657E+01  0.83727501472E+01  0.72461700308E+02  0.70000169367E+02 0.  0.
        -12    1    1    2    0    0  0.16311721475E+02 -0.38077680657E+01 -0.83727501472E+01  0.18726299692E+02  0.00000000000E+00 0.  1.
         11    1    3    3    0    0 -0.28900657464E+02  0.15458566736E+02  0.53566315235E+01  0.33210070595E+02  0.51100000000E-03 0.  1.
        -11    1    3    3    0    0  0.30675360161E+01 -0.18393146149E+02  0.13929957764E+02  0.23275766927E+02  0.51100000000E-03 0. -1.
         12    1    3    3    0    0  0.95213999732E+01  0.67423474784E+01 -0.10913839141E+02  0.15975862786E+02  0.00000000000E+00 0. -1.
</event>
<event>
 7    1  0.1826069E-013  0.7246163E+02  0.7816164E-02  0.1226708E+00
        -11   -1    0    0    0    0  0.00000000000E+00  0.00000000000E+00  0.45593999997E+02  0.45594000000E+02  0.51100000000E-03 0. -1.
         11   -1    0    0    0    0 -0.00000000000E+00 -0.00000000000E+00 -0.45593999997E+02  0.45594000000E+02  0.51100000000E-03 0.  1.
    9900012    2    1    2    0    0 -0.18710450542E+02 -0.44251234698E+00 -0.63252471755E+00  0.72461631847E+02  0.70000080184E+02 0.  0.
        -12    1    1    2    0    0  0.18710450542E+02  0.44251234698E+00  0.63252471755E+00  0.18726368153E+02  0.00000000000E+00 0.  1.
         11    1    3    3    0    0 -0.95496128078E+01  0.11776500964E+02  0.22287317051E+02  0.26955622444E+02  0.51100000000E-03 0. -1.
        -11    1    3    3    0    0  0.96530669944E+01  0.62045487618E+01 -0.13067913914E+02  0.17391046607E+02  0.51100000000E-03 0.  1.
         12    1    3    3    0    0 -0.18813904729E+02 -0.18423562073E+02 -0.98519278543E+01  0.28114962797E+02  0.00000000000E+00 0. -1.
</event>
<event>
 7    1  0.1826069E-013  0.7246157E+02  0.7816164E-02  0.1226708E+00
        -11   -1    0    0    0    0  0.00000000000E+00  0.00000000000E+00  0.45593999997E+02  0.45594000000E+02  0.51100000000E-03 0. -1.
         11   -1    0    0    0    0 -0.00000000000E+00 -0.00000000000E+00 -0.45593999997E+02  0.45594000000E+02  0.51100000000E-03 0.  1.
    9900012    2    1    2    0    0  0.11409405914E+02 -0.14848418838E+02  0.17078605576E+00  0.72461568061E+02  0.69999997090E+02 0.  0.
        -12    1    1    2    0    0 -0.11409405914E+02  0.14848418838E+02 -0.17078605576E+00  0.18726431939E+02  0.00000000000E+00 0.  1.
         11    1    3    3    0    0  0.39473348757E+01 -0.43633045618E+01  0.33757217030E+02  0.34266157957E+02  0.51100000000E-03 0. -1.
        -11    1    3    3    0    0 -0.27015579934E+01 -0.53665080961E+01 -0.66969130587E+01  0.89970255927E+01  0.51100000000E-03 0.  1.
         12    1    3    3    0    0  0.10163629031E+02 -0.51186061804E+01 -0.26889517915E+02  0.29198384511E+02  0.00000000000E+00 0. -1.
</event>
<event>
 7    1  0.1826069E-013  0.7246162E+02  0.7816164E-02  0.1226708E+00
        -11   -1    0    0    0    0  0.00000000000E+00  0.00000000000E+00  0.45593999997E+02  0.45594000000E+02  0.51100000000E-03 0. -1.
         11   -1    0    0    0    0 -0.00000000000E+00 -0.00000000000E+00 -0.45593999997E+02  0.45594000000E+02  0.51100000000E-03 0.  1.
    9900012    2    1    2    0    0  0.11191225844E+02 -0.10011334655E+02  0.11189595177E+02  0.72461617603E+02  0.70000061628E+02 0.  0.
        -12    1    1    2    0    0 -0.11191225844E+02  0.10011334655E+02 -0.11189595177E+02  0.18726382397E+02  0.00000000000E+00 0.  1.
         11    1    3    3    0    0  0.29391163015E+02  0.78204806331E+01  0.20002001358E+02  0.36401654348E+02  0.51100000000E-03 0. -1.
        -11    1    3    3    0    0 -0.90530080594E+01 -0.32758636629E+01 -0.14970474905E+02  0.17798970667E+02  0.51100000000E-03 0.  1.
         12    1    3    3    0    0 -0.91469291112E+01 -0.14555951625E+02  0.61580687242E+01  0.18260992588E+02  0.00000000000E+00 0. -1.
</event>
<event>
 7    1  0.1826069E-013  0.7246172E+02  0.7816164E-02  0.1226708E+00
        -11   -1    0    0    0    0  0.00000000000E+00  0.00000000000E+00  0.45593999997E+02  0.45594000000E+02  0.51100000000E-03 0. -1.
         11   -1    0    0    0    0 -0.00000000000E+00 -0.00000000000E+00 -0.45593999997E+02  0.45594000000E+02  0.51100000000E-03 0.  1.
    9900012    2    1    2    0    0 -0.18676776677E+02  0.13599663172E+01 -0.44861111478E-01  0.72461721461E+02  0.70000196922E+02 0.  0.
        -12    1    1    2    0    0  0.18676776677E+02 -0.13599663172E+01  0.44861111478E-01  0.18726278539E+02  0.00000000000E+00 0.  1.
         11    1    3    3    0    0 -0.18199462444E+02  0.29882867659E+02 -0.33002073058E+01  0.35143955118E+02  0.51100000000E-03 0. -1.
        -11    1    3    3    0    0  0.59789283560E+01 -0.27647048988E+02  0.78381635409E+01  0.29352064833E+02  0.51100000000E-03 0.  1.
         12    1    3    3    0    0 -0.64562425883E+01 -0.87585235466E+00 -0.45828173465E+01  0.79657015095E+01  0.00000000000E+00 0. -1.
</event>
<event>
 7    1  0.1826069E-013  0.7246141E+02  0.7816164E-02  0.1226708E+00
        -11   -1    0    0    0    0  0.00000000000E+00  0.00000000000E+00  0.45593999997E+02  0.45594000000E+02  0.51100000000E-03 0. -1.
         11   -1    0    0    0    0 -0.00000000000E+00 -0.00000000000E+00 -0.45593999997E+02  0.45594000000E+02  0.51100000000E-03 0.  1.
    9900012    2    1    2    0    0  0.12138108286E+01  0.24950285346E+01  0.18519899023E+02  0.72461410242E+02  0.69999791502E+02 0.  0.
        -12    1    1    2    0    0 -0.12138108286E+01 -0.24950285346E+01 -0.18519899023E+02  0.18726589758E+02  0.00000000000E+00 0.  1.
         11    1    3    3    0    0 -0.12690126605E+02 -0.15544408307E+02  0.37693283579E+01  0.20417536076E+02  0.51100000000E-03 0. -1.
        -11    1    3    3    0    0  0.17415697655E+02  0.10739604241E+02  0.29095606866E+02  0.35569649467E+02  0.51100000000E-03 0.  1.
        -12    1    3    3    0    0 -0.35117602210E+01  0.72998326006E+01 -0.14345036200E+02  0.16474224699E+02  0.00000000000E+00 0.  1.
</event>
<event>
 7    1  0.1826069E-013  0.7246155E+02  0.7816164E-02  0.1226708E+00
        -11   -1    0    0    0    0  0.00000000000E+00  0.00000000000E+00  0.45593999997E+02  0.45594000000E+02  0.51100000000E-03 0. -1.
         11   -1    0    0    0    0 -0.00000000000E+00 -0.00000000000E+00 -0.45593999997E+02  0.45594000000E+02  0.51100000000E-03 0.  1.
    9900012    2    1    2    0    0 -0.17507278156E+02 -0.51936450920E+01  0.41474409961E+01  0.72461547998E+02  0.69999970954E+02 0.  0.
        -12    1    1    2    0    0  0.17507278156E+02  0.51936450920E+01 -0.41474409961E+01  0.18726452002E+02  0.00000000000E+00 0.  1.
         11    1    3    3    0    0 -0.10170985505E+02  0.16103655942E+00  0.29848680809E+02  0.31534403835E+02  0.51100000000E-03 0. -1.
        -11    1    3    3    0    0 -0.78984363430E+01  0.11150311402E+02 -0.18277688598E+02  0.22820794065E+02  0.51100000000E-03 0.  1.
         12    1    3    3    0    0  0.56214369143E+00 -0.16504993053E+02 -0.74235512151E+01  0.18106350097E+02  0.00000000000E+00 0. -1.
</event>
<event>
 7    1  0.1826069E-013  0.7246157E+02  0.7816164E-02  0.1226708E+00
        -11   -1    0    0    0    0  0.00000000000E+00  0.00000000000E+00  0.45593999997E+02  0.45594000000E+02  0.51100000000E-03 0.  1.
         11   -1    0    0    0    0 -0.00000000000E+00 -0.00000000000E+00 -0.45593999997E+02  0.45594000000E+02  0.51100000000E-03 0. -1.
    9900012    2    1    2    0    0  0.11264821580E+02  0.14805915784E+02  0.21372819008E+01  0.72461566240E+02  0.69999994719E+02 0.  0.
        -12    1    1    2    0    0 -0.11264821580E+02 -0.14805915784E+02 -0.21372819008E+01  0.18726433760E+02  0.00000000000E+00 0.  1.
         11    1    3    3    0    0  0.33749009405E+01 -0.10144798334E+01  0.31679578953E+02  0.31874987821E+02  0.51100000000E-03 0. -1.
        -11    1    3    3    0    0  0.81388665535E+00  0.15380107774E+02 -0.69300094376E+01  0.16888906350E+02  0.51100000000E-03 0.  1.
         12    1    3    3    0    0  0.70760339841E+01  0.44028784314E+00 -0.22612287615E+02  0.23697672069E+02  0.00000000000E+00 0. -1.
</event>
<event>
 7    1  0.1826069E-013  0.7246161E+02  0.7816164E-02  0.1226708E+00
        -11   -1    0    0    0    0  0.00000000000E+00  0.00000000000E+00  0.45593999997E+02  0.45594000000E+02  0.51100000000E-03 0. -1.
         11   -1    0    0    0    0 -0.00000000000E+00 -0.00000000000E+00 -0.45593999997E+02  0.45594000000E+02  0.51100000000E-03 0.  1.
    9900012    2    1    2    0    0 -0.12314069402E+02  0.49385971951E+01  0.13215585572E+02  0.72461608209E+02  0.70000049391E+02 0.  0.
        -12    1    1    2    0    0  0.12314069402E+02 -0.49385971951E+01 -0.13215585572E+02  0.18726391791E+02  0.00000000000E+00 0.  1.
         11    1    3    3    0    0 -0.11277207104E+02 -0.18843102996E+02  0.94582166320E+01  0.23910160868E+02  0.51100000000E-03 0. -1.
        -11    1    3    3    0    0 -0.17334531844E+02  0.12068548804E+02 -0.10833373849E+02  0.23738109734E+02  0.51100000000E-03 0.  1.
        -12    1    3    3    0    0  0.16297669547E+02  0.11713151387E+02  0.14590742790E+02  0.24813337608E+02  0.00000000000E+00 0.  1.
</event>
<event>
 7    1  0.1826069E-013  0.7246161E+02  0.7816164E-02  0.1226708E+00
        -11   -1    0    0    0    0  0.00000000000E+00  0.00000000000E+00  0.45593999997E+02  0.45594000000E+02  0.51100000000E-03 0.  1.
         11   -1    0    0    0    0 -0.00000000000E+00 -0.00000000000E+00 -0.45593999997E+02  0.45594000000E+02  0.51100000000E-03 0. -1.
    9900012    2    1    2    0    0 -0.15247185474E+02 -0.41671712069E+01 -0.10041694359E+02  0.72461612031E+02  0.70000054370E+02 0.  0.
        -12    1    1    2    0    0  0.15247185474E+02  0.41671712069E+01  0.10041694359E+02  0.18726387969E+02  0.00000000000E+00 0.  1.
         11    1    3    3    0    0 -0.17299205535E+02  0.49963732509E+01 -0.23014297042E+02  0.29221295769E+02  0.51100000000E-03 0. -1.
        -11    1    3    3    0    0  0.80985116632E+01  0.14194955510E+02  0.93876988085E+01  0.18847056594E+02  0.51100000000E-03 0.  1.
        -12    1    3    3    0    0 -0.60464916019E+01 -0.23358499968E+02  0.35849038745E+01  0.24393259668E+02  0.00000000000E+00 0.  1.
</event>
<event>
 7    1  0.1826069E-013  0.7246156E+02  0.7816164E-02  0.1226708E+00
        -11   -1    0    0    0    0  0.00000000000E+00  0.00000000000E+00  0.45593999997E+02  0.45594000000E+02  0.51100000000E-03 0. -1.
         11   -1    0    0    0    0 -0.00000000000E+00 -0.00000000000E+00 -0.45593999997E+02  0.45594000000E+02  0.51100000000E-03 0.  1.
    9900012    2    1    2    0    0 -0.18003945588E+02  0.41438077421E+01  0.30604342783E+01  0.72461562610E+02  0.69999989990E+02 0.  0.
        -12    1    1    2    0    0  0.18003945588E+02 -0.41438077421E+01 -0.30604342783E+01  0.18726437390E+02  0.00000000000E+00 0.  1.
         11    1    3    3    0    0  0.12019999486E+02 -0.89807255503E+01  0.12790753164E+02  0.19716419193E+02  0.51100000000E-03 0. -1.
        -11    1    3    3    0    0 -0.16483061258E+02  0.26679933815E+02 -0.11726097862E+02  0.33481510541E+02  0.51100000000E-03 0.  1.
         12    1    3    3    0    0 -0.13540883816E+02 -0.13555400522E+02  0.19957789771E+01  0.19263632876E+02  0.00000000000E+00 0. -1.
</event>
<event>
 7    1  0.1826069E-013  0.7246158E+02  0.7816164E-02  0.1226708E+00
        -11   -1    0    0    0    0  0.00000000000E+00  0.00000000000E+00  0.45593999997E+02  0.45594000000E+02  0.51100000000E-03 0.  1.
         11   -1    0    0    0    0 -0.00000000000E+00 -0.00000000000E+00 -0.45593999997E+02  0.45594000000E+02  0.51100000000E-03 0. -1.
    9900012    2    1    2    0    0 -0.51019164296E+01  0.17788549787E+02  0.28664718342E+01  0.72461582416E+02  0.70000015790E+02 0.  0.
        -12    1    1    2    0    0  0.51019164296E+01 -0.17788549787E+02 -0.28664718342E+01  0.18726417584E+02  0.00000000000E+00 0.  1.
         11    1    3    3    0    0  0.26655279562E+02  0.10156769019E+02  0.41621766258E+01  0.28826855533E+02  0.51100000000E-03 0. -1.
        -11    1    3    3    0    0 -0.16691567045E+02 -0.72440668733E+01  0.87614235148E+01  0.20195233536E+02  0.51100000000E-03 0.  1.
         12    1    3    3    0    0 -0.15065628946E+02  0.14875847641E+02 -0.10057128306E+02  0.23439493347E+02  0.00000000000E+00 0. -1.
</event>
<event>
 7    1  0.1826069E-013  0.7246145E+02  0.7816164E-02  0.1226708E+00
        -11   -1    0    0    0    0  0.00000000000E+00  0.00000000000E+00  0.45593999997E+02  0.45594000000E+02  0.51100000000E-03 0.  1.
         11   -1    0    0    0    0 -0.00000000000E+00 -0.00000000000E+00 -0.45593999997E+02  0.45594000000E+02  0.51100000000E-03 0. -1.
    9900012    2    1    2    0    0  0.17060565276E+02  0.49224104296E+00 -0.77057469136E+01  0.72461448682E+02  0.69999841577E+02 0.  0.
        -12    1    1    2    0    0 -0.17060565276E+02 -0.49224104296E+00  0.77057469136E+01  0.18726551318E+02  0.00000000000E+00 0.  1.
         11    1    3    3    0    0 -0.17901106219E+02  0.22163806725E+02  0.15531558904E+01  0.28532371544E+02  0.51100000000E-03 0. -1.
        -11    1    3    3    0    0  0.30021335929E+02 -0.13662530496E+02 -0.10062168111E+02  0.34484671637E+02  0.51100000000E-03 0.  1.
        -12    1    3    3    0    0  0.49403355662E+01 -0.80090351859E+01  0.80326530679E+00  0.94444055011E+01  0.00000000000E+00 0.  1.
</event>
<event>
 7    1  0.1826069E-013  0.7246156E+02  0.7816164E-02  0.1226708E+00
        -11   -1    0    0    0    0  0.00000000000E+00  0.00000000000E+00  0.45593999997E+02  0.45594000000E+02  0.51100000000E-03 0. -1.
         11   -1    0    0    0    0 -0.00000000000E+00 -0.00000000000E+00 -0.45593999997E+02  0.45594000000E+02  0.51100000000E-03 0.  1.
    9900012    2    1    2    0    0  0.12730806227E+02  0.11913487870E+02  0.68318980570E+01  0.72461562766E+02  0.69999990193E+02 0.  0.
        -12    1    1    2    0    0 -0.12730806227E+02 -0.11913487870E+02 -0.68318980570E+01  0.18726437234E+02  0.00000000000E+00 0.  1.
         11    1    3    3    0    0 -0.17414039041E+02  0.16814181257E+02  0.42438796669E+01  0.24575922402E+02  0.51100000000E-03 0. -1.
        -11    1    3    3    0    0  0.60372549494E+01 -0.18477953971E+02 -0.29703398149E+01  0.19664845516E+02  0.51100000000E-03 0.  1.
         12    1    3    3    0    0  0.24107590318E+02  0.13577260584E+02  0.55583582050E+01  0.28220794848E+02  0.00000000000E+00 0. -1.
</event>
<event>
 7    1  0.1826069E-013  0.7246164E+02  0.7816164E-02  0.1226708E+00
        -11   -1    0    0    0    0  0.00000000000E+00  0.00000000000E+00  0.45593999997E+02  0.45594000000E+02  0.51100000000E-03 0.  1.
         11   -1    0    0    0    0 -0.00000000000E+00 -0.00000000000E+00 -0.45593999997E+02  0.45594000000E+02  0.51100000000E-03 0. -1.
    9900012    2    1    2    0    0 -0.41212255859E+01 -0.17443002529E+02  0.54252701846E+01  0.72461644398E+02  0.70000096534E+02 0.  0.
        -12    1    1    2    0    0  0.41212255859E+01  0.17443002529E+02 -0.54252701846E+01  0.18726355602E+02  0.00000000000E+00 0.  1.
         11    1    3    3    0    0  0.21291912340E+02 -0.50053647776E+01  0.33509052232E+01  0.22127534289E+02  0.51100000000E-03 0. -1.
        -11    1    3    3    0    0 -0.23522642100E+02  0.21570052244E+01 -0.14853695951E+02  0.27903398477E+02  0.51100000000E-03 0.  1.
         12    1    3    3    0    0 -0.18904958251E+01 -0.14594642976E+02  0.16928060912E+02  0.22430711632E+02  0.00000000000E+00 0. -1.
</event>
<event>
 7    1  0.1826069E-013  0.7246163E+02  0.7816164E-02  0.1226708E+00
        -11   -1    0    0    0    0  0.00000000000E+00  0.00000000000E+00  0.45593999997E+02  0.45594000000E+02  0.51100000000E-03 0.  1.
         11   -1    0    0    0    0 -0.00000000000E+00 -0.00000000000E+00 -0.45593999997E+02  0.45594000000E+02  0.51100000000E-03 0. -1.
    9900012    2    1    2    0    0 -0.77563843308E+01 -0.16756135035E+02  0.31220748264E+01  0.72461630613E+02  0.70000078576E+02 0.  0.
        -12    1    1    2    0    0  0.77563843308E+01  0.16756135035E+02 -0.31220748264E+01  0.18726369387E+02  0.00000000000E+00 0.  1.
         11    1    3    3    0    0 -0.99426792359E+01  0.20965709012E+01 -0.16986132430E+02  0.19793462940E+02  0.51100000000E-03 0. -1.
        -11    1    3    3    0    0 -0.16871388965E+01 -0.15491401613E+02  0.34248276427E+02  0.37626777700E+02  0.51100000000E-03 0.  1.
        -12    1    3    3    0    0  0.38734338016E+01 -0.33613043234E+01 -0.14140069170E+02  0.15041389973E+02  0.00000000000E+00 0.  1.
</event>
<event>
 7    1  0.1826069E-013  0.7246159E+02  0.7816164E-02  0.1226708E+00
        -11   -1    0    0    0    0  0.00000000000E+00  0.00000000000E+00  0.45593999997E+02  0.45594000000E+02  0.51100000000E-03 0.  1.
         11   -1    0    0    0    0 -0.00000000000E+00 -0.00000000000E+00 -0.45593999997E+02  0.45594000000E+02  0.51100000000E-03 0. -1.
    9900012    2    1    2    0    0  0.12583515334E+02 -0.12030834035E+02  0.68987411718E+01  0.72461589359E+02  0.70000024836E+02 0.  0.
        -12    1    1    2    0    0 -0.12583515334E+02  0.12030834035E+02 -0.68987411718E+01  0.18726410641E+02  0.00000000000E+00 0.  1.
         11    1    3    3    0    0 -0.59922643536E+00 -0.14267819584E+02 -0.43246105502E+00  0.14286944068E+02  0.51100000000E-03 0. -1.
        -11    1    3    3    0    0 -0.10886518753E+02  0.11581896714E+02  0.23010737027E+02  0.27966956231E+02  0.51100000000E-03 0.  1.
        -12    1    3    3    0    0  0.24069260522E+02 -0.93449111650E+01 -0.15679534800E+02  0.30207689059E+02  0.00000000000E+00 0.  1.
</event>
<event>
 7    1  0.1826069E-013  0.7246155E+02  0.7816164E-02  0.1226708E+00
        -11   -1    0    0    0    0  0.00000000000E+00  0.00000000000E+00  0.45593999997E+02  0.45594000000E+02  0.51100000000E-03 0.  1.
         11   -1    0    0    0    0 -0.00000000000E+00 -0.00000000000E+00 -0.45593999997E+02  0.45594000000E+02  0.51100000000E-03 0. -1.
    9900012    2    1    2    0    0  0.11468908923E+02  0.14626494598E+02  0.22825204435E+01  0.72461545031E+02  0.69999967090E+02 0.  0.
        -12    1    1    2    0    0 -0.11468908923E+02 -0.14626494598E+02 -0.22825204435E+01  0.18726454969E+02  0.00000000000E+00 0.  1.
         11    1    3    3    0    0 -0.58385086976E+01 -0.13183157450E+02  0.19735912728E+02  0.24441564509E+02  0.51100000000E-03 0. -1.
        -11    1    3    3    0    0  0.13334395709E+02  0.19185992433E+02  0.47759073094E+01  0.23847802948E+02  0.51100000000E-03 0.  1.
         12    1    3    3    0    0  0.39730219121E+01  0.86236596161E+01 -0.22229299594E+02  0.24172177575E+02  0.00000000000E+00 0. -1.
</event>
<event>
 7    1  0.1826069E-013  0.7246159E+02  0.7816164E-02  0.1226708E+00
        -11   -1    0    0    0    0  0.00000000000E+00  0.00000000000E+00  0.45593999997E+02  0.45594000000E+02  0.51100000000E-03 0. -1.
         11   -1    0    0    0    0 -0.00000000000E+00 -0.00000000000E+00 -0.45593999997E+02  0.45594000000E+02  0.51100000000E-03 0.  1.
    9900012    2    1    2    0    0  0.43686372179E+01 -0.71001208743E+01  0.16768474979E+02  0.72461589221E+02  0.70000024655E+02 0.  0.
        -12    1    1    2    0    0 -0.43686372179E+01  0.71001208743E+01 -0.16768474979E+02  0.18726410779E+02  0.00000000000E+00 0.  1.
         11    1    3    3    0    0 -0.13252021512E+02  0.90742368539E+01 -0.31665271730E+01  0.16370239559E+02  0.51100000000E-03 0. -1.
        -11    1    3    3    0    0  0.29862413733E+02 -0.46738918768E+01  0.26685899667E+00  0.30227143980E+02  0.51100000000E-03 0.  1.
        -12    1    3    3    0    0 -0.12241755003E+02 -0.11500465851E+02  0.19668143155E+02  0.25864205681E+02  0.00000000000E+00 0.  1.
</event>
<event>
 7    1  0.1826069E-013  0.7246155E+02  0.7816164E-02  0.1226708E+00
        -11   -1    0    0    0    0  0.00000000000E+00  0.00000000000E+00  0.45593999997E+02  0.45594000000E+02  0.51100000000E-03 0.  1.
         11   -1    0    0    0    0 -0.00000000000E+00 -0.00000000000E+00 -0.45593999997E+02  0.45594000000E+02  0.51100000000E-03 0. -1.
    9900012    2    1    2    0    0  0.15185593494E+02  0.17678959178E+01 -0.10814442665E+02  0.72461551434E+02  0.69999975431E+02 0.  0.
        -12    1    1    2    0    0 -0.15185593494E+02 -0.17678959178E+01  0.10814442665E+02  0.18726448566E+02  0.00000000000E+00 0.  1.
         11    1    3    3    0    0  0.23045269365E+01  0.11093317528E+02 -0.30295242693E+02  0.32344617300E+02  0.51100000000E-03 0. -1.
        -11    1    3    3    0    0  0.21137092755E+02 -0.13674441661E+02  0.10875729262E+02  0.27423503280E+02  0.51100000000E-03 0.  1.
        -12    1    3    3    0    0 -0.82560261984E+01  0.43490200506E+01  0.86050707659E+01  0.12693430855E+02  0.00000000000E+00 0.  1.
</event>
<event>
 7    1  0.1826069E-013  0.7246159E+02  0.7816164E-02  0.1226708E+00
        -11   -1    0    0    0    0  0.00000000000E+00  0.00000000000E+00  0.45593999997E+02  0.45594000000E+02  0.51100000000E-03 0.  1.
         11   -1    0    0    0    0 -0.00000000000E+00 -0.00000000000E+00 -0.45593999997E+02  0.45594000000E+02  0.51100000000E-03 0. -1.
    9900012    2    1    2    0    0  0.15030772738E+02 -0.48407439111E+01 -0.10065850228E+02  0.72461594271E+02  0.70000031234E+02 0.  0.
        -12    1    1    2    0    0 -0.15030772738E+02  0.48407439111E+01  0.10065850228E+02  0.18726405729E+02  0.00000000000E+00 0.  1.
         11    1    3    3    0    0 -0.23419899256E+02  0.11836175888E+01 -0.60997951442E+01  0.24230149253E+02  0.51100000000E-03 0. -1.
        -11    1    3    3    0    0  0.10811258778E+02 -0.15402986527E+02 -0.35665562471E+00  0.18821862655E+02  0.51100000000E-03 0.  1.
         12    1    3    3    0    0  0.27639413216E+02  0.93786250270E+01 -0.36093994590E+01  0.29409582363E+02  0.00000000000E+00 0. -1.
</event>
<event>
 7    1  0.1826069E-013  0.7246160E+02  0.7816164E-02  0.1226708E+00
        -11   -1    0    0    0    0  0.00000000000E+00  0.00000000000E+00  0.45593999997E+02  0.45594000000E+02  0.51100000000E-03 0.  1.
         11   -1    0    0    0    0 -0.00000000000E+00 -0.00000000000E+00 -0.45593999997E+02  0.45594000000E+02  0.51100000000E-03 0. -1.
    9900012    2    1    2    0    0 -0.41296828995E+01  0.70542778746E+01 -0.16848174131E+02  0.72461599151E+02  0.70000037592E+02 0.  0.
        -12    1    1    2    0    0  0.41296828995E+01 -0.70542778746E+01  0.16848174131E+02  0.18726400849E+02  0.00000000000E+00 0.  1.
         11    1    3    3    0    0  0.20980448842E+02  0.68344696673E+01 -0.15779722258E+02  0.27127271224E+02  0.51100000000E-03 0. -1.
        -11    1    3    3    0    0 -0.31880484621E+02 -0.65489527781E+00 -0.10606552178E+02  0.33604957028E+02  0.51100000000E-03 0.  1.
        -12    1    3    3    0    0  0.67703528792E+01  0.87470348516E+00  0.95381003043E+01  0.11729370900E+02  0.00000000000E+00 0.  1.
</event>
<event>
 7    1  0.1826069E-013  0.7246100E+02  0.7816164E-02  0.1226710E+00
        -11   -1    0    0    0    0  0.00000000000E+00  0.00000000000E+00  0.45593999997E+02  0.45594000000E+02  0.51100000000E-03 0.  1.
         11   -1    0    0    0    0 -0.00000000000E+00 -0.00000000000E+00 -0.45593999997E+02  0.45594000000E+02  0.51100000000E-03 0. -1.
    9900012    2    1    2    0    0  0.16489076167E+02 -0.85061643766E+01  0.25408809446E+01  0.72460999674E+02  0.69999256657E+02 0.  0.
        -12    1    1    2    0    0 -0.16489076167E+02  0.85061643766E+01 -0.25408809446E+01  0.18727000326E+02  0.00000000000E+00 0.  1.
         11    1    3    3    0    0 -0.97348980941E+01 -0.45059465028E+01 -0.14386047688E+02  0.17945198888E+02  0.51100000000E-03 0. -1.
        -11    1    3    3    0    0  0.25613627723E+02 -0.19578637384E+02  0.20907470031E+02  0.38425294667E+02  0.51100000000E-03 0.  1.
         12    1    3    3    0    0  0.61034653830E+00  0.15578419510E+02 -0.39805413987E+01  0.16090506119E+02  0.00000000000E+00 0. -1.
</event>
<event>
 7    1  0.1826069E-013  0.7246157E+02  0.7816164E-02  0.1226708E+00
        -11   -1    0    0    0    0  0.00000000000E+00  0.00000000000E+00  0.45593999997E+02  0.45594000000E+02  0.51100000000E-03 0. -1.
         11   -1    0    0    0    0 -0.00000000000E+00 -0.00000000000E+00 -0.45593999997E+02  0.45594000000E+02  0.51100000000E-03 0.  1.
    9900012    2    1    2    0    0  0.14718209955E+02  0.97352423360E+01 -0.62672467111E+01  0.72461574047E+02  0.70000004889E+02 0.  0.
        -12    1    1    2    0    0 -0.14718209955E+02 -0.97352423360E+01  0.62672467111E+01  0.18726425953E+02  0.00000000000E+00 0.  1.
         11    1    3    3    0    0  0.26198460851E+02 -0.54427576742E+01 -0.17121774413E+02  0.31766934403E+02  0.51100000000E-03 0.  1.
        -11    1    3    3    0    0 -0.56391196037E+01 -0.91264491404E+01 -0.41930231460E+01  0.11518384747E+02  0.51100000000E-03 0. -1.
         12    1    3    3    0    0 -0.58411312921E+01  0.24304449151E+02  0.15047550848E+02  0.29176254897E+02  0.00000000000E+00 0. -1.
</event>
<event>
 8    1  0.1826069E-013  0.7246177E+02  0.7816164E-02  0.1226707E+00
        -11   -1    0    0    0    0  0.00000000000E+00  0.00000000000E+00  0.45593999997E+02  0.45594000000E+02  0.51100000000E-03 0.  1.
         11   -1    0    0    0    0 -0.00000000000E+00 -0.00000000000E+00 -0.45593999997E+02  0.45594000000E+02  0.51100000000E-03 0. -1.
    9900012    2    1    2    0    0  0.80797033704E+01 -0.65579638147E+01 -0.15568665108E+02  0.72461766284E+02  0.70000255313E+02 0.  0.
        -24    2    3    3    0    0 -0.10287187620E+02  0.32305650959E+01 -0.12435506786E+02  0.51414802983E+02  0.48709109587E+02 0.  0.
        -12    1    1    2    0    0 -0.80797033704E+01  0.65579638147E+01  0.15568665108E+02  0.18726233716E+02  0.00000000000E+00 0.  1.
         11    1    4    4    0    0 -0.89733181341E+01  0.12772401898E+02 -0.28609092064E+02  0.32590410208E+02  0.51100000000E-03 0. -1.
        -11    1    3    3    0    0  0.18366890990E+02 -0.97885289106E+01 -0.31331583213E+01  0.21046963302E+02  0.51100000000E-03 0.  1.
        -12    1    4    4    0    0 -0.13138694859E+01 -0.95418368021E+01  0.16173585278E+02  0.18824392774E+02  0.00000000000E+00 0.  1.
</event>
<event>
 7    1  0.1966010E-013  0.7246162E+02  0.7816164E-02  0.1226708E+00
        -11   -1    0    0    0    0  0.00000000000E+00  0.00000000000E+00  0.45593999997E+02  0.45594000000E+02  0.51100000000E-03 0. -1.
         11   -1    0    0    0    0 -0.00000000000E+00 -0.00000000000E+00 -0.45593999997E+02  0.45594000000E+02  0.51100000000E-03 0.  1.
    9900012    2    1    2    0    0  0.86836902468E+01  0.15339962205E+02  0.63210944093E+01  0.72461624182E+02  0.70000070198E+02 0.  0.
        -12    1    1    2    0    0 -0.86836902468E+01 -0.15339962205E+02 -0.63210944093E+01  0.18726375818E+02  0.00000000000E+00 0.  1.
         11    1    3    3    0    0  0.21005663553E+01  0.89173505712E+01  0.21646145570E+02  0.23505044959E+02  0.51100000000E-03 0. -1.
        -11    1    3    3    0    0 -0.65767523181E+01  0.16615719596E+02 -0.24207739693E+02  0.30089042358E+02  0.51100000000E-03 0.  1.
         12    1    3    3    0    0  0.13159876210E+02 -0.10193107962E+02  0.88826885320E+01  0.18867536864E+02  0.00000000000E+00 0. -1.
</event>
<event>
 7    1  0.1927696E-013  0.7246158E+02  0.7816164E-02  0.1226708E+00
        -11   -1    0    0    0    0  0.00000000000E+00  0.00000000000E+00  0.45593999997E+02  0.45594000000E+02  0.51100000000E-03 0.  1.
         11   -1    0    0    0    0 -0.00000000000E+00 -0.00000000000E+00 -0.45593999997E+02  0.45594000000E+02  0.51100000000E-03 0. -1.
    9900012    2    1    2    0    0 -0.69746377572E+01 -0.15894552417E+02  0.70282596358E+01  0.72461580110E+02  0.70000012787E+02 0.  0.
        -12    1    1    2    0    0  0.69746377572E+01  0.15894552417E+02 -0.70282596358E+01  0.18726419890E+02  0.00000000000E+00 0.  1.
         11    1    3    3    0    0 -0.26748092796E+02 -0.92938214076E+01  0.14485523655E+02  0.31806697100E+02  0.51100000000E-03 0. -1.
        -11    1    3    3    0    0  0.22839950613E+02 -0.13962297322E+01  0.78557110228E+01  0.24193490806E+02  0.51100000000E-03 0.  1.
        -12    1    3    3    0    0 -0.30664955735E+01 -0.52045012775E+01 -0.15312975042E+02  0.16461392204E+02  0.00000000000E+00 0.  1.
</event>
<event>
 7    1  0.1826069E-013  0.7246157E+02  0.7816164E-02  0.1226708E+00
        -11   -1    0    0    0    0  0.00000000000E+00  0.00000000000E+00  0.45593999997E+02  0.45594000000E+02  0.51100000000E-03 0. -1.
         11   -1    0    0    0    0 -0.00000000000E+00 -0.00000000000E+00 -0.45593999997E+02  0.45594000000E+02  0.51100000000E-03 0.  1.
    9900012    2    1    2    0    0  0.17918371175E+02  0.54205261737E+01 -0.47874639524E+00  0.72461566071E+02  0.69999994499E+02 0.  0.
        -12    1    1    2    0    0 -0.17918371175E+02 -0.54205261737E+01  0.47874639524E+00  0.18726433929E+02  0.00000000000E+00 0.  1.
         11    1    3    3    0    0  0.22515953132E+02 -0.16665383326E+02 -0.56019557011E+01  0.28567202432E+02  0.51100000000E-03 0. -1.
        -11    1    3    3    0    0 -0.18966145793E+02  0.15114710937E+02 -0.52986400681E+01  0.24824277629E+02  0.51100000000E-03 0.  1.
         12    1    3    3    0    0  0.14368563836E+02  0.69711985621E+01  0.10421849374E+02  0.19070086011E+02  0.00000000000E+00 0. -1.
</event>
<event>
 7    1  0.1826069E-013  0.7246158E+02  0.7816164E-02  0.1226708E+00
        -11   -1    0    0    0    0  0.00000000000E+00  0.00000000000E+00  0.45593999997E+02  0.45594000000E+02  0.51100000000E-03 0.  1.
         11   -1    0    0    0    0 -0.00000000000E+00 -0.00000000000E+00 -0.45593999997E+02  0.45594000000E+02  0.51100000000E-03 0. -1.
    9900012    2    1    2    0    0  0.18276236351E+02  0.26263080554E+00 -0.40729449836E+01  0.72461583607E+02  0.70000017342E+02 0.  0.
        -12    1    1    2    0    0 -0.18276236351E+02 -0.26263080554E+00  0.40729449836E+01  0.18726416393E+02  0.00000000000E+00 0.  1.
         11    1    3    3    0    0  0.30033912333E+01  0.26865863397E+02 -0.67271316517E+01  0.27857660984E+02  0.51100000000E-03 0. -1.
        -11    1    3    3    0    0  0.16999078316E+02 -0.33776018955E+01  0.10214947498E+02  0.20117703915E+02  0.51100000000E-03 0.  1.
         12    1    3    3    0    0 -0.17262331988E+01 -0.23225630696E+02 -0.75607608297E+01  0.24486218708E+02  0.00000000000E+00 0. -1.
</event>
<event>
 7    1  0.1826069E-013  0.7246157E+02  0.7816164E-02  0.1226708E+00
        -11   -1    0    0    0    0  0.00000000000E+00  0.00000000000E+00  0.45593999997E+02  0.45594000000E+02  0.51100000000E-03 0. -1.
         11   -1    0    0    0    0 -0.00000000000E+00 -0.00000000000E+00 -0.45593999997E+02  0.45594000000E+02  0.51100000000E-03 0.  1.
    9900012    2    1    2    0    0 -0.12027523660E+02  0.13354328752E+02  0.52611662747E+01  0.72461567014E+02  0.69999995727E+02 0.  0.
        -12    1    1    2    0    0  0.12027523660E+02 -0.13354328752E+02 -0.52611662747E+01  0.18726432986E+02  0.00000000000E+00 0.  1.
         11    1    3    3    0    0  0.17233390131E+02  0.13687654361E+02  0.18109034864E+02  0.28500504579E+02  0.51100000000E-03 0. -1.
        -11    1    3    3    0    0 -0.18205138532E+02  0.98911465957E+01  0.42784538233E+01  0.21155779762E+02  0.51100000000E-03 0.  1.
         12    1    3    3    0    0 -0.11055775259E+02 -0.10224472204E+02 -0.17126322412E+02  0.22805282673E+02  0.00000000000E+00 0. -1.
</event>
<event>
 7    1  0.1826069E-013  0.7246152E+02  0.7816164E-02  0.1226708E+00
        -11   -1    0    0    0    0  0.00000000000E+00  0.00000000000E+00  0.45593999997E+02  0.45594000000E+02  0.51100000000E-03 0.  1.
         11   -1    0    0    0    0 -0.00000000000E+00 -0.00000000000E+00 -0.45593999997E+02  0.45594000000E+02  0.51100000000E-03 0. -1.
    9900012    2    1    2    0    0 -0.12545502181E+02 -0.13592353956E+02 -0.29221853132E+01  0.72461524676E+02  0.69999940574E+02 0.  0.
        -12    1    1    2    0    0  0.12545502181E+02  0.13592353956E+02  0.29221853132E+01  0.18726475324E+02  0.00000000000E+00 0.  1.
         11    1    3    3    0    0  0.30212289097E+01 -0.20002415410E+01 -0.16945427332E+02  0.17328482278E+02  0.51100000000E-03 0. -1.
        -11    1    3    3    0    0  0.10417486328E+02 -0.15458907159E+02  0.20871936047E+02  0.27984630542E+02  0.51100000000E-03 0.  1.
        -12    1    3    3    0    0 -0.25984217418E+02  0.38667947440E+01 -0.68486940286E+01  0.27148411856E+02  0.00000000000E+00 0.  1.
</event>
<event>
 7    1  0.1826069E-013  0.7246159E+02  0.7816164E-02  0.1226708E+00
        -11   -1    0    0    0    0  0.00000000000E+00  0.00000000000E+00  0.45593999997E+02  0.45594000000E+02  0.51100000000E-03 0. -1.
         11   -1    0    0    0    0 -0.00000000000E+00 -0.00000000000E+00 -0.45593999997E+02  0.45594000000E+02  0.51100000000E-03 0.  1.
    9900012    2    1    2    0    0  0.43888329159E+01 -0.50998372625E+01  0.17475935135E+02  0.72461588083E+02  0.70000023173E+02 0.  0.
        -12    1    1    2    0    0 -0.43888329159E+01  0.50998372625E+01 -0.17475935135E+02  0.18726411917E+02  0.00000000000E+00 0.  1.
         11    1    3    3    0    0  0.62753938117E+01  0.63770899755E+01  0.38596071493E+02  0.39619497460E+02  0.51100000000E-03 0. -1.
        -11    1    3    3    0    0  0.49265275836E+01 -0.17110373790E+01 -0.20241023606E+02  0.20902089844E+02  0.51100000000E-03 0.  1.
        -12    1    3    3    0    0 -0.68130884794E+01 -0.97658898589E+01 -0.87911275214E+00  0.11940000779E+02  0.00000000000E+00 0.  1.
</event>
<event>
 7    1  0.1826069E-013  0.7246121E+02  0.7816164E-02  0.1226709E+00
        -11   -1    0    0    0    0  0.00000000000E+00  0.00000000000E+00  0.45593999997E+02  0.45594000000E+02  0.51100000000E-03 0. -1.
         11   -1    0    0    0    0 -0.00000000000E+00 -0.00000000000E+00 -0.45593999997E+02  0.45594000000E+02  0.51100000000E-03 0.  1.
    9900012    2    1    2    0    0  0.28190812145E+01  0.11422919120E+02  0.14569223936E+02  0.72461212069E+02  0.69999533343E+02 0.  0.
        -12    1    1    2    0    0 -0.28190812145E+01 -0.11422919120E+02 -0.14569223936E+02  0.18726787931E+02  0.00000000000E+00 0.  1.
         11    1    3    3    0    0 -0.24155825078E+02  0.84981954703E+01 -0.35657239008E+01  0.25854160181E+02  0.51100000000E-03 0. -1.
        -11    1    3    3    0    0  0.24076856860E+02  0.31670440456E+01  0.27566449217E+02  0.36737369624E+02  0.51100000000E-03 0.  1.
         12    1    3    3    0    0  0.28980494332E+01 -0.24232039539E+00 -0.94315013805E+01  0.98696822635E+01  0.00000000000E+00 0. -1.
</event>
<event>
 7    1  0.1826069E-013  0.7246158E+02  0.7816164E-02  0.1226708E+00
        -11   -1    0    0    0    0  0.00000000000E+00  0.00000000000E+00  0.45593999997E+02  0.45594000000E+02  0.51100000000E-03 0. -1.
         11   -1    0    0    0    0 -0.00000000000E+00 -0.00000000000E+00 -0.45593999997E+02  0.45594000000E+02  0.51100000000E-03 0.  1.
    9900012    2    1    2    0    0 -0.10914000076E+02  0.13696015105E+02  0.66319385233E+01  0.72461579200E+02  0.70000011601E+02 0.  0.
        -12    1    1    2    0    0  0.10914000076E+02 -0.13696015105E+02 -0.66319385233E+01  0.18726420800E+02  0.00000000000E+00 0.  1.
         11    1    3    3    0    0 -0.86508111558E+00  0.31281505736E+02 -0.87369927103E+01  0.32490244818E+02  0.51100000000E-03 0. -1.
        -11    1    3    3    0    0 -0.16416849125E+02 -0.22685919152E+01  0.16446639469E+02  0.23348477350E+02  0.51100000000E-03 0.  1.
         12    1    3    3    0    0  0.63679301645E+01 -0.15316898717E+02 -0.10777082352E+01  0.16622857032E+02  0.00000000000E+00 0. -1.
</event>
<event>
 7    1  0.1826069E-013  0.7246101E+02  0.7816164E-02  0.1226710E+00
        -11   -1    0    0    0    0  0.00000000000E+00  0.00000000000E+00  0.45593999997E+02  0.45594000000E+02  0.51100000000E-03 0.  1.
         11   -1    0    0    0    0 -0.00000000000E+00 -0.00000000000E+00 -0.45593999997E+02  0.45594000000E+02  0.51100000000E-03 0. -1.
    9900012    2    1    2    0    0 -0.11973714814E+01 -0.23631097598E+01 -0.18538669875E+02  0.72461006996E+02  0.69999266196E+02 0.  0.
        -12    1    1    2    0    0  0.11973714814E+01  0.23631097598E+01  0.18538669875E+02  0.18726993004E+02  0.00000000000E+00 0.  1.
         11    1    3    3    0    0 -0.95023435341E+01  0.76300813752E+01 -0.33899349387E+02  0.36023305839E+02  0.51100000000E-03 0. -1.
        -11    1    3    3    0    0 -0.11312494230E+02 -0.16842279738E+01  0.77452493272E+01  0.13812966263E+02  0.51100000000E-03 0.  1.
         12    1    3    3    0    0  0.19617466283E+02 -0.83089631611E+01  0.76154301843E+01  0.22624734895E+02  0.00000000000E+00 0. -1.
</event>
<event>
 7    1  0.1826069E-013  0.7246159E+02  0.7816164E-02  0.1226708E+00
        -11   -1    0    0    0    0  0.00000000000E+00  0.00000000000E+00  0.45593999997E+02  0.45594000000E+02  0.51100000000E-03 0.  1.
         11   -1    0    0    0    0 -0.00000000000E+00 -0.00000000000E+00 -0.45593999997E+02  0.45594000000E+02  0.51100000000E-03 0. -1.
    9900012    2    1    2    0    0 -0.68748677934E+01  0.18233016545E+01 -0.17323111593E+02  0.72461590004E+02  0.70000025675E+02 0.  0.
        -12    1    1    2    0    0  0.68748677934E+01 -0.18233016545E+01  0.17323111593E+02  0.18726409996E+02  0.00000000000E+00 0.  1.
         11    1    3    3    0    0  0.38566917331E-03  0.49136498722E+01  0.20119134340E+02  0.20710468900E+02  0.51100000000E-03 0. -1.
        -11    1    3    3    0    0 -0.13163850217E+02  0.12018723277E+02 -0.11958340127E+02  0.21464821467E+02  0.51100000000E-03 0.  1.
         12    1    3    3    0    0  0.62885967548E+01 -0.15109071495E+02 -0.25483905806E+02  0.30286299637E+02  0.00000000000E+00 0. -1.
</event>
<event>
 7    1  0.1826069E-013  0.7246157E+02  0.7816164E-02  0.1226708E+00
        -11   -1    0    0    0    0  0.00000000000E+00  0.00000000000E+00  0.45593999997E+02  0.45594000000E+02  0.51100000000E-03 0.  1.
         11   -1    0    0    0    0 -0.00000000000E+00 -0.00000000000E+00 -0.45593999997E+02  0.45594000000E+02  0.51100000000E-03 0. -1.
    9900012    2    1    2    0    0  0.14158702451E+02  0.12253024203E+02  0.27134793240E+00  0.72461572501E+02  0.70000002874E+02 0.  0.
        -12    1    1    2    0    0 -0.14158702451E+02 -0.12253024203E+02 -0.27134793240E+00  0.18726427499E+02  0.00000000000E+00 0.  1.
         11    1    3    3    0    0 -0.17809508368E+02  0.15307211881E+02  0.46114547701E+01  0.23932296991E+02  0.51100000000E-03 0.  1.
        -11    1    3    3    0    0  0.51474273920E+01 -0.14355544651E+02 -0.10836528218E+02  0.18708501144E+02  0.51100000000E-03 0. -1.
        -12    1    3    3    0    0  0.26820783427E+02  0.11301356972E+02  0.64964213800E+01  0.29820774366E+02  0.00000000000E+00 0.  1.
</event>
<event>
 7    1  0.1826069E-013  0.7246161E+02  0.7816164E-02  0.1226708E+00
        -11   -1    0    0    0    0  0.00000000000E+00  0.00000000000E+00  0.45593999997E+02  0.45594000000E+02  0.51100000000E-03 0. -1.
         11   -1    0    0    0    0 -0.00000000000E+00 -0.00000000000E+00 -0.45593999997E+02  0.45594000000E+02  0.51100000000E-03 0.  1.
    9900012    2    1    2    0    0 -0.47963377611E+01 -0.16928397992E+02 -0.64111021450E+01  0.72461608324E+02  0.70000049540E+02 0.  0.
        -12    1    1    2    0    0  0.47963377611E+01  0.16928397992E+02  0.64111021450E+01  0.18726391676E+02  0.00000000000E+00 0.  1.
         11    1    3    3    0    0 -0.37987143297E+01  0.95950768071E+01 -0.26063381984E+02  0.28032046129E+02  0.51100000000E-03 0. -1.
        -11    1    3    3    0    0  0.12916697333E+02 -0.42752330463E+01  0.67091567022E+01  0.15170084756E+02  0.51100000000E-03 0.  1.
         12    1    3    3    0    0 -0.13914320764E+02 -0.22248241753E+02  0.12943123137E+02  0.29259477438E+02  0.00000000000E+00 0. -1.
</event>
<event>
 7    1  0.1826069E-013  0.7246160E+02  0.7816164E-02  0.1226708E+00
        -11   -1    0    0    0    0  0.00000000000E+00  0.00000000000E+00  0.45593999997E+02  0.45594000000E+02  0.51100000000E-03 0. -1.
         11   -1    0    0    0    0 -0.00000000000E+00 -0.00000000000E+00 -0.45593999997E+02  0.45594000000E+02  0.51100000000E-03 0.  1.
    9900012    2    1    2    0    0  0.38773769511E+01  0.18067261836E+02  0.30361473601E+01  0.72461596366E+02  0.70000033964E+02 0.  0.
        -12    1    1    2    0    0 -0.38773769511E+01 -0.18067261836E+02 -0.30361473601E+01  0.18726403634E+02  0.00000000000E+00 0.  1.
         11    1    3    3    0    0  0.12323423021E+02  0.21764771987E+02 -0.35722563490E+00  0.25013989386E+02  0.51100000000E-03 0.  1.
        -11    1    3    3    0    0  0.14713779717E+01 -0.17470196318E+02  0.17947793964E+02  0.25089759284E+02  0.51100000000E-03 0. -1.
        -12    1    3    3    0    0 -0.99174240413E+01  0.13772686167E+02 -0.14554420969E+02  0.22357847696E+02  0.00000000000E+00 0.  1.
</event>
<event>
 7    1  0.1826069E-013  0.7246159E+02  0.7816164E-02  0.1226708E+00
        -11   -1    0    0    0    0  0.00000000000E+00  0.00000000000E+00  0.45593999997E+02  0.45594000000E+02  0.51100000000E-03 0.  1.
         11   -1    0    0    0    0 -0.00000000000E+00 -0.00000000000E+00 -0.45593999997E+02  0.45594000000E+02  0.51100000000E-03 0. -1.
    9900012    2    1    2    0    0 -0.16591774992E+02  0.84697292969E+01 -0.19117900581E+01  0.72461594766E+02  0.70000031879E+02 0.  0.
        -12    1    1    2    0    0  0.16591774992E+02 -0.84697292969E+01  0.19117900581E+01  0.18726405234E+02  0.00000000000E+00 0.  1.
         11    1    3    3    0    0  0.99715488324E+01  0.83800066859E+01 -0.25095387102E+02  0.28274277219E+02  0.51100000000E-03 0. -1.
        -11    1    3    3    0    0 -0.28318217573E+02  0.27061888615E+01  0.92670376165E+01  0.29918604431E+02  0.51100000000E-03 0.  1.
        -12    1    3    3    0    0  0.17548937484E+01 -0.26164662505E+01  0.13916559427E+02  0.14268713117E+02  0.00000000000E+00 0.  1.
</event>
<event>
 7    1  0.1826069E-013  0.7246160E+02  0.7816164E-02  0.1226708E+00
        -11   -1    0    0    0    0  0.00000000000E+00  0.00000000000E+00  0.45593999997E+02  0.45594000000E+02  0.51100000000E-03 0. -1.
         11   -1    0    0    0    0 -0.00000000000E+00 -0.00000000000E+00 -0.45593999997E+02  0.45594000000E+02  0.51100000000E-03 0.  1.
    9900012    2    1    2    0    0  0.28194726164E+01  0.15413976131E+02  0.10253674491E+02  0.72461603481E+02  0.70000043232E+02 0.  0.
        -12    1    1    2    0    0 -0.28194726164E+01 -0.15413976131E+02 -0.10253674491E+02  0.18726396519E+02  0.00000000000E+00 0.  1.
         11    1    3    3    0    0  0.57288069815E+01 -0.23698341572E+02  0.11261492933E+02  0.26856132373E+02  0.51100000000E-03 0. -1.
        -11    1    3    3    0    0 -0.62935892877E+01  0.65625825781E+01 -0.80351465373E+01  0.12134262909E+02  0.51100000000E-03 0.  1.
         12    1    3    3    0    0  0.33842549226E+01  0.32549735126E+02  0.70273280945E+01  0.33471208199E+02  0.00000000000E+00 0. -1.
</event>
<event>
 7    1  0.1826069E-013  0.7246156E+02  0.7816164E-02  0.1226708E+00
        -11   -1    0    0    0    0  0.00000000000E+00  0.00000000000E+00  0.45593999997E+02  0.45594000000E+02  0.51100000000E-03 0.  1.
         11   -1    0    0    0    0 -0.00000000000E+00 -0.00000000000E+00 -0.45593999997E+02  0.45594000000E+02  0.51100000000E-03 0. -1.
    9900012    2    1    2    0    0 -0.11184324155E+01 -0.56025128620E+01 -0.17833685417E+02  0.72461564755E+02  0.69999992784E+02 0.  0.
        -12    1    1    2    0    0  0.11184324155E+01  0.56025128620E+01  0.17833685417E+02  0.18726435245E+02  0.00000000000E+00 0.  1.
         11    1    3    3    0    0  0.15401920028E+02 -0.14746641049E+02  0.13303665356E+02  0.25133047466E+02  0.51100000000E-03 0. -1.
        -11    1    3    3    0    0 -0.23829401524E+02  0.86612352961E-01 -0.23068838125E+02  0.33166536922E+02  0.51100000000E-03 0.  1.
         12    1    3    3    0    0  0.73090490812E+01  0.90575158341E+01 -0.80685126481E+01  0.14161980367E+02  0.00000000000E+00 0. -1.
</event>
<event>
 7    1  0.1826069E-013  0.7246158E+02  0.7816164E-02  0.1226708E+00
        -11   -1    0    0    0    0  0.00000000000E+00  0.00000000000E+00  0.45593999997E+02  0.45594000000E+02  0.51100000000E-03 0. -1.
         11   -1    0    0    0    0 -0.00000000000E+00 -0.00000000000E+00 -0.45593999997E+02  0.45594000000E+02  0.51100000000E-03 0.  1.
    9900012    2    1    2    0    0  0.15971272266E+02  0.41180073123E+01  0.88678697003E+01  0.72461584565E+02  0.70000018591E+02 0.  0.
        -12    1    1    2    0    0 -0.15971272266E+02 -0.41180073123E+01 -0.88678697003E+01  0.18726415435E+02  0.00000000000E+00 0.  1.
         11    1    3    3    0    0 -0.17459563512E+01  0.29536266269E+02 -0.43597403833E+01  0.29907302205E+02  0.51100000000E-03 0. -1.
        -11    1    3    3    0    0  0.22907324725E+02 -0.26619284428E+02  0.11525256410E+02  0.36961647219E+02  0.51100000000E-03 0.  1.
         12    1    3    3    0    0 -0.51900961085E+01  0.12010254717E+01  0.17023536735E+01  0.55926351417E+01  0.00000000000E+00 0. -1.
</event>
<event>
 7    1  0.1826069E-013  0.7246198E+02  0.7816164E-02  0.1226707E+00
        -11   -1    0    0    0    0  0.00000000000E+00  0.00000000000E+00  0.45593999997E+02  0.45594000000E+02  0.51100000000E-03 0.  1.
         11   -1    0    0    0    0 -0.00000000000E+00 -0.00000000000E+00 -0.45593999997E+02  0.45594000000E+02  0.51100000000E-03 0. -1.
    9900012    2    1    2    0    0  0.34315078274E+01 -0.18355757203E+02  0.13981345814E+01  0.72461979366E+02  0.70000532890E+02 0.  0.
        -12    1    1    2    0    0 -0.34315078274E+01  0.18355757203E+02 -0.13981345814E+01  0.18726020634E+02  0.00000000000E+00 0.  1.
         11    1    3    3    0    0  0.14411808952E+02 -0.28936300576E+02 -0.93008514287E+01  0.33638007757E+02  0.51100000000E-03 0. -1.
        -11    1    3    3    0    0 -0.19340553608E+02  0.36772885093E+01 -0.44608725029E+01  0.20186105330E+02  0.51100000000E-03 0.  1.
         12    1    3    3    0    0  0.83602524834E+01  0.69032548641E+01  0.15159858513E+02  0.18637866279E+02  0.00000000000E+00 0. -1.
</event>
<event>
 7    1  0.1826069E-013  0.7246158E+02  0.7816164E-02  0.1226708E+00
        -11   -1    0    0    0    0  0.00000000000E+00  0.00000000000E+00  0.45593999997E+02  0.45594000000E+02  0.51100000000E-03 0.  1.
         11   -1    0    0    0    0 -0.00000000000E+00 -0.00000000000E+00 -0.45593999997E+02  0.45594000000E+02  0.51100000000E-03 0. -1.
    9900012    2    1    2    0    0  0.16107464646E+02  0.29913285911E+01  0.90708428930E+01  0.72461584036E+02  0.70000017902E+02 0.  0.
        -12    1    1    2    0    0 -0.16107464646E+02 -0.29913285911E+01 -0.90708428930E+01  0.18726415964E+02  0.00000000000E+00 0.  1.
         11    1    3    3    0    0  0.29107732230E+02  0.23427236414E+02 -0.35768867703E+01  0.37535178178E+02  0.51100000000E-03 0. -1.
        -11    1    3    3    0    0 -0.11711996019E+02 -0.37770753386E+01  0.13409696213E+02  0.18200469820E+02  0.51100000000E-03 0.  1.
         12    1    3    3    0    0 -0.12882715659E+01 -0.16658832484E+02 -0.76196655002E+00  0.16725936039E+02  0.00000000000E+00 0. -1.
</event>
<event>
 7    1  0.1826069E-013  0.7246158E+02  0.7816164E-02  0.1226708E+00
        -11   -1    0    0    0    0  0.00000000000E+00  0.00000000000E+00  0.45593999997E+02  0.45594000000E+02  0.51100000000E-03 0.  1.
         11   -1    0    0    0    0 -0.00000000000E+00 -0.00000000000E+00 -0.45593999997E+02  0.45594000000E+02  0.51100000000E-03 0. -1.
    9900012    2    1    2    0    0 -0.65810823297E+00  0.18704011881E+02  0.63686121047E+00  0.72461581253E+02  0.70000014276E+02 0.  0.
        -12    1    1    2    0    0  0.65810823297E+00 -0.18704011881E+02 -0.63686121047E+00  0.18726418747E+02  0.00000000000E+00 0.  1.
         11    1    3    3    0    0 -0.23200649668E+02  0.70577893010E+01 -0.19583610969E+02  0.31170504546E+02  0.51100000000E-03 0. -1.
        -11    1    3    3    0    0  0.20767167027E+02  0.18604944546E+02  0.11942961791E+02  0.30332384088E+02  0.51100000000E-03 0.  1.
         12    1    3    3    0    0  0.17753744082E+01 -0.69587219660E+01  0.82775103878E+01  0.10958692619E+02  0.00000000000E+00 0. -1.
</event>
<event>
 7    1  0.1826069E-013  0.7246162E+02  0.7816164E-02  0.1226708E+00
        -11   -1    0    0    0    0  0.00000000000E+00  0.00000000000E+00  0.45593999997E+02  0.45594000000E+02  0.51100000000E-03 0. -1.
         11   -1    0    0    0    0 -0.00000000000E+00 -0.00000000000E+00 -0.45593999997E+02  0.45594000000E+02  0.51100000000E-03 0.  1.
    9900012    2    1    2    0    0 -0.74745291155E+01  0.14082037530E+02 -0.98237016818E+01  0.72461615372E+02  0.70000058722E+02 0.  0.
        -12    1    1    2    0    0  0.74745291155E+01 -0.14082037530E+02  0.98237016818E+01  0.18726384628E+02  0.00000000000E+00 0.  1.
         11    1    3    3    0    0 -0.87366638584E+01  0.31729233664E+02 -0.17673847246E+02  0.37355567738E+02  0.51100000000E-03 0. -1.
        -11    1    3    3    0    0 -0.11467955020E+02 -0.11268699581E+02 -0.40151161351E+01  0.16571624556E+02  0.51100000000E-03 0.  1.
         12    1    3    3    0    0  0.12730089763E+02 -0.63784965525E+01  0.11865261700E+02  0.18534423078E+02  0.00000000000E+00 0. -1.
</event>
<event>
 7    1  0.1826069E-013  0.7246088E+02  0.7816164E-02  0.1226710E+00
        -11   -1    0    0    0    0  0.00000000000E+00  0.00000000000E+00  0.45593999997E+02  0.45594000000E+02  0.51100000000E-03 0. -1.
         11   -1    0    0    0    0 -0.00000000000E+00 -0.00000000000E+00 -0.45593999997E+02  0.45594000000E+02  0.51100000000E-03 0.  1.
    9900012    2    1    2    0    0 -0.14742436442E+02 -0.77450915661E+00  0.11522394342E+02  0.72460884150E+02  0.69999106164E+02 0.  0.
        -12    1    1    2    0    0  0.14742436442E+02  0.77450915661E+00 -0.11522394342E+02  0.18727115850E+02  0.00000000000E+00 0.  1.
         11    1    3    3    0    0 -0.16694102782E+02  0.85484125881E+01 -0.72139557211E+01  0.20095013881E+02  0.51100000000E-03 0. -1.
        -11    1    3    3    0    0 -0.11915602031E+02 -0.24355491703E+02  0.16625556593E+02  0.31805356155E+02  0.51100000000E-03 0.  1.
        -12    1    3    3    0    0  0.13867268370E+02  0.15032569958E+02  0.21107934706E+01  0.20560514115E+02  0.00000000000E+00 0.  1.
</event>
<event>
 7    1  0.1826069E-013  0.7246157E+02  0.7816164E-02  0.1226708E+00
        -11   -1    0    0    0    0  0.00000000000E+00  0.00000000000E+00  0.45593999997E+02  0.45594000000E+02  0.51100000000E-03 0.  1.
         11   -1    0    0    0    0 -0.00000000000E+00 -0.00000000000E+00 -0.45593999997E+02  0.45594000000E+02  0.51100000000E-03 0. -1.
    9900012    2    1    2    0    0  0.12188136333E+02 -0.31150396775E+01 -0.13871735051E+02  0.72461570207E+02  0.69999999886E+02 0.  0.
        -12    1    1    2    0    0 -0.12188136333E+02  0.31150396775E+01  0.13871735051E+02  0.18726429793E+02  0.00000000000E+00 0.  1.
         11    1    3    3    0    0 -0.26026472828E+01 -0.74599343816E+01  0.43276050635E+01  0.90084715520E+01  0.51100000000E-03 0.  1.
        -11    1    3    3    0    0 -0.70995735836E+01  0.25107861700E+02 -0.20517739138E+02  0.33193166222E+02  0.51100000000E-03 0. -1.
        -12    1    3    3    0    0  0.21890357200E+02 -0.20762966996E+02  0.23183990237E+01  0.30259932433E+02  0.00000000000E+00 0.  1.
</event>
<event>
 7    1  0.1826069E-013  0.7246157E+02  0.7816164E-02  0.1226708E+00
        -11   -1    0    0    0    0  0.00000000000E+00  0.00000000000E+00  0.45593999997E+02  0.45594000000E+02  0.51100000000E-03 0. -1.
         11   -1    0    0    0    0 -0.00000000000E+00 -0.00000000000E+00 -0.45593999997E+02  0.45594000000E+02  0.51100000000E-03 0.  1.
    9900012    2    1    2    0    0 -0.90690156342E+01  0.79014812090E+01  0.14352657134E+02  0.72461569036E+02  0.69999998360E+02 0.  0.
        -12    1    1    2    0    0  0.90690156342E+01 -0.79014812090E+01 -0.14352657134E+02  0.18726430964E+02  0.00000000000E+00 0.  1.
         11    1    3    3    0    0  0.22400658863E+02 -0.12185097679E+02  0.15025854136E+02  0.29598013712E+02  0.51100000000E-03 0. -1.
        -11    1    3    3    0    0 -0.23242338065E+02  0.10306789442E+02 -0.97046391585E+01  0.27214264803E+02  0.51100000000E-03 0.  1.
         12    1    3    3    0    0 -0.82273364317E+01  0.97797894457E+01  0.90314421560E+01  0.15649290520E+02  0.00000000000E+00 0. -1.
</event>
<event>
 7    1  0.1826069E-013  0.7246161E+02  0.7816164E-02  0.1226708E+00
        -11   -1    0    0    0    0  0.00000000000E+00  0.00000000000E+00  0.45593999997E+02  0.45594000000E+02  0.51100000000E-03 0.  1.
         11   -1    0    0    0    0 -0.00000000000E+00 -0.00000000000E+00 -0.45593999997E+02  0.45594000000E+02  0.51100000000E-03 0. -1.
    9900012    2    1    2    0    0  0.11188632210E+02 -0.56112268972E+01  0.13928616839E+02  0.72461608862E+02  0.70000050241E+02 0.  0.
        -12    1    1    2    0    0 -0.11188632210E+02  0.56112268972E+01 -0.13928616839E+02  0.18726391138E+02  0.00000000000E+00 0.  1.
         11    1    3    3    0    0  0.25938528866E+02 -0.12815975448E+01  0.26761288611E+02  0.37290968617E+02  0.51100000000E-03 0. -1.
        -11    1    3    3    0    0 -0.10048096822E+02 -0.13613981313E+02  0.20137365833E+01  0.17039949302E+02  0.51100000000E-03 0.  1.
         12    1    3    3    0    0 -0.47017998336E+01  0.92843519603E+01 -0.14846408356E+02  0.18130690943E+02  0.00000000000E+00 0. -1.
</event>
<event>
 7    1  0.1826069E-013  0.7246159E+02  0.7816164E-02  0.1226708E+00
        -11   -1    0    0    0    0  0.00000000000E+00  0.00000000000E+00  0.45593999997E+02  0.45594000000E+02  0.51100000000E-03 0. -1.
         11   -1    0    0    0    0 -0.00000000000E+00 -0.00000000000E+00 -0.45593999997E+02  0.45594000000E+02  0.51100000000E-03 0.  1.
    9900012    2    1    2    0    0  0.98503439479E+01 -0.15920784359E+02  0.42169041084E+00  0.72461588883E+02  0.70000024216E+02 0.  0.
        -12    1    1    2    0    0 -0.98503439479E+01  0.15920784359E+02 -0.42169041084E+00  0.18726411117E+02  0.00000000000E+00 0.  1.
         11    1    3    3    0    0 -0.18957273853E+02  0.15428841164E+02 -0.76480705928E+01  0.25610942108E+02  0.51100000000E-03 0.  1.
        -11    1    3    3    0    0  0.15559535484E+02 -0.22966840788E+02 -0.26365712762E+01  0.27866223795E+02  0.51100000000E-03 0. -1.
        -12    1    3    3    0    0  0.13248082317E+02 -0.83827847359E+01  0.10706332280E+02  0.18984422980E+02  0.00000000000E+00 0.  1.
</event>
<event>
 7    1  0.1826069E-013  0.7246160E+02  0.7816164E-02  0.1226708E+00
        -11   -1    0    0    0    0  0.00000000000E+00  0.00000000000E+00  0.45593999997E+02  0.45594000000E+02  0.51100000000E-03 0.  1.
         11   -1    0    0    0    0 -0.00000000000E+00 -0.00000000000E+00 -0.45593999997E+02  0.45594000000E+02  0.51100000000E-03 0. -1.
    9900012    2    1    2    0    0  0.12869515908E+02  0.13326206433E+02 -0.27323974055E+01  0.72461595829E+02  0.70000033264E+02 0.  0.
        -12    1    1    2    0    0 -0.12869515908E+02 -0.13326206433E+02  0.27323974055E+01  0.18726404171E+02  0.00000000000E+00 0.  1.
         11    1    3    3    0    0 -0.18127557223E+01  0.15298037919E+02  0.74559357778E+01  0.17114526755E+02  0.51100000000E-03 0. -1.
        -11    1    3    3    0    0 -0.10853284764E+02 -0.15322249789E+02 -0.17447747208E+02  0.25631796887E+02  0.51100000000E-03 0.  1.
        -12    1    3    3    0    0  0.25535556393E+02  0.13350418303E+02  0.72594140246E+01  0.29715272187E+02  0.00000000000E+00 0.  1.
</event>
<event>
 7    1  0.1826069E-013  0.7246155E+02  0.7816164E-02  0.1226708E+00
        -11   -1    0    0    0    0  0.00000000000E+00  0.00000000000E+00  0.45593999997E+02  0.45594000000E+02  0.51100000000E-03 0.  1.
         11   -1    0    0    0    0 -0.00000000000E+00 -0.00000000000E+00 -0.45593999997E+02  0.45594000000E+02  0.51100000000E-03 0. -1.
    9900012    2    1    2    0    0 -0.25486950120E+01 -0.16898427458E+02 -0.76568436131E+01  0.72461549430E+02  0.69999972821E+02 0.  0.
        -12    1    1    2    0    0  0.25486950120E+01  0.16898427458E+02  0.76568436131E+01  0.18726450570E+02  0.00000000000E+00 0.  1.
         11    1    3    3    0    0 -0.40112329996E+01 -0.27283830680E+01 -0.36734873029E+02  0.37053811694E+02  0.51100000000E-03 0. -1.
        -11    1    3    3    0    0 -0.19346713561E+01  0.13587488162E+01  0.11363021690E+02  0.11606352304E+02  0.51100000000E-03 0.  1.
         12    1    3    3    0    0  0.33972093437E+01 -0.15528793206E+02  0.17715007726E+02  0.23801385432E+02  0.00000000000E+00 0. -1.
</event>
<event>
 7    1  0.1826069E-013  0.7246128E+02  0.7816164E-02  0.1226709E+00
        -11   -1    0    0    0    0  0.00000000000E+00  0.00000000000E+00  0.45593999997E+02  0.45594000000E+02  0.51100000000E-03 0.  1.
         11   -1    0    0    0    0 -0.00000000000E+00 -0.00000000000E+00 -0.45593999997E+02  0.45594000000E+02  0.51100000000E-03 0. -1.
    9900012    2    1    2    0    0 -0.10086218994E+02  0.10276116615E+02 -0.11973281687E+02  0.72461284841E+02  0.69999628144E+02 0.  0.
        -12    1    1    2    0    0  0.10086218994E+02 -0.10276116615E+02  0.11973281687E+02  0.18726715159E+02  0.00000000000E+00 0.  1.
         11    1    3    3    0    0  0.13632840515E+02  0.25350268431E+02 -0.77005511189E+01  0.29795787250E+02  0.51100000000E-03 0. -1.
        -11    1    3    3    0    0 -0.94013495995E+01 -0.10028536724E+02  0.13517222886E+02  0.19278802814E+02  0.51100000000E-03 0.  1.
        -12    1    3    3    0    0 -0.14317709910E+02 -0.50456150916E+01 -0.17789953454E+02  0.23386694778E+02  0.00000000000E+00 0.  1.
</event>
<event>
 7    1  0.1826069E-013  0.7246161E+02  0.7816164E-02  0.1226708E+00
        -11   -1    0    0    0    0  0.00000000000E+00  0.00000000000E+00  0.45593999997E+02  0.45594000000E+02  0.51100000000E-03 0. -1.
         11   -1    0    0    0    0 -0.00000000000E+00 -0.00000000000E+00 -0.45593999997E+02  0.45594000000E+02  0.51100000000E-03 0.  1.
    9900012    2    1    2    0    0  0.13833695537E+02 -0.17731283998E+01  0.12496498710E+02  0.72461612293E+02  0.70000054711E+02 0.  0.
        -12    1    1    2    0    0 -0.13833695537E+02  0.17731283998E+01 -0.12496498710E+02  0.18726387707E+02  0.00000000000E+00 0.  1.
         11    1    3    3    0    0  0.17491656701E+02  0.33568883558E+01  0.17290022463E+02  0.24822804649E+02  0.51100000000E-03 0. -1.
        -11    1    3    3    0    0 -0.12038953297E+02  0.15682851951E+02  0.85427922016E+01  0.21537584374E+02  0.51100000000E-03 0.  1.
        -12    1    3    3    0    0  0.83809921333E+01 -0.20812868707E+02 -0.13336315955E+02  0.26101223270E+02  0.00000000000E+00 0.  1.
</event>
<event>
 7    1  0.1826069E-013  0.7246161E+02  0.7816164E-02  0.1226708E+00
        -11   -1    0    0    0    0  0.00000000000E+00  0.00000000000E+00  0.45593999997E+02  0.45594000000E+02  0.51100000000E-03 0. -1.
         11   -1    0    0    0    0 -0.00000000000E+00 -0.00000000000E+00 -0.45593999997E+02  0.45594000000E+02  0.51100000000E-03 0.  1.
    9900012    2    1    2    0    0 -0.11344620106E+00  0.28075254830E+01  0.18514392311E+02  0.72461607074E+02  0.70000047912E+02 0.  0.
        -12    1    1    2    0    0  0.11344620106E+00 -0.28075254830E+01 -0.18514392311E+02  0.18726392926E+02  0.00000000000E+00 0.  1.
         11    1    3    3    0    0 -0.59701358931E+01 -0.49187757074E+01  0.11666517390E+02  0.13998017907E+02  0.51100000000E-03 0. -1.
        -11    1    3    3    0    0 -0.88024423084E+01  0.15080751598E+02 -0.20281054396E+02  0.26762534017E+02  0.51100000000E-03 0.  1.
        -12    1    3    3    0    0  0.14659132000E+02 -0.73544504078E+01  0.27128929316E+02  0.31701055150E+02  0.00000000000E+00 0.  1.
</event>
<event>
 7    1  0.1826069E-013  0.7246156E+02  0.7816164E-02  0.1226708E+00
        -11   -1    0    0    0    0  0.00000000000E+00  0.00000000000E+00  0.45593999997E+02  0.45594000000E+02  0.51100000000E-03 0.  1.
         11   -1    0    0    0    0 -0.00000000000E+00 -0.00000000000E+00 -0.45593999997E+02  0.45594000000E+02  0.51100000000E-03 0. -1.
    9900012    2    1    2    0    0  0.77638889866E+01  0.12012745026E+02 -0.12086994230E+02  0.72461562945E+02  0.69999990426E+02 0.  0.
        -12    1    1    2    0    0 -0.77638889866E+01 -0.12012745026E+02  0.12086994230E+02  0.18726437055E+02  0.00000000000E+00 0.  1.
         11    1    3    3    0    0 -0.10251130213E+02 -0.42925818756E+01 -0.99021969870E+01  0.14885074243E+02  0.51100000000E-03 0. -1.
        -11    1    3    3    0    0  0.17210920776E+02 -0.11642480690E+02  0.14202225445E+02  0.25168757586E+02  0.51100000000E-03 0.  1.
        -12    1    3    3    0    0  0.80409842273E+00  0.27947807592E+02 -0.16387022688E+02  0.32407731115E+02  0.00000000000E+00 0.  1.
</event>
<event>
 7    1  0.1826069E-013  0.7246156E+02  0.7816164E-02  0.1226708E+00
        -11   -1    0    0    0    0  0.00000000000E+00  0.00000000000E+00  0.45593999997E+02  0.45594000000E+02  0.51100000000E-03 0. -1.
         11   -1    0    0    0    0 -0.00000000000E+00 -0.00000000000E+00 -0.45593999997E+02  0.45594000000E+02  0.51100000000E-03 0.  1.
    9900012    2    1    2    0    0  0.81337200688E+00 -0.89474066076E+01  0.16430521354E+02  0.72461556371E+02  0.69999981862E+02 0.  0.
        -12    1    1    2    0    0 -0.81337200688E+00  0.89474066076E+01 -0.16430521354E+02  0.18726443629E+02  0.00000000000E+00 0.  1.
         11    1    3    3    0    0  0.15807315507E+02 -0.18358591503E+01 -0.15866045898E+02  0.22471604639E+02  0.51100000000E-03 0. -1.
        -11    1    3    3    0    0  0.22461586282E+01 -0.16500427622E+02  0.72381848735E+01  0.18157661215E+02  0.51100000000E-03 0.  1.
         12    1    3    3    0    0 -0.17240102128E+02  0.93888801643E+01  0.25058382379E+02  0.31832290517E+02  0.00000000000E+00 0. -1.
</event>
<event>
 7    1  0.1826069E-013  0.7246158E+02  0.7816164E-02  0.1226708E+00
        -11   -1    0    0    0    0  0.00000000000E+00  0.00000000000E+00  0.45593999997E+02  0.45594000000E+02  0.51100000000E-03 0.  1.
         11   -1    0    0    0    0 -0.00000000000E+00 -0.00000000000E+00 -0.45593999997E+02  0.45594000000E+02  0.51100000000E-03 0. -1.
    9900012    2    1    2    0    0 -0.87800134188E+00  0.11195951345E+02 -0.14985274812E+02  0.72461583523E+02  0.70000017233E+02 0.  0.
        -12    1    1    2    0    0  0.87800134188E+00 -0.11195951345E+02  0.14985274812E+02  0.18726416477E+02  0.00000000000E+00 0.  1.
         11    1    3    3    0    0 -0.40233238505E+01  0.28006775964E+02 -0.21124566773E+02  0.35310252850E+02  0.51100000000E-03 0. -1.
        -11    1    3    3    0    0  0.50895035117E+01 -0.24429215486E+02 -0.29565272136E+01  0.25128284236E+02  0.51100000000E-03 0.  1.
         12    1    3    3    0    0 -0.19441810031E+01  0.76183908666E+01  0.90958191743E+01  0.12023046437E+02  0.00000000000E+00 0. -1.
</event>
<event>
 7    1  0.1826069E-013  0.7246163E+02  0.7816164E-02  0.1226708E+00
        -11   -1    0    0    0    0  0.00000000000E+00  0.00000000000E+00  0.45593999997E+02  0.45594000000E+02  0.51100000000E-03 0. -1.
         11   -1    0    0    0    0 -0.00000000000E+00 -0.00000000000E+00 -0.45593999997E+02  0.45594000000E+02  0.51100000000E-03 0.  1.
    9900012    2    1    2    0    0 -0.11055002965E+02  0.76484837163E+01  0.13037049059E+02  0.72461627103E+02  0.70000074004E+02 0.  0.
        -12    1    1    2    0    0  0.11055002965E+02 -0.76484837163E+01 -0.13037049059E+02  0.18726372897E+02  0.00000000000E+00 0.  1.
         11    1    3    3    0    0  0.10575078993E+01 -0.62675241634E+01  0.31023069160E+02  0.31667507045E+02  0.51100000000E-03 0.  1.
        -11    1    3    3    0    0 -0.97865468923E+01  0.17855443213E+01 -0.24776548898E+02  0.26699101935E+02  0.51100000000E-03 0. -1.
         12    1    3    3    0    0 -0.23259639719E+01  0.12130463558E+02  0.67905287966E+01  0.14095018123E+02  0.00000000000E+00 0. -1.
</event>
<event>
 7    1  0.1826069E-013  0.7246159E+02  0.7816164E-02  0.1226708E+00
        -11   -1    0    0    0    0  0.00000000000E+00  0.00000000000E+00  0.45593999997E+02  0.45594000000E+02  0.51100000000E-03 0. -1.
         11   -1    0    0    0    0 -0.00000000000E+00 -0.00000000000E+00 -0.45593999997E+02  0.45594000000E+02  0.51100000000E-03 0.  1.
    9900012    2    1    2    0    0 -0.10251545111E+02  0.14473327939E+02  0.60088977554E+01  0.72461594818E+02  0.70000031947E+02 0.  0.
        -12    1    1    2    0    0  0.10251545111E+02 -0.14473327939E+02 -0.60088977554E+01  0.18726405182E+02  0.00000000000E+00 0.  1.
         11    1    3    3    0    0  0.14182325008E+02  0.23702796679E+01  0.17830814388E+02  0.22906211174E+02  0.51100000000E-03 0.  1.
        -11    1    3    3    0    0 -0.23026360493E+02  0.23886626994E+02 -0.16180037649E+02  0.36913112105E+02  0.51100000000E-03 0. -1.
         12    1    3    3    0    0 -0.14075096267E+01 -0.11783578723E+02  0.43581210160E+01  0.12642271539E+02  0.00000000000E+00 0. -1.
</event>
<event>
 7    1  0.1826069E-013  0.7246150E+02  0.7816164E-02  0.1226708E+00
        -11   -1    0    0    0    0  0.00000000000E+00  0.00000000000E+00  0.45593999997E+02  0.45594000000E+02  0.51100000000E-03 0.  1.
         11   -1    0    0    0    0 -0.00000000000E+00 -0.00000000000E+00 -0.45593999997E+02  0.45594000000E+02  0.51100000000E-03 0. -1.
    9900012    2    1    2    0    0  0.93111687276E+01  0.13794817877E+02 -0.85841007178E+01  0.72461504106E+02  0.69999913777E+02 0.  0.
        -12    1    1    2    0    0 -0.93111687276E+01 -0.13794817877E+02  0.85841007178E+01  0.18726495894E+02  0.00000000000E+00 0.  1.
         11    1    3    3    0    0  0.10848930405E+02  0.10067953132E+02 -0.35951177103E+02  0.38878658755E+02  0.51100000000E-03 0. -1.
        -11    1    3    3    0    0  0.75679871198E+01 -0.27770935086E+01  0.90650018317E+01  0.12130990721E+02  0.51100000000E-03 0.  1.
         12    1    3    3    0    0 -0.91057487969E+01  0.65039582532E+01  0.18302074554E+02  0.21451854630E+02  0.00000000000E+00 0. -1.
</event>
<event>
 7    1  0.1826069E-013  0.7246157E+02  0.7816164E-02  0.1226708E+00
        -11   -1    0    0    0    0  0.00000000000E+00  0.00000000000E+00  0.45593999997E+02  0.45594000000E+02  0.51100000000E-03 0.  1.
         11   -1    0    0    0    0 -0.00000000000E+00 -0.00000000000E+00 -0.45593999997E+02  0.45594000000E+02  0.51100000000E-03 0. -1.
    9900012    2    1    2    0    0  0.17003914321E+02 -0.33104796306E+01 -0.71124358650E+01  0.72461571575E+02  0.70000001668E+02 0.  0.
        -12    1    1    2    0    0 -0.17003914321E+02  0.33104796306E+01  0.71124358650E+01  0.18726428425E+02  0.00000000000E+00 0.  1.
         11    1    3    3    0    0  0.25208925808E+02 -0.80741836174E+01 -0.84743643511E+01  0.27793834440E+02  0.51100000000E-03 0. -1.
        -11    1    3    3    0    0 -0.10675440142E+02 -0.24609791260E+01 -0.19547313428E+02  0.22408009795E+02  0.51100000000E-03 0.  1.
        -12    1    3    3    0    0  0.24704286556E+01  0.72246831127E+01  0.20909241914E+02  0.22259727339E+02  0.00000000000E+00 0.  1.
</event>
<event>
 7    1  0.1826069E-013  0.7246158E+02  0.7816164E-02  0.1226708E+00
        -11   -1    0    0    0    0  0.00000000000E+00  0.00000000000E+00  0.45593999997E+02  0.45594000000E+02  0.51100000000E-03 0.  1.
         11   -1    0    0    0    0 -0.00000000000E+00 -0.00000000000E+00 -0.45593999997E+02  0.45594000000E+02  0.51100000000E-03 0. -1.
    9900012    2    1    2    0    0 -0.62302632096E+01 -0.50113015823E+01 -0.16933673462E+02  0.72461584963E+02  0.70000019109E+02 0.  0.
        -12    1    1    2    0    0  0.62302632096E+01  0.50113015823E+01  0.16933673462E+02  0.18726415037E+02  0.00000000000E+00 0.  1.
         11    1    3    3    0    0 -0.27374719745E+01  0.75613559293E+01 -0.23771930532E+02  0.25095269231E+02  0.51100000000E-03 0. -1.
        -11    1    3    3    0    0 -0.99346547964E+00 -0.28942793874E+02  0.97405882580E+01  0.30554072572E+02  0.51100000000E-03 0.  1.
        -12    1    3    3    0    0 -0.24993257555E+01  0.16370136362E+02 -0.29023311887E+01  0.16812243160E+02  0.00000000000E+00 0.  1.
</event>
<event>
 7    1  0.1826069E-013  0.7246230E+02  0.7816164E-02  0.1226706E+00
        -11   -1    0    0    0    0  0.00000000000E+00  0.00000000000E+00  0.45593999997E+02  0.45594000000E+02  0.51100000000E-03 0.  1.
         11   -1    0    0    0    0 -0.00000000000E+00 -0.00000000000E+00 -0.45593999997E+02  0.45594000000E+02  0.51100000000E-03 0. -1.
    9900012    2    1    2    0    0  0.23061067446E+01 -0.44529100423E+01 -0.18041761890E+02  0.72462303531E+02  0.70000955171E+02 0.  0.
        -12    1    1    2    0    0 -0.23061067446E+01  0.44529100423E+01  0.18041761890E+02  0.18725696469E+02  0.00000000000E+00 0.  1.
         11    1    3    3    0    0  0.73431192410E+01 -0.31442119119E+01  0.43965915458E+01  0.91179759934E+01  0.51100000000E-03 0. -1.
        -11    1    3    3    0    0  0.15304870410E+01  0.12809415009E+02 -0.38721820364E+02  0.40814248443E+02  0.51100000000E-03 0.  1.
        -12    1    3    3    0    0 -0.65674995374E+01 -0.14118113139E+02  0.16283466928E+02  0.22530079094E+02  0.00000000000E+00 0.  1.
</event>
<event>
 7    1  0.1826069E-013  0.7246156E+02  0.7816164E-02  0.1226708E+00
        -11   -1    0    0    0    0  0.00000000000E+00  0.00000000000E+00  0.45593999997E+02  0.45594000000E+02  0.51100000000E-03 0.  1.
         11   -1    0    0    0    0 -0.00000000000E+00 -0.00000000000E+00 -0.45593999997E+02  0.45594000000E+02  0.51100000000E-03 0. -1.
    9900012    2    1    2    0    0  0.37551714818E+01 -0.70224394250E+01 -0.16948849620E+02  0.72461562224E+02  0.69999989487E+02 0.  0.
        -12    1    1    2    0    0 -0.37551714818E+01  0.70224394250E+01  0.16948849620E+02  0.18726437776E+02  0.00000000000E+00 0.  1.
         11    1    3    3    0    0 -0.22555652047E+02 -0.87995458620E+01 -0.30500162542E+02  0.38941614785E+02  0.51100000000E-03 0. -1.
        -11    1    3    3    0    0  0.13770807889E+02 -0.12166302324E+00  0.15448863473E+02  0.20695828920E+02  0.51100000000E-03 0.  1.
        -12    1    3    3    0    0  0.12540015640E+02  0.18987694602E+01 -0.18975505508E+01  0.12824118519E+02  0.00000000000E+00 0.  1.
</event>
<event>
 7    1  0.1826069E-013  0.7246154E+02  0.7816164E-02  0.1226708E+00
        -11   -1    0    0    0    0  0.00000000000E+00  0.00000000000E+00  0.45593999997E+02  0.45594000000E+02  0.51100000000E-03 0.  1.
         11   -1    0    0    0    0 -0.00000000000E+00 -0.00000000000E+00 -0.45593999997E+02  0.45594000000E+02  0.51100000000E-03 0. -1.
    9900012    2    1    2    0    0  0.12773545148E+02  0.10211304414E+02 -0.91239323085E+01  0.72461539196E+02  0.69999959489E+02 0.  0.
        -12    1    1    2    0    0 -0.12773545148E+02 -0.10211304414E+02  0.91239323085E+01  0.18726460804E+02  0.00000000000E+00 0.  1.
         11    1    3    3    0    0 -0.50203337624E+01 -0.26277224278E+02  0.86350114769E+00  0.26766432361E+02  0.51100000000E-03 0. -1.
        -11    1    3    3    0    0  0.16856434242E+02  0.16372669815E+02 -0.67567276135E+00  0.23508726596E+02  0.51100000000E-03 0.  1.
         12    1    3    3    0    0  0.93744466832E+00  0.20115858877E+02 -0.93117606949E+01  0.22186380239E+02  0.00000000000E+00 0. -1.
</event>
<event>
 7    1  0.1826069E-013  0.7246157E+02  0.7816164E-02  0.1226708E+00
        -11   -1    0    0    0    0  0.00000000000E+00  0.00000000000E+00  0.45593999997E+02  0.45594000000E+02  0.51100000000E-03 0.  1.
         11   -1    0    0    0    0 -0.00000000000E+00 -0.00000000000E+00 -0.45593999997E+02  0.45594000000E+02  0.51100000000E-03 0. -1.
    9900012    2    1    2    0    0  0.25695832966E+01 -0.79237147598E+01 -0.16771740190E+02  0.72461567267E+02  0.69999996057E+02 0.  0.
        -12    1    1    2    0    0 -0.25695832966E+01  0.79237147598E+01  0.16771740190E+02  0.18726432733E+02  0.00000000000E+00 0.  1.
         11    1    3    3    0    0  0.21237951595E+02  0.17043131104E+02 -0.11157883866E+02  0.29428171509E+02  0.51100000000E-03 0. -1.
        -11    1    3    3    0    0 -0.95288049690E+01 -0.26626382576E+02  0.52250136560E+01  0.28758705485E+02  0.51100000000E-03 0.  1.
         12    1    3    3    0    0 -0.91395633289E+01  0.16595367128E+01 -0.10838869979E+02  0.14274690273E+02  0.00000000000E+00 0. -1.
</event>
<event>
 7    1  0.1826069E-013  0.7246156E+02  0.7816164E-02  0.1226708E+00
        -11   -1    0    0    0    0  0.00000000000E+00  0.00000000000E+00  0.45593999997E+02  0.45594000000E+02  0.51100000000E-03 0. -1.
         11   -1    0    0    0    0 -0.00000000000E+00 -0.00000000000E+00 -0.45593999997E+02  0.45594000000E+02  0.51100000000E-03 0.  1.
    9900012    2    1    2    0    0 -0.62506836598E+01 -0.13755800967E+02  0.11062839832E+02  0.72461560627E+02  0.69999987406E+02 0.  0.
        -12    1    1    2    0    0  0.62506836598E+01  0.13755800967E+02 -0.11062839832E+02  0.18726439373E+02  0.00000000000E+00 0.  1.
         11    1    3    3    0    0 -0.11386979264E+02 -0.14795783763E+02  0.22997983385E+02  0.29622386028E+02  0.51100000000E-03 0. -1.
        -11    1    3    3    0    0  0.10505645716E+02  0.17069927946E+02 -0.15770685236E+02  0.25504226024E+02  0.51100000000E-03 0.  1.
        -12    1    3    3    0    0 -0.53693501123E+01 -0.16029945149E+02  0.38355416824E+01  0.17334948576E+02  0.00000000000E+00 0.  1.
</event>
<event>
 7    1  0.1826069E-013  0.7246150E+02  0.7816164E-02  0.1226708E+00
        -11   -1    0    0    0    0  0.00000000000E+00  0.00000000000E+00  0.45593999997E+02  0.45594000000E+02  0.51100000000E-03 0.  1.
         11   -1    0    0    0    0 -0.00000000000E+00 -0.00000000000E+00 -0.45593999997E+02  0.45594000000E+02  0.51100000000E-03 0. -1.
    9900012    2    1    2    0    0 -0.11548901714E+02 -0.14513227838E+02 -0.25828151471E+01  0.72461498801E+02  0.69999906867E+02 0.  0.
        -12    1    1    2    0    0  0.11548901714E+02  0.14513227838E+02  0.25828151471E+01  0.18726501199E+02  0.00000000000E+00 0.  1.
         11    1    3    3    0    0  0.79236283898E+01 -0.76723482885E+01  0.20908220889E+02  0.23639004127E+02  0.51100000000E-03 0.  1.
        -11    1    3    3    0    0 -0.22444981726E+02 -0.90976139944E+01  0.81424930191E+00  0.24232350015E+02  0.51100000000E-03 0. -1.
         12    1    3    3    0    0  0.29724516221E+01  0.22567344452E+01 -0.24305285338E+02  0.24590144659E+02  0.00000000000E+00 0. -1.
</event>
<event>
 7    1  0.1826069E-013  0.7246159E+02  0.7816164E-02  0.1226708E+00
        -11   -1    0    0    0    0  0.00000000000E+00  0.00000000000E+00  0.45593999997E+02  0.45594000000E+02  0.51100000000E-03 0. -1.
         11   -1    0    0    0    0 -0.00000000000E+00 -0.00000000000E+00 -0.45593999997E+02  0.45594000000E+02  0.51100000000E-03 0.  1.
    9900012    2    1    2    0    0 -0.24841036995E+01 -0.13686985687E+02  0.12536910695E+02  0.72461588754E+02  0.70000024047E+02 0.  0.
        -12    1    1    2    0    0  0.24841036995E+01  0.13686985687E+02 -0.12536910695E+02  0.18726411246E+02  0.00000000000E+00 0.  1.
         11    1    3    3    0    0 -0.36436425726E+01 -0.38234427697E+02  0.15017703755E+00  0.38407943787E+02  0.51100000000E-03 0. -1.
        -11    1    3    3    0    0  0.36718864447E+01  0.17528422137E+02 -0.18286305930E+01  0.18002006076E+02  0.51100000000E-03 0.  1.
        -12    1    3    3    0    0 -0.25123475717E+01  0.70190198734E+01  0.14215364251E+02  0.16051638891E+02  0.00000000000E+00 0.  1.
</event>
<event>
 7    1  0.1826069E-013  0.7246158E+02  0.7816164E-02  0.1226708E+00
        -11   -1    0    0    0    0  0.00000000000E+00  0.00000000000E+00  0.45593999997E+02  0.45594000000E+02  0.51100000000E-03 0. -1.
         11   -1    0    0    0    0 -0.00000000000E+00 -0.00000000000E+00 -0.45593999997E+02  0.45594000000E+02  0.51100000000E-03 0.  1.
    9900012    2    1    2    0    0  0.45480326821E+01  0.10568419300E+02  0.14775066767E+02  0.72461583212E+02  0.70000016827E+02 0.  0.
        -12    1    1    2    0    0 -0.45480326821E+01 -0.10568419300E+02 -0.14775066767E+02  0.18726416788E+02  0.00000000000E+00 0.  1.
         11    1    3    3    0    0  0.30307859177E+01 -0.19148155086E+01  0.19866238937E+02  0.20187115482E+02  0.51100000000E-03 0. -1.
        -11    1    3    3    0    0  0.13586239593E+02  0.23588310609E+02 -0.16921672554E+02  0.32052102988E+02  0.51100000000E-03 0.  1.
        -12    1    3    3    0    0 -0.12068992829E+02 -0.11105075800E+02  0.11830500383E+02  0.20222364742E+02  0.00000000000E+00 0.  1.
</event>
<event>
 7    1  0.1826069E-013  0.7246158E+02  0.7816164E-02  0.1226708E+00
        -11   -1    0    0    0    0  0.00000000000E+00  0.00000000000E+00  0.45593999997E+02  0.45594000000E+02  0.51100000000E-03 0. -1.
         11   -1    0    0    0    0 -0.00000000000E+00 -0.00000000000E+00 -0.45593999997E+02  0.45594000000E+02  0.51100000000E-03 0.  1.
    9900012    2    1    2    0    0 -0.71207308061E+01 -0.16936725946E+02 -0.36223494973E+01  0.72461577254E+02  0.70000009066E+02 0.  0.
        -12    1    1    2    0    0  0.71207308061E+01  0.16936725946E+02  0.36223494973E+01  0.18726422746E+02  0.00000000000E+00 0.  1.
         11    1    3    3    0    0 -0.19985039373E+02  0.82190309921E+01  0.22866903307E+02  0.31461874329E+02  0.51100000000E-03 0. -1.
        -11    1    3    3    0    0 -0.25956281577E+01 -0.67390708117E+01 -0.54180073297E+01  0.90281318457E+01  0.51100000000E-03 0.  1.
         12    1    3    3    0    0  0.15459936725E+02 -0.18416686127E+02 -0.21071245474E+02  0.31971571079E+02  0.00000000000E+00 0. -1.
</event>
<event>
 7    1  0.1826069E-013  0.7246158E+02  0.7816164E-02  0.1226708E+00
        -11   -1    0    0    0    0  0.00000000000E+00  0.00000000000E+00  0.45593999997E+02  0.45594000000E+02  0.51100000000E-03 0.  1.
         11   -1    0    0    0    0 -0.00000000000E+00 -0.00000000000E+00 -0.45593999997E+02  0.45594000000E+02  0.51100000000E-03 0. -1.
    9900012    2    1    2    0    0  0.99003106495E+01  0.15408624825E+02  0.39034307292E+01  0.72461584395E+02  0.70000018369E+02 0.  0.
        -12    1    1    2    0    0 -0.99003106495E+01 -0.15408624825E+02 -0.39034307292E+01  0.18726415605E+02  0.00000000000E+00 0.  1.
         11    1    3    3    0    0 -0.20513174759E+02  0.78921309867E+01 -0.76760513540E+01  0.23280846953E+02  0.51100000000E-03 0. -1.
        -11    1    3    3    0    0  0.13361177552E+02  0.21240034558E+02  0.16560736309E+01  0.25147618451E+02  0.51100000000E-03 0.  1.
        -12    1    3    3    0    0  0.17052307856E+02 -0.13723540720E+02  0.99234084523E+01  0.24033118991E+02  0.00000000000E+00 0.  1.
</event>
<event>
 7    1  0.1826069E-013  0.7246163E+02  0.7816164E-02  0.1226708E+00
        -11   -1    0    0    0    0  0.00000000000E+00  0.00000000000E+00  0.45593999997E+02  0.45594000000E+02  0.51100000000E-03 0. -1.
         11   -1    0    0    0    0 -0.00000000000E+00 -0.00000000000E+00 -0.45593999997E+02  0.45594000000E+02  0.51100000000E-03 0.  1.
    9900012    2    1    2    0    0  0.11895485811E+01  0.31851309444E+01  0.18415130123E+02  0.72461625487E+02  0.70000071898E+02 0.  0.
        -12    1    1    2    0    0 -0.11895485811E+01 -0.31851309444E+01 -0.18415130123E+02  0.18726374513E+02  0.00000000000E+00 0.  1.
         11    1    3    3    0    0 -0.52828561322E+01 -0.11040200387E+02  0.28295214663E+02  0.30828781464E+02  0.51100000000E-03 0. -1.
        -11    1    3    3    0    0  0.29761302386E+01 -0.37770705353E+01 -0.20080409163E+02  0.20648158403E+02  0.51100000000E-03 0.  1.
        -12    1    3    3    0    0  0.34962744748E+01  0.18002401866E+02  0.10200324623E+02  0.20984685620E+02  0.00000000000E+00 0.  1.
</event>
<event>
 7    1  0.1826069E-013  0.7246150E+02  0.7816164E-02  0.1226708E+00
        -11   -1    0    0    0    0  0.00000000000E+00  0.00000000000E+00  0.45593999997E+02  0.45594000000E+02  0.51100000000E-03 0.  1.
         11   -1    0    0    0    0 -0.00000000000E+00 -0.00000000000E+00 -0.45593999997E+02  0.45594000000E+02  0.51100000000E-03 0. -1.
    9900012    2    1    2    0    0 -0.64690769294E+01 -0.86615172776E+01 -0.15290875273E+02  0.72461502610E+02  0.69999911829E+02 0.  0.
        -12    1    1    2    0    0  0.64690769294E+01  0.86615172776E+01  0.15290875273E+02  0.18726497390E+02  0.00000000000E+00 0.  1.
         11    1    3    3    0    0  0.74744760002E+01  0.29231226686E+01 -0.42660579901E+01  0.90890972406E+01  0.51100000000E-03 0. -1.
        -11    1    3    3    0    0 -0.19289456246E+02  0.11345965353E+02  0.16014217487E+02  0.27518524925E+02  0.51100000000E-03 0.  1.
        -12    1    3    3    0    0  0.53459033167E+01 -0.22930605299E+02 -0.27039034770E+02  0.35853880445E+02  0.00000000000E+00 0.  1.
</event>
<event>
 7    1  0.1826069E-013  0.7246153E+02  0.7816164E-02  0.1226708E+00
        -11   -1    0    0    0    0  0.00000000000E+00  0.00000000000E+00  0.45593999997E+02  0.45594000000E+02  0.51100000000E-03 0. -1.
         11   -1    0    0    0    0 -0.00000000000E+00 -0.00000000000E+00 -0.45593999997E+02  0.45594000000E+02  0.51100000000E-03 0.  1.
    9900012    2    1    2    0    0  0.98162000546E+01  0.99160109135E+01 -0.12489818445E+02  0.72461531547E+02  0.69999949524E+02 0.  0.
        -12    1    1    2    0    0 -0.98162000546E+01 -0.99160109135E+01  0.12489818445E+02  0.18726468453E+02  0.00000000000E+00 0.  1.
         11    1    3    3    0    0  0.18316568493E+00 -0.16886833821E+02  0.36132225505E+01  0.17270034268E+02  0.51100000000E-03 0.  1.
        -11    1    3    3    0    0  0.46470439853E+01  0.36017769900E+02 -0.22684108569E+02  0.42818728942E+02  0.51100000000E-03 0. -1.
         12    1    3    3    0    0  0.49859903843E+01 -0.92149251656E+01  0.65810675733E+01  0.12372768337E+02  0.00000000000E+00 0. -1.
</event>
<event>
 7    1  0.1826069E-013  0.7246159E+02  0.7816164E-02  0.1226708E+00
        -11   -1    0    0    0    0  0.00000000000E+00  0.00000000000E+00  0.45593999997E+02  0.45594000000E+02  0.51100000000E-03 0.  1.
         11   -1    0    0    0    0 -0.00000000000E+00 -0.00000000000E+00 -0.45593999997E+02  0.45594000000E+02  0.51100000000E-03 0. -1.
    9900012    2    1    2    0    0 -0.10473567103E+02  0.93818903192E+01 -0.12367821660E+02  0.72461588533E+02  0.70000023760E+02 0.  0.
        -12    1    1    2    0    0  0.10473567103E+02 -0.93818903192E+01  0.12367821660E+02  0.18726411467E+02  0.00000000000E+00 0.  1.
         11    1    3    3    0    0  0.18627349904E+02  0.15811002480E+02  0.34832049768E+01  0.24679924656E+02  0.51100000000E-03 0. -1.
        -11    1    3    3    0    0 -0.13576618994E+02  0.86681982636E+01  0.58377747447E+01  0.17133063319E+02  0.51100000000E-03 0.  1.
         12    1    3    3    0    0 -0.15524298013E+02 -0.15097310424E+02 -0.21688801381E+02  0.30648600558E+02  0.00000000000E+00 0. -1.
</event>
<event>
 7    1  0.1826069E-013  0.7246165E+02  0.7816164E-02  0.1226708E+00
        -11   -1    0    0    0    0  0.00000000000E+00  0.00000000000E+00  0.45593999997E+02  0.45594000000E+02  0.51100000000E-03 0.  1.
         11   -1    0    0    0    0 -0.00000000000E+00 -0.00000000000E+00 -0.45593999997E+02  0.45594000000E+02  0.51100000000E-03 0. -1.
    9900012    2    1    2    0    0  0.32789467039E+01 -0.11017856641E+02 -0.14782810345E+02  0.72461651233E+02  0.70000105438E+02 0.  0.
        -12    1    1    2    0    0 -0.32789467039E+01  0.11017856641E+02  0.14782810345E+02  0.18726348767E+02  0.00000000000E+00 0.  1.
         11    1    3    3    0    0 -0.14242253949E+01  0.12606687657E+02 -0.21134580948E+01  0.12861714390E+02  0.51100000000E-03 0.  1.
        -11    1    3    3    0    0 -0.11440368251E+02 -0.20204984476E+02  0.14814564080E+02  0.27542598507E+02  0.51100000000E-03 0. -1.
        -12    1    3    3    0    0  0.16143540350E+02 -0.34195598223E+01 -0.27483916330E+02  0.32057338336E+02  0.00000000000E+00 0.  1.
</event>
<event>
 7    1  0.1826069E-013  0.7246160E+02  0.7816164E-02  0.1226708E+00
        -11   -1    0    0    0    0  0.00000000000E+00  0.00000000000E+00  0.45593999997E+02  0.45594000000E+02  0.51100000000E-03 0. -1.
         11   -1    0    0    0    0 -0.00000000000E+00 -0.00000000000E+00 -0.45593999997E+02  0.45594000000E+02  0.51100000000E-03 0.  1.
    9900012    2    1    2    0    0  0.19185906895E+01 -0.14908326650E+02  0.11168651848E+02  0.72461602112E+02  0.70000041449E+02 0.  0.
        -12    1    1    2    0    0 -0.19185906895E+01  0.14908326650E+02 -0.11168651848E+02  0.18726397888E+02  0.00000000000E+00 0.  1.
         11    1    3    3    0    0 -0.21011049747E+02 -0.86087300472E+01  0.75782326863E+01  0.23937503115E+02  0.51100000000E-03 0. -1.
        -11    1    3    3    0    0  0.22612223197E+02 -0.21827175438E+01  0.20815082097E+02  0.30811435162E+02  0.51100000000E-03 0.  1.
         12    1    3    3    0    0  0.31741723914E+00 -0.41168790591E+01 -0.17224662935E+02  0.17712663834E+02  0.00000000000E+00 0. -1.
</event>
<event>
 7    1  0.1826069E-013  0.7246155E+02  0.7816164E-02  0.1226708E+00
        -11   -1    0    0    0    0  0.00000000000E+00  0.00000000000E+00  0.45593999997E+02  0.45594000000E+02  0.51100000000E-03 0.  1.
         11   -1    0    0    0    0 -0.00000000000E+00 -0.00000000000E+00 -0.45593999997E+02  0.45594000000E+02  0.51100000000E-03 0. -1.
    9900012    2    1    2    0    0  0.30064510201E+01  0.17365129835E+02 -0.63319360936E+01  0.72461550881E+02  0.69999974710E+02 0.  0.
        -12    1    1    2    0    0 -0.30064510201E+01 -0.17365129835E+02  0.63319360936E+01  0.18726449119E+02  0.00000000000E+00 0.  1.
         11    1    3    3    0    0 -0.71250379151E+01  0.39206964740E+01  0.19712538848E+00  0.81349176279E+01  0.51100000000E-03 0. -1.
        -11    1    3    3    0    0  0.20241034869E+02 -0.82738214376E+01  0.19251659010E+02  0.29133863263E+02  0.51100000000E-03 0.  1.
        -12    1    3    3    0    0 -0.10109545933E+02  0.21718254799E+02 -0.25780720492E+02  0.35192769990E+02  0.00000000000E+00 0.  1.
</event>
<event>
 7    1  0.1826069E-013  0.7246160E+02  0.7816164E-02  0.1226708E+00
        -11   -1    0    0    0    0  0.00000000000E+00  0.00000000000E+00  0.45593999997E+02  0.45594000000E+02  0.51100000000E-03 0.  1.
         11   -1    0    0    0    0 -0.00000000000E+00 -0.00000000000E+00 -0.45593999997E+02  0.45594000000E+02  0.51100000000E-03 0. -1.
    9900012    2    1    2    0    0 -0.73425953955E+01  0.12633598881E+02  0.11711388956E+02  0.72461597273E+02  0.70000035144E+02 0.  0.
        -12    1    1    2    0    0  0.73425953955E+01 -0.12633598881E+02 -0.11711388956E+02  0.18726402727E+02  0.00000000000E+00 0.  1.
         11    1    3    3    0    0 -0.17507348817E+02 -0.31386795064E+00  0.27864812159E+02  0.32909778677E+02  0.51100000000E-03 0. -1.
        -11    1    3    3    0    0  0.21386395921E+02  0.67027170972E+01 -0.60576207231E+01  0.23216354496E+02  0.51100000000E-03 0.  1.
         12    1    3    3    0    0 -0.11221642500E+02  0.62447497349E+01 -0.10095802480E+02  0.16335464100E+02  0.00000000000E+00 0. -1.
</event>
<event>
 7    1  0.1826069E-013  0.7246155E+02  0.7816164E-02  0.1226708E+00
        -11   -1    0    0    0    0  0.00000000000E+00  0.00000000000E+00  0.45593999997E+02  0.45594000000E+02  0.51100000000E-03 0. -1.
         11   -1    0    0    0    0 -0.00000000000E+00 -0.00000000000E+00 -0.45593999997E+02  0.45594000000E+02  0.51100000000E-03 0.  1.
    9900012    2    1    2    0    0  0.12615020661E+02  0.53567249060E+00  0.13829474513E+02  0.72461546609E+02  0.69999969145E+02 0.  0.
        -12    1    1    2    0    0 -0.12615020661E+02 -0.53567249060E+00 -0.13829474513E+02  0.18726453391E+02  0.00000000000E+00 0.  1.
         11    1    3    3    0    0 -0.75096879797E+01 -0.74518901607E+01 -0.34950407162E+01  0.11141875533E+02  0.51100000000E-03 0.  1.
        -11    1    3    3    0    0  0.21189949782E+02  0.51845566321E+01  0.36168790073E+02  0.42238311695E+02  0.51100000000E-03 0. -1.
        -12    1    3    3    0    0 -0.10652411411E+01  0.28030060192E+01 -0.18844274844E+02  0.19081359381E+02  0.00000000000E+00 0.  1.
</event>
<event>
 7    1  0.1826069E-013  0.7246156E+02  0.7816164E-02  0.1226708E+00
        -11   -1    0    0    0    0  0.00000000000E+00  0.00000000000E+00  0.45593999997E+02  0.45594000000E+02  0.51100000000E-03 0. -1.
         11   -1    0    0    0    0 -0.00000000000E+00 -0.00000000000E+00 -0.45593999997E+02  0.45594000000E+02  0.51100000000E-03 0.  1.
    9900012    2    1    2    0    0 -0.12250670360E+02  0.12215587034E+02 -0.71679865578E+01  0.72461560879E+02  0.69999987735E+02 0.  0.
        -12    1    1    2    0    0  0.12250670360E+02 -0.12215587034E+02  0.71679865578E+01  0.18726439121E+02  0.00000000000E+00 0.  1.
         11    1    3    3    0    0  0.81636066905E+01  0.25991007232E+01 -0.34840743982E+02  0.35878646020E+02  0.51100000000E-03 0.  1.
        -11    1    3    3    0    0 -0.20915282642E+02  0.84796160008E+01  0.25291802341E+02  0.33897318499E+02  0.51100000000E-03 0. -1.
        -12    1    3    3    0    0  0.50100559112E+00  0.11368703096E+01  0.23809550829E+01  0.26855963603E+01  0.00000000000E+00 0.  1.
</event>
<event>
 7    1  0.1826069E-013  0.7246159E+02  0.7816164E-02  0.1226708E+00
        -11   -1    0    0    0    0  0.00000000000E+00  0.00000000000E+00  0.45593999997E+02  0.45594000000E+02  0.51100000000E-03 0. -1.
         11   -1    0    0    0    0 -0.00000000000E+00 -0.00000000000E+00 -0.45593999997E+02  0.45594000000E+02  0.51100000000E-03 0.  1.
    9900012    2    1    2    0    0 -0.16894755487E+02 -0.14110892043E+01 -0.79532592095E+01  0.72461594372E+02  0.70000031366E+02 0.  0.
        -12    1    1    2    0    0  0.16894755487E+02  0.14110892043E+01  0.79532592095E+01  0.18726405628E+02  0.00000000000E+00 0.  1.
         11    1    3    3    0    0 -0.52649512763E+00  0.11290679623E+02  0.62853977508E+01  0.12933014676E+02  0.51100000000E-03 0. -1.
        -11    1    3    3    0    0 -0.11524129077E+02 -0.50503371214E+01 -0.34830471183E+02  0.37033406258E+02  0.51100000000E-03 0.  1.
        -12    1    3    3    0    0 -0.48441312820E+01 -0.76514317055E+01  0.20591814222E+02  0.22495173438E+02  0.00000000000E+00 0.  1.
</event>
<event>
 7    1  0.1826069E-013  0.7246156E+02  0.7816164E-02  0.1226708E+00
        -11   -1    0    0    0    0  0.00000000000E+00  0.00000000000E+00  0.45593999997E+02  0.45594000000E+02  0.51100000000E-03 0.  1.
         11   -1    0    0    0    0 -0.00000000000E+00 -0.00000000000E+00 -0.45593999997E+02  0.45594000000E+02  0.51100000000E-03 0. -1.
    9900012    2    1    2    0    0 -0.17146901520E+02  0.67210940585E+00 -0.74974431902E+01  0.72461558342E+02  0.69999984430E+02 0.  0.
        -12    1    1    2    0    0  0.17146901520E+02 -0.67210940585E+00  0.74974431902E+01  0.18726441658E+02  0.00000000000E+00 0.  1.
         11    1    3    3    0    0  0.84966719771E+01 -0.38720312680E+01 -0.15707787405E+02  0.18273495732E+02  0.51100000000E-03 0. -1.
        -11    1    3    3    0    0  0.62410966245E+01  0.29773065256E+01  0.19215008495E+02  0.20421366089E+02  0.51100000000E-03 0.  1.
        -12    1    3    3    0    0 -0.31884670122E+02  0.15668341482E+01 -0.11004664280E+02  0.33766696521E+02  0.00000000000E+00 0.  1.
</event>
<event>
 7    1  0.1826069E-013  0.7246160E+02  0.7816164E-02  0.1226708E+00
        -11   -1    0    0    0    0  0.00000000000E+00  0.00000000000E+00  0.45593999997E+02  0.45594000000E+02  0.51100000000E-03 0.  1.
         11   -1    0    0    0    0 -0.00000000000E+00 -0.00000000000E+00 -0.45593999997E+02  0.45594000000E+02  0.51100000000E-03 0. -1.
    9900012    2    1    2    0    0 -0.77577979637E+01  0.15086052234E+02 -0.79312972953E+01  0.72461604778E+02  0.70000044921E+02 0.  0.
        -12    1    1    2    0    0  0.77577979637E+01 -0.15086052234E+02  0.79312972953E+01  0.18726395222E+02  0.00000000000E+00 0.  1.
         11    1    3    3    0    0 -0.27027093568E+02  0.10127920830E+02 -0.28056579089E+02  0.40251834710E+02  0.51100000000E-03 0. -1.
        -11    1    3    3    0    0  0.12089336101E+02  0.10529960469E+02  0.13566825285E+02  0.21002163303E+02  0.51100000000E-03 0.  1.
        -12    1    3    3    0    0  0.71799595034E+01 -0.55718290660E+01  0.65584565090E+01  0.11207606765E+02  0.00000000000E+00 0.  1.
</event>
<event>
 7    1  0.1826069E-013  0.7246159E+02  0.7816164E-02  0.1226708E+00
        -11   -1    0    0    0    0  0.00000000000E+00  0.00000000000E+00  0.45593999997E+02  0.45594000000E+02  0.51100000000E-03 0. -1.
         11   -1    0    0    0    0 -0.00000000000E+00 -0.00000000000E+00 -0.45593999997E+02  0.45594000000E+02  0.51100000000E-03 0.  1.
    9900012    2    1    2    0    0  0.11279192108E+02 -0.12138768667E+01  0.14899148170E+02  0.72461593835E+02  0.70000030666E+02 0.  0.
        -12    1    1    2    0    0 -0.11279192108E+02  0.12138768667E+01 -0.14899148170E+02  0.18726406165E+02  0.00000000000E+00 0.  1.
         11    1    3    3    0    0  0.91745504782E+01 -0.25059787263E+02  0.14854430368E+02  0.30542092527E+02  0.51100000000E-03 0. -1.
        -11    1    3    3    0    0 -0.37743914053E+01  0.26035477815E+02  0.11615195822E+02  0.28757693054E+02  0.51100000000E-03 0.  1.
         12    1    3    3    0    0  0.58790330349E+01 -0.21895674188E+01 -0.11570478020E+02  0.13161808254E+02  0.00000000000E+00 0. -1.
</event>
<event>
 7    1  0.1826069E-013  0.7246166E+02  0.7816164E-02  0.1226708E+00
        -11   -1    0    0    0    0  0.00000000000E+00  0.00000000000E+00  0.45593999997E+02  0.45594000000E+02  0.51100000000E-03 0.  1.
         11   -1    0    0    0    0 -0.00000000000E+00 -0.00000000000E+00 -0.45593999997E+02  0.45594000000E+02  0.51100000000E-03 0. -1.
    9900012    2    1    2    0    0  0.52194415510E+01 -0.10973060501E+02  0.14248688052E+02  0.72461661915E+02  0.70000119353E+02 0.  0.
        -12    1    1    2    0    0 -0.52194415510E+01  0.10973060501E+02 -0.14248688052E+02  0.18726338085E+02  0.00000000000E+00 0.  1.
         11    1    3    3    0    0 -0.10385420778E+02 -0.22322099569E+02 -0.76974810503E+01  0.25795044266E+02  0.51100000000E-03 0. -1.
        -11    1    3    3    0    0 -0.64427344974E+01  0.16126034608E+02  0.39506881424E+01  0.17809148128E+02  0.51100000000E-03 0.  1.
        -12    1    3    3    0    0  0.22047596826E+02 -0.47769955399E+01  0.17995480960E+02  0.28857469521E+02  0.00000000000E+00 0.  1.
</event>
<event>
 7    1  0.1826069E-013  0.7246153E+02  0.7816164E-02  0.1226708E+00
        -11   -1    0    0    0    0  0.00000000000E+00  0.00000000000E+00  0.45593999997E+02  0.45594000000E+02  0.51100000000E-03 0.  1.
         11   -1    0    0    0    0 -0.00000000000E+00 -0.00000000000E+00 -0.45593999997E+02  0.45594000000E+02  0.51100000000E-03 0. -1.
    9900012    2    1    2    0    0 -0.15739284792E+02  0.67553501015E+01 -0.75710551171E+01  0.72461528994E+02  0.69999946199E+02 0.  0.
        -12    1    1    2    0    0  0.15739284792E+02 -0.67553501015E+01  0.75710551171E+01  0.18726471006E+02  0.00000000000E+00 0.  1.
         11    1    3    3    0    0 -0.10679347029E+02 -0.27250079813E+01  0.42122960841E+01  0.11799049115E+02  0.51100000000E-03 0. -1.
        -11    1    3    3    0    0  0.19469366061E+02  0.37899410789E+01  0.14265869244E+02  0.24432251098E+02  0.51100000000E-03 0.  1.
        -12    1    3    3    0    0 -0.24529303823E+02  0.56904170039E+01 -0.26049220445E+02  0.36230228781E+02  0.00000000000E+00 0.  1.
</event>
<event>
 7    1  0.1826069E-013  0.7246153E+02  0.7816164E-02  0.1226708E+00
        -11   -1    0    0    0    0  0.00000000000E+00  0.00000000000E+00  0.45593999997E+02  0.45594000000E+02  0.51100000000E-03 0.  1.
         11   -1    0    0    0    0 -0.00000000000E+00 -0.00000000000E+00 -0.45593999997E+02  0.45594000000E+02  0.51100000000E-03 0. -1.
    9900012    2    1    2    0    0  0.91685742846E+01  0.15466367467E+02 -0.52354115459E+01  0.72461526464E+02  0.69999942903E+02 0.  0.
        -12    1    1    2    0    0 -0.91685742846E+01 -0.15466367467E+02  0.52354115459E+01  0.18726473536E+02  0.00000000000E+00 0.  1.
         11    1    3    3    0    0  0.14539847643E+02  0.18335920303E+02 -0.18916731147E+02  0.30090793615E+02  0.51100000000E-03 0. -1.
        -11    1    3    3    0    0  0.39383204585E+01 -0.18564078945E+02  0.14833194220E+02  0.24086490947E+02  0.51100000000E-03 0.  1.
        -12    1    3    3    0    0 -0.93095938168E+01  0.15694526108E+02 -0.11518746188E+01  0.18284241902E+02  0.00000000000E+00 0.  1.
</event>
<event>
 7    1  0.1826069E-013  0.7246159E+02  0.7816164E-02  0.1226708E+00
        -11   -1    0    0    0    0  0.00000000000E+00  0.00000000000E+00  0.45593999997E+02  0.45594000000E+02  0.51100000000E-03 0. -1.
         11   -1    0    0    0    0 -0.00000000000E+00 -0.00000000000E+00 -0.45593999997E+02  0.45594000000E+02  0.51100000000E-03 0.  1.
    9900012    2    1    2    0    0 -0.10908919024E+02  0.72028887284E+01  0.13408659058E+02  0.72461594631E+02  0.70000031703E+02 0.  0.
        -12    1    1    2    0    0  0.10908919024E+02 -0.72028887284E+01 -0.13408659058E+02  0.18726405369E+02  0.00000000000E+00 0.  1.
         11    1    3    3    0    0  0.52936178515E+01 -0.29483473088E+02  0.64900795087E+01  0.30649938134E+02  0.51100000000E-03 0. -1.
        -11    1    3    3    0    0 -0.11448618604E+02  0.20110055242E+02  0.81236734903E+01  0.24525074128E+02  0.51100000000E-03 0.  1.
        -12    1    3    3    0    0 -0.47539182715E+01  0.16576306575E+02 -0.12050939409E+01  0.17286582369E+02  0.00000000000E+00 0.  1.
</event>
<event>
 7    1  0.1826069E-013  0.7246157E+02  0.7816164E-02  0.1226708E+00
        -11   -1    0    0    0    0  0.00000000000E+00  0.00000000000E+00  0.45593999997E+02  0.45594000000E+02  0.51100000000E-03 0.  1.
         11   -1    0    0    0    0 -0.00000000000E+00 -0.00000000000E+00 -0.45593999997E+02  0.45594000000E+02  0.51100000000E-03 0. -1.
    9900012    2    1    2    0    0  0.14300420291E+01  0.15187682254E+02 -0.10861328927E+02  0.72461570054E+02  0.69999999687E+02 0.  0.
        -12    1    1    2    0    0 -0.14300420291E+01 -0.15187682254E+02  0.10861328927E+02  0.18726429946E+02  0.00000000000E+00 0.  1.
         11    1    3    3    0    0 -0.17341431534E+02 -0.55258944724E+01  0.14615331642E+02  0.23342422253E+02  0.51100000000E-03 0.  1.
        -11    1    3    3    0    0  0.21460364305E+02  0.16708602082E+02 -0.44663376950E+01  0.27562162330E+02  0.51100000000E-03 0. -1.
         12    1    3    3    0    0 -0.26888907418E+01  0.40049746447E+01 -0.21010322874E+02  0.21556985471E+02  0.00000000000E+00 0. -1.
</event>
<event>
 7    1  0.1826069E-013  0.7246151E+02  0.7816164E-02  0.1226708E+00
        -11   -1    0    0    0    0  0.00000000000E+00  0.00000000000E+00  0.45593999997E+02  0.45594000000E+02  0.51100000000E-03 0.  1.
         11   -1    0    0    0    0 -0.00000000000E+00 -0.00000000000E+00 -0.45593999997E+02  0.45594000000E+02  0.51100000000E-03 0. -1.
    9900012    2    1    2    0    0 -0.11849795325E+02 -0.14130845134E+02 -0.32531320594E+01  0.72461513366E+02  0.69999925841E+02 0.  0.
        -12    1    1    2    0    0  0.11849795325E+02  0.14130845134E+02  0.32531320594E+01  0.18726486634E+02  0.00000000000E+00 0.  1.
         11    1    3    3    0    0 -0.84848446937E+01 -0.44200592346E+01 -0.27436810421E+01  0.99527533394E+01  0.51100000000E-03 0. -1.
        -11    1    3    3    0    0  0.15822585588E+02  0.99207215158E+00  0.24523476751E+02  0.29201700876E+02  0.51100000000E-03 0.  1.
        -12    1    3    3    0    0 -0.19187536219E+02 -0.10702858051E+02 -0.25032927768E+02  0.33307059151E+02  0.00000000000E+00 0.  1.
</event>
<event>
 7    1  0.1826069E-013  0.7246157E+02  0.7816164E-02  0.1226708E+00
        -11   -1    0    0    0    0  0.00000000000E+00  0.00000000000E+00  0.45593999997E+02  0.45594000000E+02  0.51100000000E-03 0. -1.
         11   -1    0    0    0    0 -0.00000000000E+00 -0.00000000000E+00 -0.45593999997E+02  0.45594000000E+02  0.51100000000E-03 0.  1.
    9900012    2    1    2    0    0 -0.32377624210E+01  0.14545698473E+02  0.11341011710E+02  0.72461574923E+02  0.70000006029E+02 0.  0.
        -12    1    1    2    0    0  0.32377624210E+01 -0.14545698473E+02 -0.11341011710E+02  0.18726425077E+02  0.00000000000E+00 0.  1.
         11    1    3    3    0    0 -0.66671336938E+01  0.20981073609E+02 -0.21040133733E+02  0.30452312708E+02  0.51100000000E-03 0. -1.
        -11    1    3    3    0    0  0.83047987780E+01 -0.14309237223E+02  0.25795901404E+02  0.30645594824E+02  0.51100000000E-03 0.  1.
        -12    1    3    3    0    0 -0.48754275051E+01  0.78738620867E+01  0.65852440388E+01  0.11363667391E+02  0.00000000000E+00 0.  1.
</event>
<event>
 7    1  0.1826069E-013  0.7246162E+02  0.7816164E-02  0.1226708E+00
        -11   -1    0    0    0    0  0.00000000000E+00  0.00000000000E+00  0.45593999997E+02  0.45594000000E+02  0.51100000000E-03 0.  1.
         11   -1    0    0    0    0 -0.00000000000E+00 -0.00000000000E+00 -0.45593999997E+02  0.45594000000E+02  0.51100000000E-03 0. -1.
    9900012    2    1    2    0    0 -0.18308264760E+02  0.25270300754E+01 -0.30164446997E+01  0.72461618125E+02  0.70000062308E+02 0.  0.
        -12    1    1    2    0    0  0.18308264760E+02 -0.25270300754E+01  0.30164446997E+01  0.18726381875E+02  0.00000000000E+00 0.  1.
         11    1    3    3    0    0 -0.11281781467E+02 -0.89728123638E+01  0.29590937191E+02  0.32915247514E+02  0.51100000000E-03 0. -1.
        -11    1    3    3    0    0  0.17184995824E+01  0.10677823964E+02 -0.27101585311E+02  0.29179874778E+02  0.51100000000E-03 0.  1.
         12    1    3    3    0    0 -0.87449828754E+01  0.82201847545E+00 -0.55057965798E+01  0.10366495832E+02  0.00000000000E+00 0. -1.
</event>
<event>
 7    1  0.1826069E-013  0.7246161E+02  0.7816164E-02  0.1226708E+00
        -11   -1    0    0    0    0  0.00000000000E+00  0.00000000000E+00  0.45593999997E+02  0.45594000000E+02  0.51100000000E-03 0. -1.
         11   -1    0    0    0    0 -0.00000000000E+00 -0.00000000000E+00 -0.45593999997E+02  0.45594000000E+02  0.51100000000E-03 0.  1.
    9900012    2    1    2    0    0 -0.15254249606E+02 -0.93038163923E+01  0.56057508113E+01  0.72461612931E+02  0.70000055542E+02 0.  0.
        -12    1    1    2    0    0  0.15254249606E+02  0.93038163923E+01 -0.56057508113E+01  0.18726387069E+02  0.00000000000E+00 0.  1.
         11    1    3    3    0    0 -0.13808029560E+02 -0.11303856009E+02  0.80602763584E+01  0.19580778744E+02  0.51100000000E-03 0. -1.
        -11    1    3    3    0    0  0.14079961052E+02 -0.16761498632E+02 -0.13943420520E+02  0.25954038524E+02  0.51100000000E-03 0.  1.
        -12    1    3    3    0    0 -0.15526181098E+02  0.18761538249E+02  0.11488894973E+02  0.26926795663E+02  0.00000000000E+00 0.  1.
</event>
<event>
 7    1  0.1826069E-013  0.7246161E+02  0.7816164E-02  0.1226708E+00
        -11   -1    0    0    0    0  0.00000000000E+00  0.00000000000E+00  0.45593999997E+02  0.45594000000E+02  0.51100000000E-03 0.  1.
         11   -1    0    0    0    0 -0.00000000000E+00 -0.00000000000E+00 -0.45593999997E+02  0.45594000000E+02  0.51100000000E-03 0. -1.
    9900012    2    1    2    0    0  0.78046270005E+01  0.16648792033E+02 -0.35472835933E+01  0.72461609540E+02  0.70000051124E+02 0.  0.
        -12    1    1    2    0    0 -0.78046270005E+01 -0.16648792033E+02  0.35472835933E+01  0.18726390460E+02  0.00000000000E+00 0.  1.
         11    1    3    3    0    0  0.95155438481E+01  0.13179007701E+02 -0.20068073406E+02  0.25825556900E+02  0.51100000000E-03 0.  1.
        -11    1    3    3    0    0 -0.13693006866E+02 -0.15773099884E+02  0.91012574980E+01  0.22784249061E+02  0.51100000000E-03 0. -1.
        -12    1    3    3    0    0  0.11982090018E+02  0.19242884216E+02  0.74195323147E+01  0.23851803578E+02  0.00000000000E+00 0.  1.
</event>
<event>
 7    1  0.1826069E-013  0.7246157E+02  0.7816164E-02  0.1226708E+00
        -11   -1    0    0    0    0  0.00000000000E+00  0.00000000000E+00  0.45593999997E+02  0.45594000000E+02  0.51100000000E-03 0.  1.
         11   -1    0    0    0    0 -0.00000000000E+00 -0.00000000000E+00 -0.45593999997E+02  0.45594000000E+02  0.51100000000E-03 0. -1.
    9900012    2    1    2    0    0 -0.16923909946E+02 -0.54847073573E+00 -0.79974753724E+01  0.72461570539E+02  0.70000000319E+02 0.  0.
        -12    1    1    2    0    0  0.16923909946E+02  0.54847073573E+00  0.79974753724E+01  0.18726429461E+02  0.00000000000E+00 0.  1.
         11    1    3    3    0    0  0.47067850453E+01  0.33943448079E+01 -0.94747847391E+01  0.11110668218E+02  0.51100000000E-03 0. -1.
        -11    1    3    3    0    0 -0.25724673166E+02 -0.25113454600E+02  0.11259994392E+02  0.37672694162E+02  0.51100000000E-03 0.  1.
        -12    1    3    3    0    0  0.40939781747E+01  0.21170639056E+02 -0.97826850255E+01  0.23678208160E+02  0.00000000000E+00 0.  1.
</event>
<event>
 7    1  0.1826069E-013  0.7246160E+02  0.7816164E-02  0.1226708E+00
        -11   -1    0    0    0    0  0.00000000000E+00  0.00000000000E+00  0.45593999997E+02  0.45594000000E+02  0.51100000000E-03 0.  1.
         11   -1    0    0    0    0 -0.00000000000E+00 -0.00000000000E+00 -0.45593999997E+02  0.45594000000E+02  0.51100000000E-03 0. -1.
    9900012    2    1    2    0    0 -0.65580847443E+01 -0.29307489396E+01 -0.17293935157E+02  0.72461602640E+02  0.70000042137E+02 0.  0.
        -12    1    1    2    0    0  0.65580847443E+01  0.29307489396E+01  0.17293935157E+02  0.18726397360E+02  0.00000000000E+00 0.  1.
         11    1    3    3    0    0  0.14405154755E+02  0.17933653549E+02 -0.25138964641E+02  0.34074799436E+02  0.51100000000E-03 0. -1.
        -11    1    3    3    0    0 -0.40641813229E+01 -0.17370242786E+02  0.10836709040E+02  0.20872881147E+02  0.51100000000E-03 0.  1.
        -12    1    3    3    0    0 -0.16899058177E+02 -0.34941597020E+01 -0.29916795562E+01  0.17513922058E+02  0.00000000000E+00 0.  1.
</event>
<event>
 7    1  0.1826069E-013  0.7246154E+02  0.7816164E-02  0.1226708E+00
        -11   -1    0    0    0    0  0.00000000000E+00  0.00000000000E+00  0.45593999997E+02  0.45594000000E+02  0.51100000000E-03 0. -1.
         11   -1    0    0    0    0 -0.00000000000E+00 -0.00000000000E+00 -0.45593999997E+02  0.45594000000E+02  0.51100000000E-03 0.  1.
    9900012    2    1    2    0    0  0.11310093867E+02  0.14844118211E+02 -0.15538086572E+01  0.72461537705E+02  0.69999957546E+02 0.  0.
        -12    1    1    2    0    0 -0.11310093867E+02 -0.14844118211E+02  0.15538086572E+01  0.18726462295E+02  0.00000000000E+00 0.  1.
         11    1    3    3    0    0  0.17792294807E+02  0.12756197053E+02  0.30305660723E+02  0.37386085511E+02  0.51100000000E-03 0. -1.
        -11    1    3    3    0    0 -0.21378314170E+01  0.68681657770E+01 -0.23085370429E+02  0.24180081729E+02  0.51100000000E-03 0.  1.
         12    1    3    3    0    0 -0.43443695231E+01 -0.47802446188E+01 -0.87740989508E+01  0.10895370465E+02  0.00000000000E+00 0. -1.
</event>
<event>
 7    1  0.1826069E-013  0.7246160E+02  0.7816164E-02  0.1226708E+00
        -11   -1    0    0    0    0  0.00000000000E+00  0.00000000000E+00  0.45593999997E+02  0.45594000000E+02  0.51100000000E-03 0. -1.
         11   -1    0    0    0    0 -0.00000000000E+00 -0.00000000000E+00 -0.45593999997E+02  0.45594000000E+02  0.51100000000E-03 0.  1.
    9900012    2    1    2    0    0 -0.10361133264E+02  0.82431768810E+01 -0.13242928111E+02  0.72461596380E+02  0.70000033981E+02 0.  0.
        -12    1    1    2    0    0  0.10361133264E+02 -0.82431768810E+01  0.13242928111E+02  0.18726403620E+02  0.00000000000E+00 0.  1.
         11    1    3    3    0    0 -0.15141240491E+02  0.82983481565E+01  0.19691643330E+02  0.26189321546E+02  0.51100000000E-03 0. -1.
        -11    1    3    3    0    0 -0.13025060802E+02 -0.44546099188E+01 -0.17744637150E+02  0.22458136750E+02  0.51100000000E-03 0.  1.
         12    1    3    3    0    0  0.17805168029E+02  0.43994386432E+01 -0.15189934291E+02  0.23814138084E+02  0.00000000000E+00 0. -1.
</event>
<event>
 7    1  0.1826069E-013  0.7246156E+02  0.7816164E-02  0.1226708E+00
        -11   -1    0    0    0    0  0.00000000000E+00  0.00000000000E+00  0.45593999997E+02  0.45594000000E+02  0.51100000000E-03 0.  1.
         11   -1    0    0    0    0 -0.00000000000E+00 -0.00000000000E+00 -0.45593999997E+02  0.45594000000E+02  0.51100000000E-03 0. -1.
    9900012    2    1    2    0    0  0.82627234633E+01 -0.16252965362E+02 -0.42717920551E+01  0.72461556412E+02  0.69999981916E+02 0.  0.
        -12    1    1    2    0    0 -0.82627234633E+01  0.16252965362E+02  0.42717920551E+01  0.18726443588E+02  0.00000000000E+00 0.  1.
         11    1    3    3    0    0  0.18079942254E+02 -0.29611940394E+01 -0.26595320645E+02  0.32294954134E+02  0.51100000000E-03 0. -1.
        -11    1    3    3    0    0  0.84890934392E+01 -0.97822040473E+00  0.14361631930E+02  0.16711615557E+02  0.51100000000E-03 0.  1.
         12    1    3    3    0    0 -0.18306312230E+02 -0.12313550918E+02  0.79618966603E+01  0.23454986721E+02  0.00000000000E+00 0. -1.
</event>
<event>
 7    1  0.1826069E-013  0.7246158E+02  0.7816164E-02  0.1226708E+00
        -11   -1    0    0    0    0  0.00000000000E+00  0.00000000000E+00  0.45593999997E+02  0.45594000000E+02  0.51100000000E-03 0.  1.
         11   -1    0    0    0    0 -0.00000000000E+00 -0.00000000000E+00 -0.45593999997E+02  0.45594000000E+02  0.51100000000E-03 0. -1.
    9900012    2    1    2    0    0  0.84252433356E+01  0.16435054282E+02 -0.30956731539E+01  0.72461576775E+02  0.70000008443E+02 0.  0.
        -12    1    1    2    0    0 -0.84252433356E+01 -0.16435054282E+02  0.30956731539E+01  0.18726423225E+02  0.00000000000E+00 0.  1.
         11    1    3    3    0    0  0.23285401342E+02  0.88746735633E+01  0.18692943809E+02  0.31151178068E+02  0.51100000000E-03 0.  1.
        -11    1    3    3    0    0  0.67680502940E+01 -0.63896189327E+01 -0.68009937606E+01  0.11527673281E+02  0.51100000000E-03 0. -1.
         12    1    3    3    0    0 -0.21628208301E+02  0.13949999651E+02 -0.14987623202E+02  0.29782725426E+02  0.00000000000E+00 0. -1.
</event>
<event>
 7    1  0.1826069E-013  0.7246167E+02  0.7816164E-02  0.1226708E+00
        -11   -1    0    0    0    0  0.00000000000E+00  0.00000000000E+00  0.45593999997E+02  0.45594000000E+02  0.51100000000E-03 0. -1.
         11   -1    0    0    0    0 -0.00000000000E+00 -0.00000000000E+00 -0.45593999997E+02  0.45594000000E+02  0.51100000000E-03 0.  1.
    9900012    2    1    2    0    0  0.39959018434E+01  0.76912686108E+01  0.16599778579E+02  0.72461668451E+02  0.70000127868E+02 0.  0.
        -12    1    1    2    0    0 -0.39959018434E+01 -0.76912686108E+01 -0.16599778579E+02  0.18726331549E+02  0.00000000000E+00 0.  1.
         11    1    3    3    0    0 -0.60209843410E+01  0.26775440046E+02  0.22350490640E+02  0.35393797114E+02  0.51100000000E-03 0. -1.
        -11    1    3    3    0    0 -0.73202403888E+01 -0.14591368834E+02 -0.93316866095E+01  0.18803572507E+02  0.51100000000E-03 0.  1.
         12    1    3    3    0    0  0.17337126573E+02 -0.44928026008E+01  0.35809745491E+01  0.18264298830E+02  0.00000000000E+00 0. -1.
</event>
<event>
 7    1  0.1826069E-013  0.7246146E+02  0.7816164E-02  0.1226708E+00
        -11   -1    0    0    0    0  0.00000000000E+00  0.00000000000E+00  0.45593999997E+02  0.45594000000E+02  0.51100000000E-03 0. -1.
         11   -1    0    0    0    0 -0.00000000000E+00 -0.00000000000E+00 -0.45593999997E+02  0.45594000000E+02  0.51100000000E-03 0.  1.
    9900012    2    1    2    0    0 -0.18168782894E+02  0.61758454389E+00 -0.44941202580E+01  0.72461462695E+02  0.69999859832E+02 0.  0.
        -12    1    1    2    0    0  0.18168782894E+02 -0.61758454389E+00  0.44941202580E+01  0.18726537305E+02  0.00000000000E+00 0.  1.
         11    1    3    3    0    0 -0.22610486428E+02  0.11900734813E+02 -0.24563350069E+02  0.35443190495E+02  0.51100000000E-03 0. -1.
        -11    1    3    3    0    0  0.10302806806E+02 -0.17774341605E+02  0.78531095379E+01  0.21994235091E+02  0.51100000000E-03 0.  1.
         12    1    3    3    0    0 -0.58611032725E+01  0.64911913357E+01  0.12216120273E+02  0.15024037109E+02  0.00000000000E+00 0. -1.
</event>
<event>
 7    1  0.1826069E-013  0.7246163E+02  0.7816164E-02  0.1226708E+00
        -11   -1    0    0    0    0  0.00000000000E+00  0.00000000000E+00  0.45593999997E+02  0.45594000000E+02  0.51100000000E-03 0.  1.
         11   -1    0    0    0    0 -0.00000000000E+00 -0.00000000000E+00 -0.45593999997E+02  0.45594000000E+02  0.51100000000E-03 0. -1.
    9900012    2    1    2    0    0  0.11992618867E+02 -0.97807390958E+01 -0.10544730027E+02  0.72461625661E+02  0.70000072125E+02 0.  0.
        -12    1    1    2    0    0 -0.11992618867E+02  0.97807390958E+01  0.10544730027E+02  0.18726374339E+02  0.00000000000E+00 0.  1.
         11    1    3    3    0    0  0.13802341105E+02 -0.16275249255E+02 -0.10222084518E+02  0.23661770231E+02  0.51100000000E-03 0. -1.
        -11    1    3    3    0    0  0.32957658849E+01  0.57585796712E+01  0.23503323298E+02  0.24421906537E+02  0.51100000000E-03 0.  1.
        -12    1    3    3    0    0 -0.51054881232E+01  0.73593048773E+00 -0.23825968807E+02  0.24377948893E+02  0.00000000000E+00 0.  1.
</event>
<event>
 7    1  0.1826069E-013  0.7246164E+02  0.7816164E-02  0.1226708E+00
        -11   -1    0    0    0    0  0.00000000000E+00  0.00000000000E+00  0.45593999997E+02  0.45594000000E+02  0.51100000000E-03 0.  1.
         11   -1    0    0    0    0 -0.00000000000E+00 -0.00000000000E+00 -0.45593999997E+02  0.45594000000E+02  0.51100000000E-03 0. -1.
    9900012    2    1    2    0    0  0.10792600775E+02  0.13750683428E+02  0.67167805154E+01  0.72461637120E+02  0.70000087052E+02 0.  0.
        -12    1    1    2    0    0 -0.10792600775E+02 -0.13750683428E+02 -0.67167805154E+01  0.18726362880E+02  0.00000000000E+00 0.  1.
         11    1    3    3    0    0  0.95613859860E+01  0.12109513983E+02 -0.30787179493E+02  0.34437056382E+02  0.51100000000E-03 0. -1.
        -11    1    3    3    0    0 -0.97377539107E+00 -0.17299165318E+01  0.77964320766E+01  0.80451975182E+01  0.51100000000E-03 0.  1.
         12    1    3    3    0    0  0.22049901804E+01  0.33710859772E+01  0.29707527932E+02  0.29979383219E+02  0.00000000000E+00 0. -1.
</event>
<event>
 7    1  0.1826069E-013  0.7246155E+02  0.7816164E-02  0.1226708E+00
        -11   -1    0    0    0    0  0.00000000000E+00  0.00000000000E+00  0.45593999997E+02  0.45594000000E+02  0.51100000000E-03 0.  1.
         11   -1    0    0    0    0 -0.00000000000E+00 -0.00000000000E+00 -0.45593999997E+02  0.45594000000E+02  0.51100000000E-03 0. -1.
    9900012    2    1    2    0    0  0.67171209633E+00  0.16539905296E+02  0.87555920766E+01  0.72461546599E+02  0.69999969133E+02 0.  0.
        -12    1    1    2    0    0 -0.67171209633E+00 -0.16539905296E+02 -0.87555920766E+01  0.18726453401E+02  0.00000000000E+00 0.  1.
         11    1    3    3    0    0 -0.21831827763E+02 -0.10272031372E+02  0.10817485848E+01  0.24151884238E+02  0.51100000000E-03 0. -1.
        -11    1    3    3    0    0  0.27831352958E+02  0.10239748663E+02  0.86010974266E+01  0.30877427635E+02  0.51100000000E-03 0.  1.
         12    1    3    3    0    0 -0.53278130987E+01  0.16572188005E+02 -0.92725393479E+00  0.17432234726E+02  0.00000000000E+00 0. -1.
</event>
<event>
 7    1  0.1826069E-013  0.7246151E+02  0.7816164E-02  0.1226708E+00
        -11   -1    0    0    0    0  0.00000000000E+00  0.00000000000E+00  0.45593999997E+02  0.45594000000E+02  0.51100000000E-03 0. -1.
         11   -1    0    0    0    0 -0.00000000000E+00 -0.00000000000E+00 -0.45593999997E+02  0.45594000000E+02  0.51100000000E-03 0.  1.
    9900012    2    1    2    0    0 -0.43221235867E+01  0.13379120815E+02  0.12369303021E+02  0.72461513856E+02  0.69999926478E+02 0.  0.
        -12    1    1    2    0    0  0.43221235867E+01 -0.13379120815E+02 -0.12369303021E+02  0.18726486144E+02  0.00000000000E+00 0.  1.
         11    1    3    3    0    0  0.91744786993E+01 -0.12507380087E+02  0.15625123433E+00  0.15512254213E+02  0.51100000000E-03 0. -1.
        -11    1    3    3    0    0 -0.31084844274E+02  0.15867799627E+02  0.40933948647E+01  0.35139870380E+02  0.51100000000E-03 0.  1.
         12    1    3    3    0    0  0.17588241988E+02  0.10018701275E+02  0.81196569221E+01  0.21809389263E+02  0.00000000000E+00 0. -1.
</event>
<event>
 7    1  0.1826069E-013  0.7246159E+02  0.7816164E-02  0.1226708E+00
        -11   -1    0    0    0    0  0.00000000000E+00  0.00000000000E+00  0.45593999997E+02  0.45594000000E+02  0.51100000000E-03 0.  1.
         11   -1    0    0    0    0 -0.00000000000E+00 -0.00000000000E+00 -0.45593999997E+02  0.45594000000E+02  0.51100000000E-03 0. -1.
    9900012    2    1    2    0    0  0.42688132358E+01  0.39895348708E+01 -0.17791546646E+02  0.72461593858E+02  0.70000030696E+02 0.  0.
        -12    1    1    2    0    0 -0.42688132358E+01 -0.39895348708E+01  0.17791546646E+02  0.18726406142E+02  0.00000000000E+00 0.  1.
         11    1    3    3    0    0  0.90440716670E+01 -0.19050838207E+02 -0.57000920329E+01  0.21845382078E+02  0.51100000000E-03 0. -1.
        -11    1    3    3    0    0  0.67121366772E+01  0.11100214180E+02  0.14393023403E+02  0.19375929824E+02  0.51100000000E-03 0.  1.
         12    1    3    3    0    0 -0.11487395108E+02  0.11940158898E+02 -0.26484478016E+02  0.31240281956E+02  0.00000000000E+00 0. -1.
</event>
<event>
 7    1  0.1826069E-013  0.7246159E+02  0.7816164E-02  0.1226708E+00
        -11   -1    0    0    0    0  0.00000000000E+00  0.00000000000E+00  0.45593999997E+02  0.45594000000E+02  0.51100000000E-03 0.  1.
         11   -1    0    0    0    0 -0.00000000000E+00 -0.00000000000E+00 -0.45593999997E+02  0.45594000000E+02  0.51100000000E-03 0. -1.
    9900012    2    1    2    0    0  0.10673389330E+02  0.58843924393E+01 -0.14217287195E+02  0.72461586319E+02  0.70000020875E+02 0.  0.
        -12    1    1    2    0    0 -0.10673389330E+02 -0.58843924393E+01  0.14217287195E+02  0.18726413681E+02  0.00000000000E+00 0.  1.
         11    1    3    3    0    0 -0.75856632141E+01 -0.27600708459E+01 -0.51203084884E+01  0.95591755267E+01  0.51100000000E-03 0. -1.
        -11    1    3    3    0    0  0.28960410322E+02  0.25641798086E+02 -0.15719943503E+02  0.41753129213E+02  0.51100000000E-03 0.  1.
        -12    1    3    3    0    0 -0.10701357778E+02 -0.16997334801E+02  0.66229647957E+01  0.21149281579E+02  0.00000000000E+00 0.  1.
</event>
<event>
 7    1  0.1826069E-013  0.7246160E+02  0.7816164E-02  0.1226708E+00
        -11   -1    0    0    0    0  0.00000000000E+00  0.00000000000E+00  0.45593999997E+02  0.45594000000E+02  0.51100000000E-03 0. -1.
         11   -1    0    0    0    0 -0.00000000000E+00 -0.00000000000E+00 -0.45593999997E+02  0.45594000000E+02  0.51100000000E-03 0.  1.
    9900012    2    1    2    0    0  0.47043345176E+01  0.17874108902E+02  0.30105697183E+01  0.72461599857E+02  0.70000038511E+02 0.  0.
        -12    1    1    2    0    0 -0.47043345176E+01 -0.17874108902E+02 -0.30105697183E+01  0.18726400143E+02  0.00000000000E+00 0.  1.
         11    1    3    3    0    0 -0.25792219887E+02 -0.80158650746E+01 -0.71838758098E+01  0.27948180111E+02  0.51100000000E-03 0. -1.
        -11    1    3    3    0    0  0.26595341112E+02  0.12954548662E+02  0.91353719673E+01  0.30961064599E+02  0.51100000000E-03 0.  1.
         12    1    3    3    0    0  0.39012132926E+01  0.12935425314E+02  0.10590735609E+01  0.13552355147E+02  0.00000000000E+00 0. -1.
</event>
<event>
 7    1  0.1826069E-013  0.7246152E+02  0.7816164E-02  0.1226708E+00
        -11   -1    0    0    0    0  0.00000000000E+00  0.00000000000E+00  0.45593999997E+02  0.45594000000E+02  0.51100000000E-03 0.  1.
         11   -1    0    0    0    0 -0.00000000000E+00 -0.00000000000E+00 -0.45593999997E+02  0.45594000000E+02  0.51100000000E-03 0. -1.
    9900012    2    1    2    0    0 -0.14261309109E+02  0.87702060362E+01  0.83892473754E+01  0.72461523478E+02  0.69999939013E+02 0.  0.
        -12    1    1    2    0    0  0.14261309109E+02 -0.87702060362E+01 -0.83892473754E+01  0.18726476522E+02  0.00000000000E+00 0.  1.
         11    1    3    3    0    0  0.34328969072E+01  0.68336078578E+01 -0.15601243873E+01  0.78049321518E+01  0.51100000000E-03 0. -1.
        -11    1    3    3    0    0 -0.31302017924E+02  0.47427067024E+01  0.27733328695E+02  0.42088562743E+02  0.51100000000E-03 0.  1.
        -12    1    3    3    0    0  0.13607811908E+02 -0.28061085239E+01 -0.17783956932E+02  0.22568028583E+02  0.00000000000E+00 0.  1.
</event>
<event>
 7    1  0.1826069E-013  0.7246152E+02  0.7816164E-02  0.1226708E+00
        -11   -1    0    0    0    0  0.00000000000E+00  0.00000000000E+00  0.45593999997E+02  0.45594000000E+02  0.51100000000E-03 0.  1.
         11   -1    0    0    0    0 -0.00000000000E+00 -0.00000000000E+00 -0.45593999997E+02  0.45594000000E+02  0.51100000000E-03 0. -1.
    9900012    2    1    2    0    0 -0.10351897154E+02  0.11554814026E+02  0.10488354485E+02  0.72461519240E+02  0.69999933492E+02 0.  0.
        -12    1    1    2    0    0  0.10351897154E+02 -0.11554814026E+02 -0.10488354485E+02  0.18726480760E+02  0.00000000000E+00 0.  1.
         11    1    3    3    0    0 -0.17465469670E+02  0.23883374297E+01 -0.19198309787E+02  0.26063804124E+02  0.51100000000E-03 0. -1.
        -11    1    3    3    0    0  0.19309441802E+02  0.28350582359E+01  0.25341515525E+02  0.31985692227E+02  0.51100000000E-03 0.  1.
        -12    1    3    3    0    0 -0.12195869286E+02  0.63314183605E+01  0.43451487474E+01  0.14412022888E+02  0.00000000000E+00 0.  1.
</event>
<event>
 7    1  0.1826069E-013  0.7246158E+02  0.7816164E-02  0.1226708E+00
        -11   -1    0    0    0    0  0.00000000000E+00  0.00000000000E+00  0.45593999997E+02  0.45594000000E+02  0.51100000000E-03 0.  1.
         11   -1    0    0    0    0 -0.00000000000E+00 -0.00000000000E+00 -0.45593999997E+02  0.45594000000E+02  0.51100000000E-03 0. -1.
    9900012    2    1    2    0    0  0.33630893768E+01 -0.15935150411E+02 -0.92433446498E+01  0.72461579918E+02  0.70000012536E+02 0.  0.
        -12    1    1    2    0    0 -0.33630893768E+01  0.15935150411E+02  0.92433446498E+01  0.18726420082E+02  0.00000000000E+00 0.  1.
         11    1    3    3    0    0  0.38103594233E+01 -0.13495591581E+02 -0.21482984776E+02  0.25654794215E+02  0.51100000000E-03 0. -1.
        -11    1    3    3    0    0 -0.16673365484E+02 -0.63822980895E+00  0.22132575730E+02  0.27717491996E+02  0.51100000000E-03 0.  1.
        -12    1    3    3    0    0  0.16226095437E+02 -0.18013290212E+01 -0.98929356037E+01  0.19089293707E+02  0.00000000000E+00 0.  1.
</event>
<event>
 7    1  0.1826069E-013  0.7246157E+02  0.7816164E-02  0.1226708E+00
        -11   -1    0    0    0    0  0.00000000000E+00  0.00000000000E+00  0.45593999997E+02  0.45594000000E+02  0.51100000000E-03 0. -1.
         11   -1    0    0    0    0 -0.00000000000E+00 -0.00000000000E+00 -0.45593999997E+02  0.45594000000E+02  0.51100000000E-03 0.  1.
    9900012    2    1    2    0    0  0.18106496294E+01  0.35447590318E+01  0.18298507191E+02  0.72461571240E+02  0.70000001232E+02 0.  0.
        -12    1    1    2    0    0 -0.18106496294E+01 -0.35447590318E+01 -0.18298507191E+02  0.18726428760E+02  0.00000000000E+00 0.  1.
         11    1    3    3    0    0  0.26328944192E+02  0.18187563911E+02  0.12787058733E+02  0.34460261964E+02  0.51100000000E-03 0. -1.
        -11    1    3    3    0    0 -0.45343652458E+01  0.67706566637E+01 -0.23931540469E+00  0.81522715831E+01  0.51100000000E-03 0.  1.
         12    1    3    3    0    0 -0.19983929317E+02 -0.21413461543E+02  0.57507638628E+01  0.29849037693E+02  0.00000000000E+00 0. -1.
</event>
<event>
 7    1  0.1826069E-013  0.7246157E+02  0.7816164E-02  0.1226708E+00
        -11   -1    0    0    0    0  0.00000000000E+00  0.00000000000E+00  0.45593999997E+02  0.45594000000E+02  0.51100000000E-03 0.  1.
         11   -1    0    0    0    0 -0.00000000000E+00 -0.00000000000E+00 -0.45593999997E+02  0.45594000000E+02  0.51100000000E-03 0. -1.
    9900012    2    1    2    0    0 -0.55033362850E+01 -0.50456446617E+01 -0.17173642937E+02  0.72461568091E+02  0.69999997130E+02 0.  0.
        -12    1    1    2    0    0  0.55033362850E+01  0.50456446617E+01  0.17173642937E+02  0.18726431909E+02  0.00000000000E+00 0.  1.
         11    1    3    3    0    0 -0.15244757575E+02  0.15048814203E+02 -0.28681565939E+01  0.21612398408E+02  0.51100000000E-03 0. -1.
        -11    1    3    3    0    0  0.20486525297E+02 -0.45684164129E+01 -0.22048285617E+02  0.30441666285E+02  0.51100000000E-03 0.  1.
        -12    1    3    3    0    0 -0.10745104007E+02 -0.15526042452E+02  0.77427992743E+01  0.20407503398E+02  0.00000000000E+00 0.  1.
</event>
<event>
 7    1  0.1826069E-013  0.7246157E+02  0.7816164E-02  0.1226708E+00
        -11   -1    0    0    0    0  0.00000000000E+00  0.00000000000E+00  0.45593999997E+02  0.45594000000E+02  0.51100000000E-03 0.  1.
         11   -1    0    0    0    0 -0.00000000000E+00 -0.00000000000E+00 -0.45593999997E+02  0.45594000000E+02  0.51100000000E-03 0. -1.
    9900012    2    1    2    0    0  0.11993977229E+01  0.12403923679E+02 -0.13977955433E+02  0.72461571733E+02  0.70000001874E+02 0.  0.
        -12    1    1    2    0    0 -0.11993977229E+01 -0.12403923679E+02  0.13977955433E+02  0.18726428267E+02  0.00000000000E+00 0.  1.
         11    1    3    3    0    0 -0.23333064995E+02  0.14887122094E+02 -0.14028336019E+02  0.31029865259E+02  0.51100000000E-03 0. -1.
        -11    1    3    3    0    0  0.15799118343E+02 -0.19810329141E+01  0.16419238704E+02  0.22871992299E+02  0.51100000000E-03 0.  1.
         12    1    3    3    0    0  0.87333443744E+01 -0.50216550009E+00 -0.16368858118E+02  0.18559714175E+02  0.00000000000E+00 0. -1.
</event>
<event>
 7    1  0.1826069E-013  0.7246160E+02  0.7816164E-02  0.1226708E+00
        -11   -1    0    0    0    0  0.00000000000E+00  0.00000000000E+00  0.45593999997E+02  0.45594000000E+02  0.51100000000E-03 0.  1.
         11   -1    0    0    0    0 -0.00000000000E+00 -0.00000000000E+00 -0.45593999997E+02  0.45594000000E+02  0.51100000000E-03 0. -1.
    9900012    2    1    2    0    0  0.17183893001E+02 -0.23807983953E+01  0.70515078821E+01  0.72461597700E+02  0.70000035701E+02 0.  0.
        -12    1    1    2    0    0 -0.17183893001E+02  0.23807983953E+01 -0.70515078821E+01  0.18726402300E+02  0.00000000000E+00 0.  1.
         11    1    3    3    0    0  0.22194537862E+02 -0.32015075827E+01  0.79032364661E+01  0.23776213084E+02  0.51100000000E-03 0. -1.
        -11    1    3    3    0    0 -0.14945362875E+02  0.14263567960E+01 -0.21232445112E+02  0.26004136034E+02  0.51100000000E-03 0.  1.
        -12    1    3    3    0    0  0.99347180140E+01 -0.60564760861E+00  0.20380716528E+02  0.22681248582E+02  0.00000000000E+00 0.  1.
</event>
<event>
 7    1  0.1826069E-013  0.7246165E+02  0.7816164E-02  0.1226708E+00
        -11   -1    0    0    0    0  0.00000000000E+00  0.00000000000E+00  0.45593999997E+02  0.45594000000E+02  0.51100000000E-03 0.  1.
         11   -1    0    0    0    0 -0.00000000000E+00 -0.00000000000E+00 -0.45593999997E+02  0.45594000000E+02  0.51100000000E-03 0. -1.
    9900012    2    1    2    0    0 -0.17243272231E+02 -0.46386517579E+01 -0.56416968582E+01  0.72461647691E+02  0.70000100823E+02 0.  0.
        -12    1    1    2    0    0  0.17243272231E+02  0.46386517579E+01  0.56416968582E+01  0.18726352309E+02  0.00000000000E+00 0.  1.
         11    1    3    3    0    0  0.16065009043E+02 -0.16050486312E+02  0.17238200386E+02  0.28510667814E+02  0.51100000000E-03 0. -1.
        -11    1    3    3    0    0 -0.12033604328E+02  0.99884691333E+01 -0.59790007658E+01  0.16742926840E+02  0.51100000000E-03 0.  1.
         12    1    3    3    0    0 -0.21274676946E+02  0.14233654212E+01 -0.16900896478E+02  0.27208053037E+02  0.00000000000E+00 0. -1.
</event>
<event>
 7    1  0.1826069E-013  0.7246153E+02  0.7816164E-02  0.1226708E+00
        -11   -1    0    0    0    0  0.00000000000E+00  0.00000000000E+00  0.45593999997E+02  0.45594000000E+02  0.51100000000E-03 0.  1.
         11   -1    0    0    0    0 -0.00000000000E+00 -0.00000000000E+00 -0.45593999997E+02  0.45594000000E+02  0.51100000000E-03 0. -1.
    9900012    2    1    2    0    0 -0.95565492512E+01  0.10828230319E+02 -0.11920672936E+02  0.72461530800E+02  0.69999948552E+02 0.  0.
        -12    1    1    2    0    0  0.95565492512E+01 -0.10828230319E+02  0.11920672936E+02  0.18726469200E+02  0.00000000000E+00 0.  1.
         11    1    3    3    0    0 -0.19210685094E+02 -0.11948163171E+02  0.60181839849E+00  0.22631199937E+02  0.51100000000E-03 0. -1.
        -11    1    3    3    0    0  0.23582012325E+02  0.23731492347E+02 -0.45782319503E+01  0.33767665634E+02  0.51100000000E-03 0.  1.
         12    1    3    3    0    0 -0.13927876482E+02 -0.95509885696E+00 -0.79442593845E+01  0.16062665230E+02  0.00000000000E+00 0. -1.
</event>
<event>
 7    1  0.1826069E-013  0.7246159E+02  0.7816164E-02  0.1226708E+00
        -11   -1    0    0    0    0  0.00000000000E+00  0.00000000000E+00  0.45593999997E+02  0.45594000000E+02  0.51100000000E-03 0. -1.
         11   -1    0    0    0    0 -0.00000000000E+00 -0.00000000000E+00 -0.45593999997E+02  0.45594000000E+02  0.51100000000E-03 0.  1.
    9900012    2    1    2    0    0 -0.17675911471E+02  0.47099871103E+01  0.40070695610E+01  0.72461590003E+02  0.70000025675E+02 0.  0.
        -12    1    1    2    0    0  0.17675911471E+02 -0.47099871103E+01 -0.40070695610E+01  0.18726409997E+02  0.00000000000E+00 0.  1.
         11    1    3    3    0    0 -0.12033694154E+01  0.11223036817E+02  0.38509843545E+01  0.11926220445E+02  0.51100000000E-03 0. -1.
        -11    1    3    3    0    0 -0.36107653727E+02 -0.66633976097E+01 -0.10507134282E+02  0.38191142906E+02  0.51100000000E-03 0.  1.
        -12    1    3    3    0    0  0.19635111672E+02  0.15034790334E+00  0.10663219489E+02  0.22344226653E+02  0.00000000000E+00 0.  1.
</event>
<event>
 7    1  0.1826069E-013  0.7246154E+02  0.7816164E-02  0.1226708E+00
        -11   -1    0    0    0    0  0.00000000000E+00  0.00000000000E+00  0.45593999997E+02  0.45594000000E+02  0.51100000000E-03 0. -1.
         11   -1    0    0    0    0 -0.00000000000E+00 -0.00000000000E+00 -0.45593999997E+02  0.45594000000E+02  0.51100000000E-03 0.  1.
    9900012    2    1    2    0    0 -0.61155005462E+01 -0.78817608509E+00  0.17682190527E+02  0.72461536631E+02  0.69999956148E+02 0.  0.
        -12    1    1    2    0    0  0.61155005462E+01  0.78817608509E+00 -0.17682190527E+02  0.18726463369E+02  0.00000000000E+00 0.  1.
         11    1    3    3    0    0  0.13111602233E+02  0.10901554436E+02  0.18546941497E+01  0.17152197903E+02  0.51100000000E-03 0. -1.
        -11    1    3    3    0    0 -0.58931747594E+01 -0.22083852012E+02 -0.95864292165E+01  0.24785593675E+02  0.51100000000E-03 0.  1.
        -12    1    3    3    0    0 -0.13333928020E+02  0.10394121491E+02  0.25413925594E+02  0.30523745054E+02  0.00000000000E+00 0.  1.
</event>
<event>
 7    1  0.1826069E-013  0.7246157E+02  0.7816164E-02  0.1226708E+00
        -11   -1    0    0    0    0  0.00000000000E+00  0.00000000000E+00  0.45593999997E+02  0.45594000000E+02  0.51100000000E-03 0.  1.
         11   -1    0    0    0    0 -0.00000000000E+00 -0.00000000000E+00 -0.45593999997E+02  0.45594000000E+02  0.51100000000E-03 0. -1.
    9900012    2    1    2    0    0 -0.14655365130E+02 -0.22355137608E+01 -0.11441240937E+02  0.72461568331E+02  0.69999997443E+02 0.  0.
        -12    1    1    2    0    0  0.14655365130E+02  0.22355137608E+01  0.11441240937E+02  0.18726431669E+02  0.00000000000E+00 0.  1.
         11    1    3    3    0    0 -0.15871867921E+02 -0.23121231616E+02  0.40274815700E+01  0.28332457549E+02  0.51100000000E-03 0. -1.
        -11    1    3    3    0    0  0.78343020844E+01  0.18943112888E+02  0.61781981657E+01  0.21409996448E+02  0.51100000000E-03 0.  1.
        -12    1    3    3    0    0 -0.66177992933E+01  0.19426049665E+01 -0.21646920672E+02  0.22719114334E+02  0.00000000000E+00 0.  1.
</event>
<event>
 7    1  0.1826069E-013  0.7246139E+02  0.7816164E-02  0.1226708E+00
        -11   -1    0    0    0    0  0.00000000000E+00  0.00000000000E+00  0.45593999997E+02  0.45594000000E+02  0.51100000000E-03 0. -1.
         11   -1    0    0    0    0 -0.00000000000E+00 -0.00000000000E+00 -0.45593999997E+02  0.45594000000E+02  0.51100000000E-03 0.  1.
    9900012    2    1    2    0    0  0.86905737193E+01  0.16446840309E+02  0.21590132163E+01  0.72461388833E+02  0.69999763612E+02 0.  0.
        -12    1    1    2    0    0 -0.86905737193E+01 -0.16446840309E+02 -0.21590132163E+01  0.18726611167E+02  0.00000000000E+00 0.  1.
         11    1    3    3    0    0  0.10571190211E+02 -0.24406752875E+02 -0.66856549005E+01  0.27425127714E+02  0.51100000000E-03 0. -1.
        -11    1    3    3    0    0 -0.25324423440E+01  0.23489459194E+02 -0.32740064694E+01  0.23851353758E+02  0.51100000000E-03 0.  1.
         12    1    3    3    0    0  0.65182585229E+00  0.17364133990E+02  0.12118674586E+02  0.21184907361E+02  0.00000000000E+00 0. -1.
</event>
<event>
 7    1  0.1826069E-013  0.7246156E+02  0.7816164E-02  0.1226708E+00
        -11   -1    0    0    0    0  0.00000000000E+00  0.00000000000E+00  0.45593999997E+02  0.45594000000E+02  0.51100000000E-03 0. -1.
         11   -1    0    0    0    0 -0.00000000000E+00 -0.00000000000E+00 -0.45593999997E+02  0.45594000000E+02  0.51100000000E-03 0.  1.
    9900012    2    1    2    0    0  0.11320734441E+02  0.61742316154E+01  0.13579378232E+02  0.72461556732E+02  0.69999982332E+02 0.  0.
        -12    1    1    2    0    0 -0.11320734441E+02 -0.61742316154E+01 -0.13579378232E+02  0.18726443268E+02  0.00000000000E+00 0.  1.
         11    1    3    3    0    0  0.23986522037E+02 -0.19657906285E+02  0.23469574467E+02  0.38892254304E+02  0.51100000000E-03 0. -1.
        -11    1    3    3    0    0 -0.61052111484E+01  0.32017073638E+01  0.19985292485E+01  0.71776495198E+01  0.51100000000E-03 0.  1.
         12    1    3    3    0    0 -0.65605764476E+01  0.22630430537E+02 -0.11888725484E+02  0.26391652908E+02  0.00000000000E+00 0. -1.
</event>
<event>
 7    1  0.1826069E-013  0.7246154E+02  0.7816164E-02  0.1226708E+00
        -11   -1    0    0    0    0  0.00000000000E+00  0.00000000000E+00  0.45593999997E+02  0.45594000000E+02  0.51100000000E-03 0. -1.
         11   -1    0    0    0    0 -0.00000000000E+00 -0.00000000000E+00 -0.45593999997E+02  0.45594000000E+02  0.51100000000E-03 0.  1.
    9900012    2    1    2    0    0 -0.18719425108E+02  0.34130873524E+00  0.38355302016E+00  0.72461535279E+02  0.69999954386E+02 0.  0.
        -12    1    1    2    0    0  0.18719425108E+02 -0.34130873524E+00 -0.38355302016E+00  0.18726464721E+02  0.00000000000E+00 0.  1.
         11    1    3    3    0    0  0.51503969903E+01  0.31538452028E+02  0.59084592522E+01  0.32497852798E+02  0.51100000000E-03 0.  1.
        -11    1    3    3    0    0 -0.22896591788E+02 -0.27639475612E+02 -0.49808383397E+01  0.36235387102E+02  0.51100000000E-03 0. -1.
        -12    1    3    3    0    0 -0.97323031019E+00 -0.35576676802E+01 -0.54406789236E+00  0.37282953787E+01  0.00000000000E+00 0.  1.
</event>
<event>
 7    1  0.1826069E-013  0.7246152E+02  0.7816164E-02  0.1226708E+00
        -11   -1    0    0    0    0  0.00000000000E+00  0.00000000000E+00  0.45593999997E+02  0.45594000000E+02  0.51100000000E-03 0.  1.
         11   -1    0    0    0    0 -0.00000000000E+00 -0.00000000000E+00 -0.45593999997E+02  0.45594000000E+02  0.51100000000E-03 0. -1.
    9900012    2    1    2    0    0 -0.50201770202E+01 -0.16486128798E+02 -0.73271023338E+01  0.72461520121E+02  0.69999934640E+02 0.  0.
        -12    1    1    2    0    0  0.50201770202E+01  0.16486128798E+02  0.73271023338E+01  0.18726479879E+02  0.00000000000E+00 0.  1.
         11    1    3    3    0    0  0.11293986716E+02  0.21007669736E+02  0.41895931871E+01  0.24216296476E+02  0.51100000000E-03 0. -1.
        -11    1    3    3    0    0 -0.33758244661E+01 -0.24601803812E+02  0.28661628978E+01  0.24997196476E+02  0.51100000000E-03 0.  1.
         12    1    3    3    0    0 -0.12938339270E+02 -0.12891994722E+02 -0.14382858419E+02  0.23248027169E+02  0.00000000000E+00 0. -1.
</event>
<event>
 7    1  0.1826069E-013  0.7246157E+02  0.7816164E-02  0.1226708E+00
        -11   -1    0    0    0    0  0.00000000000E+00  0.00000000000E+00  0.45593999997E+02  0.45594000000E+02  0.51100000000E-03 0. -1.
         11   -1    0    0    0    0 -0.00000000000E+00 -0.00000000000E+00 -0.45593999997E+02  0.45594000000E+02  0.51100000000E-03 0.  1.
    9900012    2    1    2    0    0 -0.43446408710E+01  0.17053396764E+02 -0.64019472010E+01  0.72461570190E+02  0.69999999864E+02 0.  0.
        -12    1    1    2    0    0  0.43446408710E+01 -0.17053396764E+02  0.64019472010E+01  0.18726429810E+02  0.00000000000E+00 0.  1.
         11    1    3    3    0    0  0.20880739435E+02  0.21409564396E+01  0.48463608216E+00  0.20995805444E+02  0.51100000000E-03 0. -1.
        -11    1    3    3    0    0 -0.29758276402E+02 -0.96617730754E+00 -0.14691342706E+02  0.33201265997E+02  0.51100000000E-03 0.  1.
         12    1    3    3    0    0  0.45328960962E+01  0.15878617632E+02  0.78047594224E+01  0.18264498749E+02  0.00000000000E+00 0. -1.
</event>
<event>
 7    1  0.1826069E-013  0.7246160E+02  0.7816164E-02  0.1226708E+00
        -11   -1    0    0    0    0  0.00000000000E+00  0.00000000000E+00  0.45593999997E+02  0.45594000000E+02  0.51100000000E-03 0.  1.
         11   -1    0    0    0    0 -0.00000000000E+00 -0.00000000000E+00 -0.45593999997E+02  0.45594000000E+02  0.51100000000E-03 0. -1.
    9900012    2    1    2    0    0 -0.51056687784E+01  0.15111276230E+02 -0.98112015612E+01  0.72461596206E+02  0.70000033755E+02 0.  0.
        -12    1    1    2    0    0  0.51056687784E+01 -0.15111276230E+02  0.98112015612E+01  0.18726403794E+02  0.00000000000E+00 0.  1.
         11    1    3    3    0    0  0.22631356554E+01 -0.16291708842E+02 -0.10598730436E+02  0.19567182912E+02  0.51100000000E-03 0. -1.
        -11    1    3    3    0    0 -0.12611340903E+02  0.21087614885E+02  0.19176069536E+02  0.31168173896E+02  0.51100000000E-03 0.  1.
        -12    1    3    3    0    0  0.52425364688E+01  0.10315370187E+02 -0.18388540662E+02  0.21726239398E+02  0.00000000000E+00 0.  1.
</event>
<event>
 7    1  0.1826069E-013  0.7246214E+02  0.7816164E-02  0.1226706E+00
        -11   -1    0    0    0    0  0.00000000000E+00  0.00000000000E+00  0.45593999997E+02  0.45594000000E+02  0.51100000000E-03 0.  1.
         11   -1    0    0    0    0 -0.00000000000E+00 -0.00000000000E+00 -0.45593999997E+02  0.45594000000E+02  0.51100000000E-03 0. -1.
    9900012    2    1    2    0    0 -0.52572284623E+01 -0.41885955165E+01 -0.17477844009E+02  0.72462140481E+02  0.70000742770E+02 0.  0.
        -12    1    1    2    0    0  0.52572284623E+01  0.41885955165E+01  0.17477844009E+02  0.18725859519E+02  0.00000000000E+00 0.  1.
         11    1    3    3    0    0  0.11082457772E+02  0.20488432262E+02 -0.30275116623E+02  0.38199206976E+02  0.51100000000E-03 0. -1.
        -11    1    3    3    0    0 -0.96349161126E+01 -0.94292901290E+01  0.37910202765E+00  0.13486542902E+02  0.51100000000E-03 0.  1.
         12    1    3    3    0    0 -0.67047701218E+01 -0.15247737649E+02  0.12418170586E+02  0.20776390603E+02  0.00000000000E+00 0. -1.
</event>
<event>
 7    1  0.1826069E-013  0.7246145E+02  0.7816164E-02  0.1226708E+00
        -11   -1    0    0    0    0  0.00000000000E+00  0.00000000000E+00  0.45593999997E+02  0.45594000000E+02  0.51100000000E-03 0. -1.
         11   -1    0    0    0    0 -0.00000000000E+00 -0.00000000000E+00 -0.45593999997E+02  0.45594000000E+02  0.51100000000E-03 0.  1.
    9900012    2    1    2    0    0  0.37534200145E+01  0.53920570265E+01  0.17536280060E+02  0.72461453091E+02  0.69999847321E+02 0.  0.
        -12    1    1    2    0    0 -0.37534200145E+01 -0.53920570265E+01 -0.17536280060E+02  0.18726546909E+02  0.00000000000E+00 0.  1.
         11    1    3    3    0    0 -0.55092785141E+01  0.26934555558E+02  0.26095935316E+02  0.37905412188E+02  0.51100000000E-03 0. -1.
        -11    1    3    3    0    0 -0.42072132498E+00 -0.23460007784E+02 -0.45474984274E+01  0.23900391500E+02  0.51100000000E-03 0.  1.
         12    1    3    3    0    0  0.96834198536E+01  0.19175092517E+01 -0.40121568282E+01  0.10655649403E+02  0.00000000000E+00 0. -1.
</event>
<event>
 7    1  0.1826069E-013  0.7246157E+02  0.7816164E-02  0.1226708E+00
        -11   -1    0    0    0    0  0.00000000000E+00  0.00000000000E+00  0.45593999997E+02  0.45594000000E+02  0.51100000000E-03 0.  1.
         11   -1    0    0    0    0 -0.00000000000E+00 -0.00000000000E+00 -0.45593999997E+02  0.45594000000E+02  0.51100000000E-03 0. -1.
    9900012    2    1    2    0    0  0.43610583393E+01 -0.13163002059E+02 -0.12585543579E+02  0.72461565203E+02  0.69999993367E+02 0.  0.
        -12    1    1    2    0    0 -0.43610583393E+01  0.13163002059E+02  0.12585543579E+02  0.18726434797E+02  0.00000000000E+00 0.  1.
         11    1    3    3    0    0 -0.77492792934E+01 -0.25167114384E+02 -0.25637788301E+02  0.36752294693E+02  0.51100000000E-03 0. -1.
        -11    1    3    3    0    0  0.22226744832E+01 -0.87458249704E+00  0.18446174257E+02  0.18600175305E+02  0.51100000000E-03 0.  1.
         12    1    3    3    0    0  0.98876631495E+01  0.12878694823E+02 -0.53939295347E+01  0.17109095205E+02  0.00000000000E+00 0. -1.
</event>
<event>
 7    1  0.1826069E-013  0.7246157E+02  0.7816164E-02  0.1226708E+00
        -11   -1    0    0    0    0  0.00000000000E+00  0.00000000000E+00  0.45593999997E+02  0.45594000000E+02  0.51100000000E-03 0. -1.
         11   -1    0    0    0    0 -0.00000000000E+00 -0.00000000000E+00 -0.45593999997E+02  0.45594000000E+02  0.51100000000E-03 0.  1.
    9900012    2    1    2    0    0 -0.22372070102E+01  0.18492540590E+02 -0.19235782114E+01  0.72461566655E+02  0.69999995259E+02 0.  0.
        -12    1    1    2    0    0  0.22372070102E+01 -0.18492540590E+02  0.19235782114E+01  0.18726433345E+02  0.00000000000E+00 0.  1.
         11    1    3    3    0    0 -0.71001776259E+01  0.10630970547E+02  0.17149647816E+02  0.21390195828E+02  0.51100000000E-03 0. -1.
        -11    1    3    3    0    0  0.22609089892E+02 -0.56975651582E+01 -0.16557358726E+02  0.28596841132E+02  0.51100000000E-03 0.  1.
        -12    1    3    3    0    0 -0.17746119276E+02  0.13559135201E+02 -0.25158673008E+01  0.22474529695E+02  0.00000000000E+00 0.  1.
</event>
<event>
 7    1  0.1826069E-013  0.7246156E+02  0.7816164E-02  0.1226708E+00
        -11   -1    0    0    0    0  0.00000000000E+00  0.00000000000E+00  0.45593999997E+02  0.45594000000E+02  0.51100000000E-03 0.  1.
         11   -1    0    0    0    0 -0.00000000000E+00 -0.00000000000E+00 -0.45593999997E+02  0.45594000000E+02  0.51100000000E-03 0. -1.
    9900012    2    1    2    0    0  0.15857515581E+02  0.85689267728E+01 -0.50785911689E+01  0.72461564282E+02  0.69999992167E+02 0.  0.
        -12    1    1    2    0    0 -0.15857515581E+02 -0.85689267728E+01  0.50785911689E+01  0.18726435718E+02  0.00000000000E+00 0.  1.
         11    1    3    3    0    0  0.19664397322E+02 -0.12458120013E+02 -0.65181380076E+01  0.24173940507E+02  0.51100000000E-03 0. -1.
        -11    1    3    3    0    0  0.22058834684E+01  0.26751231541E+02  0.16200682234E+02  0.31352135747E+02  0.51100000000E-03 0.  1.
        -12    1    3    3    0    0 -0.60127652090E+01 -0.57241847546E+01 -0.14761135395E+02  0.16935488027E+02  0.00000000000E+00 0.  1.
</event>
<event>
 7    1  0.1826069E-013  0.7246157E+02  0.7816164E-02  0.1226708E+00
        -11   -1    0    0    0    0  0.00000000000E+00  0.00000000000E+00  0.45593999997E+02  0.45594000000E+02  0.51100000000E-03 0.  1.
         11   -1    0    0    0    0 -0.00000000000E+00 -0.00000000000E+00 -0.45593999997E+02  0.45594000000E+02  0.51100000000E-03 0. -1.
    9900012    2    1    2    0    0  0.15314832194E+02 -0.25520568947E+01 -0.10470054409E+02  0.72461571648E+02  0.70000001763E+02 0.  0.
        -12    1    1    2    0    0 -0.15314832194E+02  0.25520568947E+01  0.10470054409E+02  0.18726428352E+02  0.00000000000E+00 0.  1.
         11    1    3    3    0    0  0.47393681601E+01  0.74329227131E+01 -0.13691674667E+02  0.16284099793E+02  0.51100000000E-03 0. -1.
        -11    1    3    3    0    0 -0.17470538237E+02 -0.18693597786E+02  0.71054466913E+01  0.26554805167E+02  0.51100000000E-03 0.  1.
        -12    1    3    3    0    0  0.28046002271E+02  0.87086181787E+01 -0.38838264329E+01  0.29622666688E+02  0.00000000000E+00 0.  1.
</event>
<event>
 7    1  0.1826069E-013  0.7246149E+02  0.7816164E-02  0.1226708E+00
        -11   -1    0    0    0    0  0.00000000000E+00  0.00000000000E+00  0.45593999997E+02  0.45594000000E+02  0.51100000000E-03 0.  1.
         11   -1    0    0    0    0 -0.00000000000E+00 -0.00000000000E+00 -0.45593999997E+02  0.45594000000E+02  0.51100000000E-03 0. -1.
    9900012    2    1    2    0    0  0.17672414613E+02 -0.59750481698E+01  0.16329951618E+01  0.72461491727E+02  0.69999897651E+02 0.  0.
        -12    1    1    2    0    0 -0.17672414613E+02  0.59750481698E+01 -0.16329951618E+01  0.18726508273E+02  0.00000000000E+00 0.  1.
         11    1    3    3    0    0  0.82031151020E+01  0.79241237959E+00 -0.24100620427E+02  0.25470746357E+02  0.51100000000E-03 0. -1.
        -11    1    3    3    0    0  0.15431494160E+02  0.11651784993E+02  0.17020264110E+02  0.25760133854E+02  0.51100000000E-03 0.  1.
        -12    1    3    3    0    0 -0.59621946482E+01 -0.18419245543E+02  0.87133514781E+01  0.21230611517E+02  0.00000000000E+00 0.  1.
</event>
<event>
 7    1  0.1826069E-013  0.7246160E+02  0.7816164E-02  0.1226708E+00
        -11   -1    0    0    0    0  0.00000000000E+00  0.00000000000E+00  0.45593999997E+02  0.45594000000E+02  0.51100000000E-03 0.  1.
         11   -1    0    0    0    0 -0.00000000000E+00 -0.00000000000E+00 -0.45593999997E+02  0.45594000000E+02  0.51100000000E-03 0. -1.
    9900012    2    1    2    0    0  0.12356121216E+02 -0.93968767361E+01 -0.10473921003E+02  0.72461600318E+02  0.70000039111E+02 0.  0.
        -12    1    1    2    0    0 -0.12356121216E+02  0.93968767361E+01  0.10473921003E+02  0.18726399682E+02  0.00000000000E+00 0.  1.
         11    1    3    3    0    0  0.16559008303E+02  0.10031360809E+02 -0.20950462032E+01  0.19473524964E+02  0.51100000000E-03 0. -1.
        -11    1    3    3    0    0 -0.54003277458E+01 -0.31432917349E+02 -0.18820714024E+02  0.37032568226E+02  0.51100000000E-03 0.  1.
         12    1    3    3    0    0  0.11974406581E+01  0.12004679803E+02  0.10441839224E+02  0.15955507127E+02  0.00000000000E+00 0. -1.
</event>
<event>
 7    1  0.1826069E-013  0.7246157E+02  0.7816164E-02  0.1226708E+00
        -11   -1    0    0    0    0  0.00000000000E+00  0.00000000000E+00  0.45593999997E+02  0.45594000000E+02  0.51100000000E-03 0. -1.
         11   -1    0    0    0    0 -0.00000000000E+00 -0.00000000000E+00 -0.45593999997E+02  0.45594000000E+02  0.51100000000E-03 0.  1.
    9900012    2    1    2    0    0 -0.14563897474E+01  0.80728662903E+01  0.16834096104E+02  0.72461573943E+02  0.70000004753E+02 0.  0.
        -12    1    1    2    0    0  0.14563897474E+01 -0.80728662903E+01 -0.16834096104E+02  0.18726426057E+02  0.00000000000E+00 0.  1.
         11    1    3    3    0    0  0.66499820245E+01 -0.12119016676E+02  0.29367264033E+02  0.32458111824E+02  0.51100000000E-03 0. -1.
        -11    1    3    3    0    0  0.10215160542E+01 -0.20955538089E+01 -0.15556537299E+02  0.15730247735E+02  0.51100000000E-03 0.  1.
         12    1    3    3    0    0 -0.91278878261E+01  0.22287436775E+02  0.30233693697E+01  0.24273214384E+02  0.00000000000E+00 0. -1.
</event>
<event>
 7    1  0.1826069E-013  0.7246158E+02  0.7816164E-02  0.1226708E+00
        -11   -1    0    0    0    0  0.00000000000E+00  0.00000000000E+00  0.45593999997E+02  0.45594000000E+02  0.51100000000E-03 0.  1.
         11   -1    0    0    0    0 -0.00000000000E+00 -0.00000000000E+00 -0.45593999997E+02  0.45594000000E+02  0.51100000000E-03 0. -1.
    9900012    2    1    2    0    0 -0.90415920202E+01  0.85255777558E+01 -0.14008671395E+02  0.72461581854E+02  0.70000015058E+02 0.  0.
        -12    1    1    2    0    0  0.90415920202E+01 -0.85255777558E+01  0.14008671395E+02  0.18726418146E+02  0.00000000000E+00 0.  1.
         11    1    3    3    0    0  0.53342569440E+01 -0.27616440643E+01 -0.12811591725E+02  0.14149835967E+02  0.51100000000E-03 0. -1.
        -11    1    3    3    0    0 -0.20849720839E+02  0.50629988110E+01  0.23625768987E+02  0.31914287968E+02  0.51100000000E-03 0.  1.
        -12    1    3    3    0    0  0.64738718747E+01  0.62242230091E+01 -0.24822848657E+02  0.26397457919E+02  0.00000000000E+00 0.  1.
</event>
<event>
 7    1  0.1826069E-013  0.7246159E+02  0.7816164E-02  0.1226708E+00
        -11   -1    0    0    0    0  0.00000000000E+00  0.00000000000E+00  0.45593999997E+02  0.45594000000E+02  0.51100000000E-03 0.  1.
         11   -1    0    0    0    0 -0.00000000000E+00 -0.00000000000E+00 -0.45593999997E+02  0.45594000000E+02  0.51100000000E-03 0. -1.
    9900012    2    1    2    0    0 -0.16111000490E+02 -0.70416120721E+01 -0.64443741410E+01  0.72461585622E+02  0.70000019968E+02 0.  0.
        -12    1    1    2    0    0  0.16111000490E+02  0.70416120721E+01  0.64443741410E+01  0.18726414378E+02  0.00000000000E+00 0.  1.
         11    1    3    3    0    0 -0.27527171194E+02 -0.11780634778E+02 -0.12815097228E+02  0.32569237432E+02  0.51100000000E-03 0. -1.
        -11    1    3    3    0    0 -0.77701440147E+00  0.45343223428E+01  0.20625871720E+02  0.21132685938E+02  0.51100000000E-03 0.  1.
        -12    1    3    3    0    0  0.12193185105E+02  0.20470036283E+00 -0.14255148633E+02  0.18759662252E+02  0.00000000000E+00 0.  1.
</event>
<event>
 7    1  0.1826069E-013  0.7246160E+02  0.7816164E-02  0.1226708E+00
        -11   -1    0    0    0    0  0.00000000000E+00  0.00000000000E+00  0.45593999997E+02  0.45594000000E+02  0.51100000000E-03 0. -1.
         11   -1    0    0    0    0 -0.00000000000E+00 -0.00000000000E+00 -0.45593999997E+02  0.45594000000E+02  0.51100000000E-03 0.  1.
    9900012    2    1    2    0    0  0.83921636221E+01  0.15761940006E+02 -0.56401277888E+01  0.72461596061E+02  0.70000033566E+02 0.  0.
        -12    1    1    2    0    0 -0.83921636221E+01 -0.15761940006E+02  0.56401277888E+01  0.18726403939E+02  0.00000000000E+00 0.  1.
         11    1    3    3    0    0  0.34115539116E+02  0.71777524467E+01  0.15216053895E+02  0.38038381088E+02  0.51100000000E-03 0. -1.
        -11    1    3    3    0    0 -0.53100390733E+01  0.19315073553E+00 -0.41905268924E+01  0.67671513994E+01  0.51100000000E-03 0.  1.
         12    1    3    3    0    0 -0.20413336421E+02  0.83910368234E+01 -0.16665654792E+02  0.27656063574E+02  0.00000000000E+00 0. -1.
</event>
<event>
 7    1  0.1826069E-013  0.7246152E+02  0.7816164E-02  0.1226708E+00
        -11   -1    0    0    0    0  0.00000000000E+00  0.00000000000E+00  0.45593999997E+02  0.45594000000E+02  0.51100000000E-03 0. -1.
         11   -1    0    0    0    0 -0.00000000000E+00 -0.00000000000E+00 -0.45593999997E+02  0.45594000000E+02  0.51100000000E-03 0.  1.
    9900012    2    1    2    0    0 -0.53217429607E+01 -0.65979447086E+01  0.16698124927E+02  0.72461516117E+02  0.69999929424E+02 0.  0.
        -12    1    1    2    0    0  0.53217429607E+01  0.65979447086E+01 -0.16698124927E+02  0.18726483883E+02  0.00000000000E+00 0.  1.
         11    1    3    3    0    0 -0.30061888773E+02 -0.34353338614E+01  0.24483941667E+02  0.38922770651E+02  0.51100000000E-03 0.  1.
        -11    1    3    3    0    0  0.15589884322E+02 -0.10022224554E+02  0.17945298827E+01  0.18620145433E+02  0.51100000000E-03 0. -1.
        -12    1    3    3    0    0  0.91502614900E+01  0.68596137071E+01 -0.95803466220E+01  0.14918600033E+02  0.00000000000E+00 0.  1.
</event>
<event>
 7    1  0.1826069E-013  0.7246160E+02  0.7816164E-02  0.1226708E+00
        -11   -1    0    0    0    0  0.00000000000E+00  0.00000000000E+00  0.45593999997E+02  0.45594000000E+02  0.51100000000E-03 0.  1.
         11   -1    0    0    0    0 -0.00000000000E+00 -0.00000000000E+00 -0.45593999997E+02  0.45594000000E+02  0.51100000000E-03 0. -1.
    9900012    2    1    2    0    0 -0.16676693286E+02  0.34388227146E+01  0.77936257840E+01  0.72461596088E+02  0.70000033601E+02 0.  0.
        -12    1    1    2    0    0  0.16676693286E+02 -0.34388227146E+01 -0.77936257840E+01  0.18726403912E+02  0.00000000000E+00 0.  1.
         11    1    3    3    0    0 -0.15662866207E+02 -0.96014088654E+01 -0.17364946859E+02  0.25279513636E+02  0.51100000000E-03 0. -1.
        -11    1    3    3    0    0  0.50947294212E+00 -0.20550036402E+01  0.30890910834E+02  0.30963381196E+02  0.51100000000E-03 0.  1.
        -12    1    3    3    0    0 -0.15233000209E+01  0.15095235220E+02 -0.57323381913E+01  0.16218701257E+02  0.00000000000E+00 0.  1.
</event>
<event>
 7    1  0.1826069E-013  0.7246156E+02  0.7816164E-02  0.1226708E+00
        -11   -1    0    0    0    0  0.00000000000E+00  0.00000000000E+00  0.45593999997E+02  0.45594000000E+02  0.51100000000E-03 0. -1.
         11   -1    0    0    0    0 -0.00000000000E+00 -0.00000000000E+00 -0.45593999997E+02  0.45594000000E+02  0.51100000000E-03 0.  1.
    9900012    2    1    2    0    0 -0.54681004957E+01  0.16620020658E+02  0.66749067382E+01  0.72461559077E+02  0.69999985387E+02 0.  0.
        -12    1    1    2    0    0  0.54681004957E+01 -0.16620020658E+02 -0.66749067382E+01  0.18726440923E+02  0.00000000000E+00 0.  1.
         11    1    3    3    0    0  0.28628428756E+02  0.11339943614E+02 -0.11358189948E+02  0.32820568754E+02  0.51100000000E-03 0.  1.
        -11    1    3    3    0    0 -0.17645057673E+02  0.23988453375E+01  0.13466802080E+02  0.22326156807E+02  0.51100000000E-03 0. -1.
        -12    1    3    3    0    0 -0.16451471578E+02  0.28812317062E+01  0.45662946056E+01  0.17314833515E+02  0.00000000000E+00 0.  1.
</event>
<event>
 7    1  0.1826069E-013  0.7246146E+02  0.7816164E-02  0.1226708E+00
        -11   -1    0    0    0    0  0.00000000000E+00  0.00000000000E+00  0.45593999997E+02  0.45594000000E+02  0.51100000000E-03 0. -1.
         11   -1    0    0    0    0 -0.00000000000E+00 -0.00000000000E+00 -0.45593999997E+02  0.45594000000E+02  0.51100000000E-03 0.  1.
    9900012    2    1    2    0    0 -0.14389898495E+01  0.91084503032E+01  0.16298738597E+02  0.72461456311E+02  0.69999851515E+02 0.  0.
        -12    1    1    2    0    0  0.14389898495E+01 -0.91084503032E+01 -0.16298738597E+02  0.18726543689E+02  0.00000000000E+00 0.  1.
         11    1    3    3    0    0  0.22579866735E+02 -0.42049188362E+00  0.24972994624E+02  0.33670130025E+02  0.51100000000E-03 0. -1.
        -11    1    3    3    0    0 -0.14866737410E+02 -0.77539792407E+01 -0.93976702318E+01  0.19221349623E+02  0.51100000000E-03 0.  1.
         12    1    3    3    0    0 -0.91521191746E+01  0.17282921427E+02  0.72341420462E+00  0.19569976662E+02  0.00000000000E+00 0. -1.
</event>
<event>
 7    1  0.1826069E-013  0.7246155E+02  0.7816164E-02  0.1226708E+00
        -11   -1    0    0    0    0  0.00000000000E+00  0.00000000000E+00  0.45593999997E+02  0.45594000000E+02  0.51100000000E-03 0.  1.
         11   -1    0    0    0    0 -0.00000000000E+00 -0.00000000000E+00 -0.45593999997E+02  0.45594000000E+02  0.51100000000E-03 0. -1.
    9900012    2    1    2    0    0 -0.12335102189E+02  0.12224225665E+02  0.70066645066E+01  0.72461553818E+02  0.69999978536E+02 0.  0.
        -12    1    1    2    0    0  0.12335102189E+02 -0.12224225665E+02 -0.70066645066E+01  0.18726446182E+02  0.00000000000E+00 0.  1.
         11    1    3    3    0    0 -0.15866708412E+02  0.26926660917E+02 -0.19741794447E+02  0.36966687060E+02  0.51100000000E-03 0. -1.
        -11    1    3    3    0    0 -0.31958919440E+01  0.17183095429E+01  0.11628570070E+02  0.12181541575E+02  0.51100000000E-03 0.  1.
         12    1    3    3    0    0  0.67274981668E+01 -0.16420744795E+02  0.15119888884E+02  0.23313325182E+02  0.00000000000E+00 0. -1.
</event>
<event>
 7    1  0.1826069E-013  0.7246160E+02  0.7816164E-02  0.1226708E+00
        -11   -1    0    0    0    0  0.00000000000E+00  0.00000000000E+00  0.45593999997E+02  0.45594000000E+02  0.51100000000E-03 0. -1.
         11   -1    0    0    0    0 -0.00000000000E+00 -0.00000000000E+00 -0.45593999997E+02  0.45594000000E+02  0.51100000000E-03 0.  1.
    9900012    2    1    2    0    0 -0.30887674037E+01  0.16807155759E+02  0.76587900995E+01  0.72461600598E+02  0.70000039476E+02 0.  0.
        -12    1    1    2    0    0  0.30887674037E+01 -0.16807155759E+02 -0.76587900995E+01  0.18726399402E+02  0.00000000000E+00 0.  1.
         11    1    3    3    0    0  0.14398183941E+02  0.25957677984E+02  0.19007075308E+02  0.35247378046E+02  0.51100000000E-03 0. -1.
        -11    1    3    3    0    0 -0.24438017499E+02 -0.12662622131E+02 -0.10144630468E+02  0.29333806880E+02  0.51100000000E-03 0.  1.
        -12    1    3    3    0    0  0.69510661544E+01  0.35120999053E+01 -0.12036547410E+01  0.78804156719E+01  0.00000000000E+00 0.  1.
</event>
<event>
 7    1  0.1826069E-013  0.7246157E+02  0.7816164E-02  0.1226708E+00
        -11   -1    0    0    0    0  0.00000000000E+00  0.00000000000E+00  0.45593999997E+02  0.45594000000E+02  0.51100000000E-03 0.  1.
         11   -1    0    0    0    0 -0.00000000000E+00 -0.00000000000E+00 -0.45593999997E+02  0.45594000000E+02  0.51100000000E-03 0. -1.
    9900012    2    1    2    0    0  0.71053714497E+01 -0.15814068271E+02 -0.70786968317E+01  0.72461574619E+02  0.70000005633E+02 0.  0.
        -12    1    1    2    0    0 -0.71053714497E+01  0.15814068271E+02  0.70786968317E+01  0.18726425381E+02  0.00000000000E+00 0.  1.
         11    1    3    3    0    0 -0.44948886945E+01 -0.23580379971E+01 -0.38403300427E+01  0.63649432574E+01  0.51100000000E-03 0. -1.
        -11    1    3    3    0    0  0.13533858747E+02 -0.32352860741E+02  0.16452314913E+02  0.38736953894E+02  0.51100000000E-03 0.  1.
        -12    1    3    3    0    0 -0.19335986027E+01  0.18896830467E+02 -0.19690681702E+02  0.27359677468E+02  0.00000000000E+00 0.  1.
</event>
<event>
 7    1  0.1826069E-013  0.7246162E+02  0.7816164E-02  0.1226708E+00
        -11   -1    0    0    0    0  0.00000000000E+00  0.00000000000E+00  0.45593999997E+02  0.45594000000E+02  0.51100000000E-03 0.  1.
         11   -1    0    0    0    0 -0.00000000000E+00 -0.00000000000E+00 -0.45593999997E+02  0.45594000000E+02  0.51100000000E-03 0. -1.
    9900012    2    1    2    0    0  0.14480715112E+02 -0.37862331887E+01 -0.11253909025E+02  0.72461624476E+02  0.70000070581E+02 0.  0.
        -12    1    1    2    0    0 -0.14480715112E+02  0.37862331887E+01  0.11253909025E+02  0.18726375524E+02  0.00000000000E+00 0.  1.
         11    1    3    3    0    0  0.28523345847E+00 -0.11189551088E+02 -0.19398122129E+02  0.22395860200E+02  0.51100000000E-03 0. -1.
        -11    1    3    3    0    0 -0.86493001496E+01 -0.11372840100E+02  0.13906904894E+02  0.19938753447E+02  0.51100000000E-03 0.  1.
        -12    1    3    3    0    0  0.22844781803E+02  0.18776157999E+02 -0.57626917900E+01  0.30127010829E+02  0.00000000000E+00 0.  1.
</event>
<event>
 7    1  0.1826069E-013  0.7246203E+02  0.7816164E-02  0.1226707E+00
        -11   -1    0    0    0    0  0.00000000000E+00  0.00000000000E+00  0.45593999997E+02  0.45594000000E+02  0.51100000000E-03 0. -1.
         11   -1    0    0    0    0 -0.00000000000E+00 -0.00000000000E+00 -0.45593999997E+02  0.45594000000E+02  0.51100000000E-03 0.  1.
    9900012    2    1    2    0    0  0.12132881438E+02  0.31293174022E+01  0.13916266073E+02  0.72462031379E+02  0.70000600646E+02 0.  0.
        -12    1    1    2    0    0 -0.12132881438E+02 -0.31293174022E+01 -0.13916266073E+02  0.18725968621E+02  0.00000000000E+00 0.  1.
         11    1    3    3    0    0 -0.33206876647E+01  0.17159641355E+01  0.26537911983E+02  0.26799855824E+02  0.51100000000E-03 0. -1.
        -11    1    3    3    0    0  0.27014083874E+02  0.79943781229E+01 -0.15350299686E+02  0.32082744737E+02  0.51100000000E-03 0.  1.
        -12    1    3    3    0    0 -0.11560514771E+02 -0.65810248562E+01  0.27286537754E+01  0.13579430818E+02  0.00000000000E+00 0.  1.
</event>
<event>
 7    1  0.1826069E-013  0.7246154E+02  0.7816164E-02  0.1226708E+00
        -11   -1    0    0    0    0  0.00000000000E+00  0.00000000000E+00  0.45593999997E+02  0.45594000000E+02  0.51100000000E-03 0.  1.
         11   -1    0    0    0    0 -0.00000000000E+00 -0.00000000000E+00 -0.45593999997E+02  0.45594000000E+02  0.51100000000E-03 0. -1.
    9900012    2    1    2    0    0  0.56063509268E+01  0.16390278243E+02 -0.71139109725E+01  0.72461544892E+02  0.69999966909E+02 0.  0.
        -12    1    1    2    0    0 -0.56063509268E+01 -0.16390278243E+02  0.71139109725E+01  0.18726455108E+02  0.00000000000E+00 0.  1.
         11    1    3    3    0    0  0.12689526764E+02  0.76886089038E+01  0.60709718201E+01  0.16031079049E+02  0.51100000000E-03 0. -1.
        -11    1    3    3    0    0 -0.25130610006E+02  0.16057375460E+02  0.44433059852E+01  0.30151779952E+02  0.51100000000E-03 0.  1.
        -12    1    3    3    0    0  0.18047434169E+02 -0.73557061212E+01 -0.17628188778E+02  0.26278685892E+02  0.00000000000E+00 0.  1.
</event>
<event>
 7    1  0.1826069E-013  0.7246157E+02  0.7816164E-02  0.1226708E+00
        -11   -1    0    0    0    0  0.00000000000E+00  0.00000000000E+00  0.45593999997E+02  0.45594000000E+02  0.51100000000E-03 0. -1.
         11   -1    0    0    0    0 -0.00000000000E+00 -0.00000000000E+00 -0.45593999997E+02  0.45594000000E+02  0.51100000000E-03 0.  1.
    9900012    2    1    2    0    0  0.15269143371E+02  0.57081737234E+01  0.92167923705E+01  0.72461568196E+02  0.69999997266E+02 0.  0.
        -12    1    1    2    0    0 -0.15269143371E+02 -0.57081737234E+01 -0.92167923705E+01  0.18726431804E+02  0.00000000000E+00 0.  1.
         11    1    3    3    0    0  0.15824639113E+02 -0.23409060396E+02  0.19225026425E+02  0.34176087444E+02  0.51100000000E-03 0. -1.
        -11    1    3    3    0    0 -0.10063101149E+02  0.23158544786E+02 -0.97337050286E+01  0.27061581905E+02  0.51100000000E-03 0.  1.
         12    1    3    3    0    0  0.95076054063E+01  0.59586893335E+01 -0.27452902597E+00  0.11223898847E+02  0.00000000000E+00 0. -1.
</event>
<event>
 7    1  0.1826069E-013  0.7246160E+02  0.7816164E-02  0.1226708E+00
        -11   -1    0    0    0    0  0.00000000000E+00  0.00000000000E+00  0.45593999997E+02  0.45594000000E+02  0.51100000000E-03 0. -1.
         11   -1    0    0    0    0 -0.00000000000E+00 -0.00000000000E+00 -0.45593999997E+02  0.45594000000E+02  0.51100000000E-03 0.  1.
    9900012    2    1    2    0    0  0.16751342351E+01 -0.16558324535E+01  0.18577681885E+02  0.72461598316E+02  0.70000036503E+02 0.  0.
        -12    1    1    2    0    0 -0.16751342351E+01  0.16558324535E+01 -0.18577681885E+02  0.18726401684E+02  0.00000000000E+00 0.  1.
         11    1    3    3    0    0 -0.57620574263E+00 -0.21658075798E+02  0.15324245606E+02  0.26537459637E+02  0.51100000000E-03 0. -1.
        -11    1    3    3    0    0 -0.54321387238E+01  0.40397773459E+01 -0.17425617347E+02  0.18694386117E+02  0.51100000000E-03 0.  1.
         12    1    3    3    0    0  0.76834787015E+01  0.15962465999E+02  0.20679053626E+02  0.27229752562E+02  0.00000000000E+00 0. -1.
</event>
<event>
 8    1  0.1826069E-013  0.7246154E+02  0.7816164E-02  0.1226708E+00
        -11   -1    0    0    0    0  0.00000000000E+00  0.00000000000E+00  0.45593999997E+02  0.45594000000E+02  0.51100000000E-03 0.  1.
         11   -1    0    0    0    0 -0.00000000000E+00 -0.00000000000E+00 -0.45593999997E+02  0.45594000000E+02  0.51100000000E-03 0. -1.
    9900012    2    1    2    0    0  0.87845285152E+01  0.76717085771E+01 -0.14651182760E+02  0.72461542513E+02  0.69999963810E+02 0.  0.
        -24    2    3    3    0    0 -0.48588251689E+01  0.17517490015E+02 -0.15198372284E+02  0.55627650256E+02  0.50328662952E+02 0.  0.
        -12    1    1    2    0    0 -0.87845285152E+01 -0.76717085771E+01  0.14651182760E+02  0.18726457487E+02  0.00000000000E+00 0.  1.
         11    1    4    4    0    0 -0.25224501754E+02  0.12284319500E+02 -0.19496364735E+02  0.34165600133E+02  0.51100000000E-03 0. -1.
        -11    1    3    3    0    0  0.13643353684E+02 -0.98457814383E+01  0.54718952411E+00  0.16833892257E+02  0.51100000000E-03 0.  1.
        -12    1    4    4    0    0  0.20365676585E+02  0.52331705152E+01  0.42979924504E+01  0.21462050124E+02  0.00000000000E+00 0.  1.
</event>
<event>
 7    1  0.1826069E-013  0.7246170E+02  0.7816164E-02  0.1226708E+00
        -11   -1    0    0    0    0  0.00000000000E+00  0.00000000000E+00  0.45593999997E+02  0.45594000000E+02  0.51100000000E-03 0.  1.
         11   -1    0    0    0    0 -0.00000000000E+00 -0.00000000000E+00 -0.45593999997E+02  0.45594000000E+02  0.51100000000E-03 0. -1.
    9900012    2    1    2    0    0 -0.14156387858E+01  0.45024673552E+01 -0.18121759969E+02  0.72461696845E+02  0.70000164856E+02 0.  0.
        -12    1    1    2    0    0  0.14156387858E+01 -0.45024673552E+01  0.18121759969E+02  0.18726303155E+02  0.00000000000E+00 0.  1.
         11    1    3    3    0    0  0.22223968233E+01  0.39292772737E+01 -0.35551913210E+01  0.57460989483E+01  0.51100000000E-03 0. -1.
        -11    1    3    3    0    0 -0.83767058052E+01 -0.21675761682E+02 -0.30934870509E+02  0.38690749002E+02  0.51100000000E-03 0.  1.
        -12    1    3    3    0    0  0.47386701960E+01  0.22248951763E+02  0.16368301861E+02  0.28024848895E+02  0.00000000000E+00 0.  1.
</event>
<event>
 7    1  0.1826069E-013  0.7246157E+02  0.7816164E-02  0.1226708E+00
        -11   -1    0    0    0    0  0.00000000000E+00  0.00000000000E+00  0.45593999997E+02  0.45594000000E+02  0.51100000000E-03 0. -1.
         11   -1    0    0    0    0 -0.00000000000E+00 -0.00000000000E+00 -0.45593999997E+02  0.45594000000E+02  0.51100000000E-03 0.  1.
    9900012    2    1    2    0    0  0.28741596471E+00 -0.67080020187E+01  0.17481398020E+02  0.72461570128E+02  0.69999999783E+02 0.  0.
        -12    1    1    2    0    0 -0.28741596471E+00  0.67080020187E+01 -0.17481398020E+02  0.18726429872E+02  0.00000000000E+00 0.  1.
         11    1    3    3    0    0  0.11715615836E+02 -0.13522946855E+02  0.19887724708E+02  0.26751585754E+02  0.51100000000E-03 0. -1.
        -11    1    3    3    0    0 -0.21803887230E+02 -0.82463950159E+01 -0.10674004820E+02  0.25638777433E+02  0.51100000000E-03 0.  1.
         12    1    3    3    0    0  0.10375687359E+02  0.15061339853E+02  0.82676781327E+01  0.20071206940E+02  0.00000000000E+00 0. -1.
</event>
<event>
 7    1  0.1826069E-013  0.7246148E+02  0.7816164E-02  0.1226708E+00
        -11   -1    0    0    0    0  0.00000000000E+00  0.00000000000E+00  0.45593999997E+02  0.45594000000E+02  0.51100000000E-03 0.  1.
         11   -1    0    0    0    0 -0.00000000000E+00 -0.00000000000E+00 -0.45593999997E+02  0.45594000000E+02  0.51100000000E-03 0. -1.
    9900012    2    1    2    0    0 -0.16582087261E+02  0.70823035586E+01 -0.50554948510E+01  0.72461476836E+02  0.69999878253E+02 0.  0.
        -12    1    1    2    0    0  0.16582087261E+02 -0.70823035586E+01  0.50554948510E+01  0.18726523164E+02  0.00000000000E+00 0.  1.
         11    1    3    3    0    0 -0.10472888439E+02  0.15805052114E+02 -0.29181961436E+02  0.34800401408E+02  0.51100000000E-03 0. -1.
        -11    1    3    3    0    0  0.17921255118E+01  0.91722618541E+01  0.73200218507E+01  0.11871176080E+02  0.51100000000E-03 0.  1.
         12    1    3    3    0    0 -0.79013243333E+01 -0.17895010410E+02  0.16806444735E+02  0.25789899349E+02  0.00000000000E+00 0. -1.
</event>
<event>
 7    1  0.1826069E-013  0.7246157E+02  0.7816164E-02  0.1226708E+00
        -11   -1    0    0    0    0  0.00000000000E+00  0.00000000000E+00  0.45593999997E+02  0.45594000000E+02  0.51100000000E-03 0.  1.
         11   -1    0    0    0    0 -0.00000000000E+00 -0.00000000000E+00 -0.45593999997E+02  0.45594000000E+02  0.51100000000E-03 0. -1.
    9900012    2    1    2    0    0 -0.97317904780E+01 -0.15962245622E+02 -0.10853916544E+01  0.72461571984E+02  0.70000002201E+02 0.  0.
        -12    1    1    2    0    0  0.97317904780E+01  0.15962245622E+02  0.10853916544E+01  0.18726428016E+02  0.00000000000E+00 0.  1.
         11    1    3    3    0    0 -0.27478382869E+02 -0.86688026706E+01 -0.56068449941E+01  0.29353813651E+02  0.51100000000E-03 0. -1.
        -11    1    3    3    0    0  0.13124168711E+02 -0.14841800644E+02 -0.12847759143E+02  0.23613296381E+02  0.51100000000E-03 0.  1.
        -12    1    3    3    0    0  0.46224236799E+01  0.75483576933E+01  0.17369212482E+02  0.19494461952E+02  0.00000000000E+00 0.  1.
</event>
<event>
 7    1  0.1826069E-013  0.7246155E+02  0.7816164E-02  0.1226708E+00
        -11   -1    0    0    0    0  0.00000000000E+00  0.00000000000E+00  0.45593999997E+02  0.45594000000E+02  0.51100000000E-03 0. -1.
         11   -1    0    0    0    0 -0.00000000000E+00 -0.00000000000E+00 -0.45593999997E+02  0.45594000000E+02  0.51100000000E-03 0.  1.
    9900012    2    1    2    0    0  0.99118302864E+01  0.74956154702E+01  0.14008967177E+02  0.72461553667E+02  0.69999978339E+02 0.  0.
        -12    1    1    2    0    0 -0.99118302864E+01 -0.74956154702E+01 -0.14008967177E+02  0.18726446333E+02  0.00000000000E+00 0.  1.
         11    1    3    3    0    0 -0.28662457678E+01  0.77053032242E+01  0.17719680211E+02  0.19533922536E+02  0.51100000000E-03 0. -1.
        -11    1    3    3    0    0  0.23937631599E+02 -0.69837322939E+01 -0.20062059328E+02  0.32004202038E+02  0.51100000000E-03 0.  1.
        -12    1    3    3    0    0 -0.11159555545E+02  0.67740445400E+01  0.16351346294E+02  0.20923429093E+02  0.00000000000E+00 0.  1.
</event>
<event>
 7    1  0.1826069E-013  0.7246154E+02  0.7816164E-02  0.1226708E+00
        -11   -1    0    0    0    0  0.00000000000E+00  0.00000000000E+00  0.45593999997E+02  0.45594000000E+02  0.51100000000E-03 0.  1.
         11   -1    0    0    0    0 -0.00000000000E+00 -0.00000000000E+00 -0.45593999997E+02  0.45594000000E+02  0.51100000000E-03 0. -1.
    9900012    2    1    2    0    0 -0.61660628370E+01  0.62974629439E+00 -0.17670978190E+02  0.72461537934E+02  0.69999957845E+02 0.  0.
        -12    1    1    2    0    0  0.61660628370E+01 -0.62974629439E+00  0.17670978190E+02  0.18726462066E+02  0.00000000000E+00 0.  1.
         11    1    3    3    0    0  0.11938900012E+01  0.17966230050E+02 -0.17856843423E+02  0.25358975785E+02  0.51100000000E-03 0. -1.
        -11    1    3    3    0    0 -0.19023294407E+02 -0.25492200025E+02 -0.44877252896E+01  0.32122852780E+02  0.51100000000E-03 0.  1.
         12    1    3    3    0    0  0.11663341569E+02  0.81557162688E+01  0.46735905229E+01  0.14979709369E+02  0.00000000000E+00 0. -1.
</event>
<event>
 7    1  0.1826069E-013  0.7246158E+02  0.7816164E-02  0.1226708E+00
        -11   -1    0    0    0    0  0.00000000000E+00  0.00000000000E+00  0.45593999997E+02  0.45594000000E+02  0.51100000000E-03 0. -1.
         11   -1    0    0    0    0 -0.00000000000E+00 -0.00000000000E+00 -0.45593999997E+02  0.45594000000E+02  0.51100000000E-03 0.  1.
    9900012    2    1    2    0    0 -0.88838101163E+01 -0.14019305780E+02  0.86727123687E+01  0.72461575981E+02  0.70000007407E+02 0.  0.
        -12    1    1    2    0    0  0.88838101163E+01  0.14019305780E+02 -0.86727123687E+01  0.18726424019E+02  0.00000000000E+00 0.  1.
         11    1    3    3    0    0 -0.97668244558E+00  0.25806770602E+02 -0.28301244473E+01  0.25979856084E+02  0.51100000000E-03 0.  1.
        -11    1    3    3    0    0 -0.71404183322E+01 -0.37272684999E+02  0.35760237952E+01  0.38118585590E+02  0.51100000000E-03 0. -1.
         12    1    3    3    0    0 -0.76670933846E+00 -0.25533913826E+01  0.79268130208E+01  0.83631343065E+01  0.00000000000E+00 0. -1.
</event>
<event>
 7    1  0.1826069E-013  0.7246145E+02  0.7816164E-02  0.1226708E+00
        -11   -1    0    0    0    0  0.00000000000E+00  0.00000000000E+00  0.45593999997E+02  0.45594000000E+02  0.51100000000E-03 0. -1.
         11   -1    0    0    0    0 -0.00000000000E+00 -0.00000000000E+00 -0.45593999997E+02  0.45594000000E+02  0.51100000000E-03 0.  1.
    9900012    2    1    2    0    0  0.13614122641E+02  0.28134835880E+01  0.12546861156E+02  0.72461447993E+02  0.69999840680E+02 0.  0.
        -12    1    1    2    0    0 -0.13614122641E+02 -0.28134835880E+01 -0.12546861156E+02  0.18726552007E+02  0.00000000000E+00 0.  1.
         11    1    3    3    0    0 -0.80829482084E+01 -0.27305159610E+02  0.10880227834E+02  0.30484178701E+02  0.51100000000E-03 0. -1.
        -11    1    3    3    0    0  0.71453554951E+00  0.17385715272E+02  0.72562359666E+00  0.17415515681E+02  0.51100000000E-03 0.  1.
         12    1    3    3    0    0  0.20982535300E+02  0.12732927926E+02  0.94100972480E+00  0.24561753612E+02  0.00000000000E+00 0. -1.
</event>
<event>
 7    1  0.1826069E-013  0.7246158E+02  0.7816164E-02  0.1226708E+00
        -11   -1    0    0    0    0  0.00000000000E+00  0.00000000000E+00  0.45593999997E+02  0.45594000000E+02  0.51100000000E-03 0.  1.
         11   -1    0    0    0    0 -0.00000000000E+00 -0.00000000000E+00 -0.45593999997E+02  0.45594000000E+02  0.51100000000E-03 0. -1.
    9900012    2    1    2    0    0  0.11847042348E+02  0.71985726658E+01 -0.12589948904E+02  0.72461583519E+02  0.70000017227E+02 0.  0.
        -12    1    1    2    0    0 -0.11847042348E+02 -0.71985726658E+01  0.12589948904E+02  0.18726416481E+02  0.00000000000E+00 0.  1.
         11    1    3    3    0    0  0.57158854611E+01 -0.82608087226E+01 -0.32043381507E+02  0.33581104895E+02  0.51100000000E-03 0. -1.
        -11    1    3    3    0    0 -0.14357094532E+01  0.22960567619E+02  0.13029388133E+02  0.26438870672E+02  0.51100000000E-03 0.  1.
        -12    1    3    3    0    0  0.75668663405E+01 -0.75011862304E+01  0.64240444697E+01  0.12441607952E+02  0.00000000000E+00 0.  1.
</event>
<event>
 7    1  0.1826069E-013  0.7246154E+02  0.7816164E-02  0.1226708E+00
        -11   -1    0    0    0    0  0.00000000000E+00  0.00000000000E+00  0.45593999997E+02  0.45594000000E+02  0.51100000000E-03 0.  1.
         11   -1    0    0    0    0 -0.00000000000E+00 -0.00000000000E+00 -0.45593999997E+02  0.45594000000E+02  0.51100000000E-03 0. -1.
    9900012    2    1    2    0    0  0.60001122707E+01  0.11815041769E+02 -0.13231919280E+02  0.72461541523E+02  0.69999962520E+02 0.  0.
        -12    1    1    2    0    0 -0.60001122707E+01 -0.11815041769E+02  0.13231919280E+02  0.18726458477E+02  0.00000000000E+00 0.  1.
         11    1    3    3    0    0  0.93123644991E+01  0.67309409803E+01 -0.36367557237E+02  0.38139545339E+02  0.51100000000E-03 0. -1.
        -11    1    3    3    0    0 -0.36763379168E+01 -0.71303175237E+01 -0.15117949639E+00  0.80236988957E+01  0.51100000000E-03 0.  1.
         12    1    3    3    0    0  0.36408568833E+00  0.12214418313E+02  0.23286817454E+02  0.26298297288E+02  0.00000000000E+00 0. -1.
</event>
<event>
 7    1  0.1826069E-013  0.7246157E+02  0.7816164E-02  0.1226708E+00
        -11   -1    0    0    0    0  0.00000000000E+00  0.00000000000E+00  0.45593999997E+02  0.45594000000E+02  0.51100000000E-03 0.  1.
         11   -1    0    0    0    0 -0.00000000000E+00 -0.00000000000E+00 -0.45593999997E+02  0.45594000000E+02  0.51100000000E-03 0. -1.
    9900012    2    1    2    0    0  0.77996574361E+00  0.12737943604E+02 -0.13704588476E+02  0.72461566834E+02  0.69999995492E+02 0.  0.
        -12    1    1    2    0    0 -0.77996574361E+00 -0.12737943604E+02  0.13704588476E+02  0.18726433166E+02  0.00000000000E+00 0.  1.
         11    1    3    3    0    0 -0.16939744020E+02  0.21131494806E+02 -0.28680681014E+02  0.39447135053E+02  0.51100000000E-03 0. -1.
        -11    1    3    3    0    0 -0.24869207677E+01 -0.11854911616E+01  0.10815594670E+02  0.11160970053E+02  0.51100000000E-03 0.  1.
         12    1    3    3    0    0  0.20206630532E+02 -0.72080600404E+01  0.41604978670E+01  0.21853461728E+02  0.00000000000E+00 0. -1.
</event>
<event>
 7    1  0.1826069E-013  0.7246159E+02  0.7816164E-02  0.1226708E+00
        -11   -1    0    0    0    0  0.00000000000E+00  0.00000000000E+00  0.45593999997E+02  0.45594000000E+02  0.51100000000E-03 0.  1.
         11   -1    0    0    0    0 -0.00000000000E+00 -0.00000000000E+00 -0.45593999997E+02  0.45594000000E+02  0.51100000000E-03 0. -1.
    9900012    2    1    2    0    0 -0.17397457421E+02 -0.56928330032E+01 -0.39494950905E+01  0.72461591274E+02  0.70000027330E+02 0.  0.
        -12    1    1    2    0    0  0.17397457421E+02  0.56928330032E+01  0.39494950905E+01  0.18726408726E+02  0.00000000000E+00 0.  1.
         11    1    3    3    0    0 -0.26303961480E+02 -0.27498322314E+02  0.14111558093E+02  0.40585615576E+02  0.51100000000E-03 0.  1.
        -11    1    3    3    0    0  0.10152579099E+02  0.15801365134E+02 -0.17578872535E+02  0.25724983232E+02  0.51100000000E-03 0. -1.
        -12    1    3    3    0    0 -0.12460750401E+01  0.60041241769E+01 -0.48218064846E+00  0.61509924659E+01  0.00000000000E+00 0.  1.
</event>
<event>
 7    1  0.1931881E-013  0.7246158E+02  0.7816164E-02  0.1226708E+00
        -11   -1    0    0    0    0  0.00000000000E+00  0.00000000000E+00  0.45593999997E+02  0.45594000000E+02  0.51100000000E-03 0. -1.
         11   -1    0    0    0    0 -0.00000000000E+00 -0.00000000000E+00 -0.45593999997E+02  0.45594000000E+02  0.51100000000E-03 0.  1.
    9900012    2    1    2    0    0 -0.44436568662E+01  0.14060454708E+02  0.11542809863E+02  0.72461576624E+02  0.70000008245E+02 0.  0.
        -12    1    1    2    0    0  0.44436568662E+01 -0.14060454708E+02 -0.11542809863E+02  0.18726423376E+02  0.00000000000E+00 0.  1.
         11    1    3    3    0    0 -0.16612383355E+02 -0.13523703811E+02  0.11387602156E+02  0.24259829526E+02  0.51100000000E-03 0. -1.
        -11    1    3    3    0    0  0.24173941724E+02  0.12665831552E+02  0.64533066231E+01  0.28043678682E+02  0.51100000000E-03 0.  1.
        -12    1    3    3    0    0 -0.12005215235E+02  0.14918326967E+02 -0.62980989158E+01  0.20158068416E+02  0.00000000000E+00 0.  1.
</event>
<event>
 7    1  0.1826069E-013  0.7246155E+02  0.7816164E-02  0.1226708E+00
        -11   -1    0    0    0    0  0.00000000000E+00  0.00000000000E+00  0.45593999997E+02  0.45594000000E+02  0.51100000000E-03 0. -1.
         11   -1    0    0    0    0 -0.00000000000E+00 -0.00000000000E+00 -0.45593999997E+02  0.45594000000E+02  0.51100000000E-03 0.  1.
    9900012    2    1    2    0    0  0.14067074582E+02  0.10983543679E+02 -0.56708848461E+01  0.72461554689E+02  0.69999979671E+02 0.  0.
        -12    1    1    2    0    0 -0.14067074582E+02 -0.10983543679E+02  0.56708848461E+01  0.18726445311E+02  0.00000000000E+00 0.  1.
         11    1    3    3    0    0 -0.96339923949E+00  0.98678834769E+01  0.26395959233E+01  0.10260152499E+02  0.51100000000E-03 0. -1.
        -11    1    3    3    0    0 -0.17598503280E+02 -0.16461045156E+02  0.51675297596E+00  0.24102704397E+02  0.51100000000E-03 0.  1.
        -12    1    3    3    0    0  0.32628977102E+02  0.17576705358E+02 -0.88272337453E+01  0.38098697793E+02  0.00000000000E+00 0.  1.
</event>
<event>
 7    1  0.1826069E-013  0.7246160E+02  0.7816164E-02  0.1226708E+00
        -11   -1    0    0    0    0  0.00000000000E+00  0.00000000000E+00  0.45593999997E+02  0.45594000000E+02  0.51100000000E-03 0. -1.
         11   -1    0    0    0    0 -0.00000000000E+00 -0.00000000000E+00 -0.45593999997E+02  0.45594000000E+02  0.51100000000E-03 0.  1.
    9900012    2    1    2    0    0 -0.10058003431E+02 -0.13076298109E+02  0.88614314107E+01  0.72461602271E+02  0.70000041655E+02 0.  0.
        -12    1    1    2    0    0  0.10058003431E+02  0.13076298109E+02 -0.88614314107E+01  0.18726397729E+02  0.00000000000E+00 0.  1.
         11    1    3    3    0    0 -0.19358704550E+02  0.55902904178E+01  0.31447506366E+02  0.37349115729E+02  0.51100000000E-03 0. -1.
        -11    1    3    3    0    0  0.12021350824E+02 -0.56886003108E+01 -0.14029524235E+02  0.19331337244E+02  0.51100000000E-03 0.  1.
         12    1    3    3    0    0 -0.27206497040E+01 -0.12977988216E+02 -0.85565507202E+01  0.15781149299E+02  0.00000000000E+00 0. -1.
</event>
<event>
 7    1  0.1826069E-013  0.7246156E+02  0.7816164E-02  0.1226708E+00
        -11   -1    0    0    0    0  0.00000000000E+00  0.00000000000E+00  0.45593999997E+02  0.45594000000E+02  0.51100000000E-03 0. -1.
         11   -1    0    0    0    0 -0.00000000000E+00 -0.00000000000E+00 -0.45593999997E+02  0.45594000000E+02  0.51100000000E-03 0.  1.
    9900012    2    1    2    0    0  0.57206282852E+01 -0.96763560685E+01  0.14977387476E+02  0.72461559058E+02  0.69999985363E+02 0.  0.
        -12    1    1    2    0    0 -0.57206282852E+01  0.96763560685E+01 -0.14977387476E+02  0.18726440942E+02  0.00000000000E+00 0.  1.
         11    1    3    3    0    0 -0.20716638715E+02  0.83015888842E+01 -0.79687047971E+01  0.23698011606E+02  0.51100000000E-03 0. -1.
        -11    1    3    3    0    0  0.16461262204E+01 -0.82102463548E+01 -0.53178232000E+01  0.99195322766E+01  0.51100000000E-03 0.  1.
         12    1    3    3    0    0  0.24791140780E+02 -0.97676985979E+01  0.28263915473E+02  0.38844015176E+02  0.00000000000E+00 0. -1.
</event>
<event>
 7    1  0.1826069E-013  0.7246156E+02  0.7816164E-02  0.1226708E+00
        -11   -1    0    0    0    0  0.00000000000E+00  0.00000000000E+00  0.45593999997E+02  0.45594000000E+02  0.51100000000E-03 0.  1.
         11   -1    0    0    0    0 -0.00000000000E+00 -0.00000000000E+00 -0.45593999997E+02  0.45594000000E+02  0.51100000000E-03 0. -1.
    9900012    2    1    2    0    0 -0.65720221016E+01  0.16224750663E+02 -0.66517224746E+01  0.72461563594E+02  0.69999991271E+02 0.  0.
        -12    1    1    2    0    0  0.65720221016E+01 -0.16224750663E+02  0.66517224746E+01  0.18726436406E+02  0.00000000000E+00 0.  1.
         11    1    3    3    0    0  0.63864534258E+01  0.59519641807E+01 -0.22006723871E+02  0.23675062001E+02  0.51100000000E-03 0. -1.
        -11    1    3    3    0    0 -0.16062506662E+02  0.23211725618E+02  0.20107831387E+02  0.34657080226E+02  0.51100000000E-03 0.  1.
        -12    1    3    3    0    0  0.31040311350E+01 -0.12938939136E+02 -0.47528299905E+01  0.14129421367E+02  0.00000000000E+00 0.  1.
</event>
<event>
 7    1  0.1826069E-013  0.7246138E+02  0.7816164E-02  0.1226709E+00
        -11   -1    0    0    0    0  0.00000000000E+00  0.00000000000E+00  0.45593999997E+02  0.45594000000E+02  0.51100000000E-03 0.  1.
         11   -1    0    0    0    0 -0.00000000000E+00 -0.00000000000E+00 -0.45593999997E+02  0.45594000000E+02  0.51100000000E-03 0. -1.
    9900012    2    1    2    0    0  0.15617331818E+02 -0.90242001406E+01 -0.50348023667E+01  0.72461375207E+02  0.69999745862E+02 0.  0.
        -12    1    1    2    0    0 -0.15617331818E+02  0.90242001406E+01  0.50348023667E+01  0.18726624793E+02  0.00000000000E+00 0.  1.
         11    1    3    3    0    0  0.52213341855E+01 -0.27006505325E+02 -0.27352393136E+01  0.27642271884E+02  0.51100000000E-03 0. -1.
        -11    1    3    3    0    0  0.14133126769E+02  0.68486693795E+01  0.16419404006E+02  0.22721055713E+02  0.51100000000E-03 0.  1.
         12    1    3    3    0    0 -0.37371291373E+01  0.11133635805E+02 -0.18718967059E+02  0.22098047610E+02  0.00000000000E+00 0. -1.
</event>
<event>
 7    1  0.1826069E-013  0.7246189E+02  0.7816164E-02  0.1226707E+00
        -11   -1    0    0    0    0  0.00000000000E+00  0.00000000000E+00  0.45593999997E+02  0.45594000000E+02  0.51100000000E-03 0. -1.
         11   -1    0    0    0    0 -0.00000000000E+00 -0.00000000000E+00 -0.45593999997E+02  0.45594000000E+02  0.51100000000E-03 0.  1.
    9900012    2    1    2    0    0 -0.14440706176E+02  0.65645070705E+01  0.99519139692E+01  0.72461886159E+02  0.70000411472E+02 0.  0.
        -12    1    1    2    0    0  0.14440706176E+02 -0.65645070705E+01 -0.99519139692E+01  0.18726113841E+02  0.00000000000E+00 0.  1.
         11    1    3    3    0    0 -0.14030163298E+02  0.33404389969E+02  0.18154131077E+01  0.36276638163E+02  0.51100000000E-03 0. -1.
        -11    1    3    3    0    0  0.97552009118E+01 -0.19868810188E+02  0.14982687969E+01  0.22185093481E+02  0.51100000000E-03 0.  1.
        -12    1    3    3    0    0 -0.10165743789E+02 -0.69710727100E+01  0.66382320646E+01  0.14000154515E+02  0.00000000000E+00 0.  1.
</event>
<event>
 7    1  0.1826069E-013  0.7246159E+02  0.7816164E-02  0.1226708E+00
        -11   -1    0    0    0    0  0.00000000000E+00  0.00000000000E+00  0.45593999997E+02  0.45594000000E+02  0.51100000000E-03 0. -1.
         11   -1    0    0    0    0 -0.00000000000E+00 -0.00000000000E+00 -0.45593999997E+02  0.45594000000E+02  0.51100000000E-03 0.  1.
    9900012    2    1    2    0    0 -0.14486624649E+02 -0.11866361435E+02 -0.76027717501E-01  0.72461585296E+02  0.70000019543E+02 0.  0.
        -12    1    1    2    0    0  0.14486624649E+02  0.11866361435E+02  0.76027717501E-01  0.18726414704E+02  0.00000000000E+00 0.  1.
         11    1    3    3    0    0 -0.79850576676E+01  0.11732328593E+02  0.86858087347E+01  0.16638868766E+02  0.51100000000E-03 0. -1.
        -11    1    3    3    0    0  0.41391798046E+01 -0.32670783347E+02 -0.19428299120E+02  0.38235738530E+02  0.51100000000E-03 0.  1.
        -12    1    3    3    0    0 -0.10640746786E+02  0.90720933183E+01  0.10666462668E+02  0.17586978001E+02  0.00000000000E+00 0.  1.
</event>
<event>
 7    1  0.1826069E-013  0.7246165E+02  0.7816164E-02  0.1226708E+00
        -11   -1    0    0    0    0  0.00000000000E+00  0.00000000000E+00  0.45593999997E+02  0.45594000000E+02  0.51100000000E-03 0. -1.
         11   -1    0    0    0    0 -0.00000000000E+00 -0.00000000000E+00 -0.45593999997E+02  0.45594000000E+02  0.51100000000E-03 0.  1.
    9900012    2    1    2    0    0 -0.21710072411E+01  0.18384303345E+02  0.28249362050E+01  0.72461651011E+02  0.70000105148E+02 0.  0.
        -12    1    1    2    0    0  0.21710072411E+01 -0.18384303345E+02 -0.28249362050E+01  0.18726348989E+02  0.00000000000E+00 0.  1.
         11    1    3    3    0    0  0.67162469344E+01 -0.88543334139E+01 -0.77248126893E+00  0.11140193924E+02  0.51100000000E-03 0. -1.
        -11    1    3    3    0    0  0.18353791765E+02  0.28367890086E+02  0.42188945311E+01  0.34049932913E+02  0.51100000000E-03 0.  1.
        -12    1    3    3    0    0 -0.27241045941E+02 -0.11292533268E+01 -0.62147705711E+00  0.27271524174E+02  0.00000000000E+00 0.  1.
</event>
<event>
 7    1  0.1826069E-013  0.7246148E+02  0.7816164E-02  0.1226708E+00
        -11   -1    0    0    0    0  0.00000000000E+00  0.00000000000E+00  0.45593999997E+02  0.45594000000E+02  0.51100000000E-03 0.  1.
         11   -1    0    0    0    0 -0.00000000000E+00 -0.00000000000E+00 -0.45593999997E+02  0.45594000000E+02  0.51100000000E-03 0. -1.
    9900012    2    1    2    0    0 -0.10317147778E+02  0.48137576647E+01 -0.14868315115E+02  0.72461478820E+02  0.69999880838E+02 0.  0.
        -12    1    1    2    0    0  0.10317147778E+02 -0.48137576647E+01  0.14868315115E+02  0.18726521180E+02  0.00000000000E+00 0.  1.
         11    1    3    3    0    0 -0.24455606883E+02 -0.52307107454E+01 -0.26203306318E+02  0.36222234956E+02  0.51100000000E-03 0. -1.
        -11    1    3    3    0    0  0.22865050241E+02  0.36723884679E+01  0.10422484112E+02  0.25395376250E+02  0.51100000000E-03 0.  1.
         12    1    3    3    0    0 -0.87265911360E+01  0.63720799422E+01  0.91250709135E+00  0.10843867614E+02  0.00000000000E+00 0. -1.
</event>
<event>
 7    1  0.1826069E-013  0.7246161E+02  0.7816164E-02  0.1226708E+00
        -11   -1    0    0    0    0  0.00000000000E+00  0.00000000000E+00  0.45593999997E+02  0.45594000000E+02  0.51100000000E-03 0. -1.
         11   -1    0    0    0    0 -0.00000000000E+00 -0.00000000000E+00 -0.45593999997E+02  0.45594000000E+02  0.51100000000E-03 0.  1.
    9900012    2    1    2    0    0  0.11424555416E+02  0.12794323118E+02  0.75141437608E+01  0.72461614151E+02  0.70000057132E+02 0.  0.
        -12    1    1    2    0    0 -0.11424555416E+02 -0.12794323118E+02 -0.75141437608E+01  0.18726385849E+02  0.00000000000E+00 0.  1.
         11    1    3    3    0    0 -0.61595267680E+01 -0.19873700596E+02 -0.10956963472E+02  0.23515075892E+02  0.51100000000E-03 0. -1.
        -11    1    3    3    0    0  0.69812973813E+01  0.22496749026E+02 -0.21207034923E+01  0.23650361803E+02  0.51100000000E-03 0.  1.
         12    1    3    3    0    0  0.10602784803E+02  0.10171274689E+02  0.20591810725E+02  0.25296176456E+02  0.00000000000E+00 0. -1.
</event>
<event>
 7    1  0.1826069E-013  0.7246182E+02  0.7816164E-02  0.1226707E+00
        -11   -1    0    0    0    0  0.00000000000E+00  0.00000000000E+00  0.45593999997E+02  0.45594000000E+02  0.51100000000E-03 0.  1.
         11   -1    0    0    0    0 -0.00000000000E+00 -0.00000000000E+00 -0.45593999997E+02  0.45594000000E+02  0.51100000000E-03 0. -1.
    9900012    2    1    2    0    0  0.47012606973E+01 -0.36963578852E+01 -0.17745557005E+02  0.72461822943E+02  0.70000329121E+02 0.  0.
        -12    1    1    2    0    0 -0.47012606973E+01  0.36963578852E+01  0.17745557005E+02  0.18726177057E+02  0.00000000000E+00 0.  1.
         11    1    3    3    0    0  0.23038686487E+02 -0.32733033570E+01  0.29184635763E+01  0.23452356381E+02  0.51100000000E-03 0. -1.
        -11    1    3    3    0    0 -0.27903639284E+02  0.22009080716E+01 -0.22337603719E+01  0.28079294281E+02  0.51100000000E-03 0.  1.
         12    1    3    3    0    0  0.95662134948E+01 -0.26239625998E+01 -0.18430260209E+02  0.20930172281E+02  0.00000000000E+00 0. -1.
</event>
<event>
 7    1  0.1826069E-013  0.7246153E+02  0.7816164E-02  0.1226708E+00
        -11   -1    0    0    0    0  0.00000000000E+00  0.00000000000E+00  0.45593999997E+02  0.45594000000E+02  0.51100000000E-03 0.  1.
         11   -1    0    0    0    0 -0.00000000000E+00 -0.00000000000E+00 -0.45593999997E+02  0.45594000000E+02  0.51100000000E-03 0. -1.
    9900012    2    1    2    0    0 -0.13454471945E+02 -0.81593572661E+01 -0.10152970625E+02  0.72461528393E+02  0.69999945416E+02 0.  0.
        -12    1    1    2    0    0  0.13454471945E+02  0.81593572661E+01  0.10152970625E+02  0.18726471607E+02  0.00000000000E+00 0.  1.
         11    1    3    3    0    0 -0.11905151517E+01  0.49831303950E+01 -0.22239708804E+02  0.22822216431E+02  0.51100000000E-03 0. -1.
        -11    1    3    3    0    0 -0.19031647241E+02 -0.19098653742E+02  0.23031184992E+02  0.35459803353E+02  0.51100000000E-03 0.  1.
        -12    1    3    3    0    0  0.67676904471E+01  0.59561660813E+01 -0.10944446813E+02  0.14179508610E+02  0.00000000000E+00 0.  1.
</event>
<event>
 7    1  0.1826069E-013  0.7246086E+02  0.7816164E-02  0.1226710E+00
        -11   -1    0    0    0    0  0.00000000000E+00  0.00000000000E+00  0.45593999997E+02  0.45594000000E+02  0.51100000000E-03 0.  1.
         11   -1    0    0    0    0 -0.00000000000E+00 -0.00000000000E+00 -0.45593999997E+02  0.45594000000E+02  0.51100000000E-03 0. -1.
    9900012    2    1    2    0    0 -0.96436287831E+01  0.15761445096E+02  0.30468214686E+01  0.72460857968E+02  0.69999072057E+02 0.  0.
        -12    1    1    2    0    0  0.96436287831E+01 -0.15761445096E+02 -0.30468214686E+01  0.18727142032E+02  0.00000000000E+00 0.  1.
         11    1    3    3    0    0 -0.62253532275E+00  0.15647779753E+02 -0.16721898124E+02  0.22909876441E+02  0.51100000000E-03 0. -1.
        -11    1    3    3    0    0  0.15935479174E+02 -0.96094187826E+01  0.91846572855E+01  0.20751827764E+02  0.51100000000E-03 0.  1.
         12    1    3    3    0    0 -0.24956572634E+02  0.97230841253E+01  0.10584062307E+02  0.28799153763E+02  0.00000000000E+00 0. -1.
</event>
<event>
 7    1  0.1826069E-013  0.7246156E+02  0.7816164E-02  0.1226708E+00
        -11   -1    0    0    0    0  0.00000000000E+00  0.00000000000E+00  0.45593999997E+02  0.45594000000E+02  0.51100000000E-03 0. -1.
         11   -1    0    0    0    0 -0.00000000000E+00 -0.00000000000E+00 -0.45593999997E+02  0.45594000000E+02  0.51100000000E-03 0.  1.
    9900012    2    1    2    0    0 -0.86273830274E+01 -0.35444587531E+01  0.16238364808E+02  0.72461563676E+02  0.69999991379E+02 0.  0.
        -12    1    1    2    0    0  0.86273830274E+01  0.35444587531E+01 -0.16238364808E+02  0.18726436324E+02  0.00000000000E+00 0.  1.
         11    1    3    3    0    0  0.25180516455E+00  0.11347955404E+02  0.30812903872E+02  0.32837090964E+02  0.51100000000E-03 0. -1.
        -11    1    3    3    0    0  0.92851569084E+01 -0.10685239926E+02 -0.15455387131E+02  0.20958470429E+02  0.51100000000E-03 0.  1.
        -12    1    3    3    0    0 -0.18164345100E+02 -0.42071742303E+01  0.88084806688E+00  0.18666002283E+02  0.00000000000E+00 0.  1.
</event>
<event>
 7    1  0.1826069E-013  0.7246155E+02  0.7816164E-02  0.1226708E+00
        -11   -1    0    0    0    0  0.00000000000E+00  0.00000000000E+00  0.45593999997E+02  0.45594000000E+02  0.51100000000E-03 0. -1.
         11   -1    0    0    0    0 -0.00000000000E+00 -0.00000000000E+00 -0.45593999997E+02  0.45594000000E+02  0.51100000000E-03 0.  1.
    9900012    2    1    2    0    0 -0.85882944427E+01  0.15005160462E+02 -0.71948809638E+01  0.72461549349E+02  0.69999972714E+02 0.  0.
        -12    1    1    2    0    0  0.85882944427E+01 -0.15005160462E+02  0.71948809638E+01  0.18726450651E+02  0.00000000000E+00 0.  1.
         11    1    3    3    0    0  0.15765909402E+02  0.15951264223E+01 -0.30636393009E+02  0.34491983191E+02  0.51100000000E-03 0. -1.
        -11    1    3    3    0    0 -0.20648808420E+02  0.70225740851E+01  0.13740230995E+02  0.25777582975E+02  0.51100000000E-03 0.  1.
         12    1    3    3    0    0 -0.37053954244E+01  0.63874599543E+01  0.97012810499E+01  0.12191983183E+02  0.00000000000E+00 0. -1.
</event>
<event>
 7    1  0.1826069E-013  0.7246156E+02  0.7816164E-02  0.1226708E+00
        -11   -1    0    0    0    0  0.00000000000E+00  0.00000000000E+00  0.45593999997E+02  0.45594000000E+02  0.51100000000E-03 0. -1.
         11   -1    0    0    0    0 -0.00000000000E+00 -0.00000000000E+00 -0.45593999997E+02  0.45594000000E+02  0.51100000000E-03 0.  1.
    9900012    2    1    2    0    0  0.10415043148E+02  0.15370468566E+02 -0.24403268758E+01  0.72461558187E+02  0.69999984228E+02 0.  0.
        -12    1    1    2    0    0 -0.10415043148E+02 -0.15370468566E+02  0.24403268758E+01  0.18726441813E+02  0.00000000000E+00 0.  1.
         11    1    3    3    0    0  0.68859277471E+01  0.95843244978E+01 -0.18750807842E+02  0.22155542693E+02  0.51100000000E-03 0.  1.
        -11    1    3    3    0    0  0.13580269149E+02  0.70487182441E+01  0.29763186154E+02  0.33465734556E+02  0.51100000000E-03 0. -1.
         12    1    3    3    0    0 -0.10051153748E+02 -0.12625741761E+01 -0.13452705188E+02  0.16840280939E+02  0.00000000000E+00 0. -1.
</event>
<event>
 7    1  0.1826069E-013  0.7246165E+02  0.7816164E-02  0.1226708E+00
        -11   -1    0    0    0    0  0.00000000000E+00  0.00000000000E+00  0.45593999997E+02  0.45594000000E+02  0.51100000000E-03 0. -1.
         11   -1    0    0    0    0 -0.00000000000E+00 -0.00000000000E+00 -0.45593999997E+02  0.45594000000E+02  0.51100000000E-03 0.  1.
    9900012    2    1    2    0    0  0.11879366073E+02  0.20706802084E+01  0.14327217444E+02  0.72461649194E+02  0.70000102782E+02 0.  0.
        -12    1    1    2    0    0 -0.11879366073E+02 -0.20706802084E+01 -0.14327217444E+02  0.18726350806E+02  0.00000000000E+00 0.  1.
         11    1    3    3    0    0  0.21787439818E+02 -0.87375190765E+01  0.27482774005E+02  0.36143320831E+02  0.51100000000E-03 0. -1.
        -11    1    3    3    0    0 -0.19477831896E+02  0.80203560652E+01 -0.15409461045E+02  0.26099109884E+02  0.51100000000E-03 0.  1.
        -12    1    3    3    0    0  0.95697581514E+01  0.27878432197E+01  0.22539044844E+01  0.10219218479E+02  0.00000000000E+00 0.  1.
</event>
<event>
 7    1  0.1826069E-013  0.7246158E+02  0.7816164E-02  0.1226708E+00
        -11   -1    0    0    0    0  0.00000000000E+00  0.00000000000E+00  0.45593999997E+02  0.45594000000E+02  0.51100000000E-03 0. -1.
         11   -1    0    0    0    0 -0.00000000000E+00 -0.00000000000E+00 -0.45593999997E+02  0.45594000000E+02  0.51100000000E-03 0.  1.
    9900012    2    1    2    0    0  0.99811808462E+01  0.39632783213E+00  0.15839749677E+02  0.72461582386E+02  0.70000015751E+02 0.  0.
        -12    1    1    2    0    0 -0.99811808462E+01 -0.39632783213E+00 -0.15839749677E+02  0.18726417614E+02  0.00000000000E+00 0.  1.
         11    1    3    3    0    0  0.88421427219E+01  0.26236968390E+02  0.12979491721E+02  0.30578247233E+02  0.51100000000E-03 0. -1.
        -11    1    3    3    0    0  0.48458992625E+01 -0.22059311028E+02 -0.12375502564E+02  0.25753621234E+02  0.51100000000E-03 0.  1.
         12    1    3    3    0    0 -0.37068611382E+01 -0.37813295303E+01  0.15235760519E+02  0.16129713919E+02  0.00000000000E+00 0. -1.
</event>
<event>
 7    1  0.1826069E-013  0.7246165E+02  0.7816164E-02  0.1226708E+00
        -11   -1    0    0    0    0  0.00000000000E+00  0.00000000000E+00  0.45593999997E+02  0.45594000000E+02  0.51100000000E-03 0.  1.
         11   -1    0    0    0    0 -0.00000000000E+00 -0.00000000000E+00 -0.45593999997E+02  0.45594000000E+02  0.51100000000E-03 0. -1.
    9900012    2    1    2    0    0  0.11174338259E+02  0.69316231023E+01 -0.13332782309E+02  0.72461646419E+02  0.70000099166E+02 0.  0.
        -12    1    1    2    0    0 -0.11174338259E+02 -0.69316231023E+01  0.13332782309E+02  0.18726353581E+02  0.00000000000E+00 0.  1.
         11    1    3    3    0    0  0.17083212357E+02 -0.15752364533E+02  0.89732709385E+00  0.23254641021E+02  0.51100000000E-03 0. -1.
        -11    1    3    3    0    0  0.64553999583E+01  0.20178214265E+02 -0.24893685771E+02  0.32688348246E+02  0.51100000000E-03 0.  1.
        -12    1    3    3    0    0 -0.12364274057E+02  0.25057733705E+01  0.10663576368E+02  0.16518657151E+02  0.00000000000E+00 0.  1.
</event>
<event>
 7    1  0.1826069E-013  0.7246164E+02  0.7816164E-02  0.1226708E+00
        -11   -1    0    0    0    0  0.00000000000E+00  0.00000000000E+00  0.45593999997E+02  0.45594000000E+02  0.51100000000E-03 0.  1.
         11   -1    0    0    0    0 -0.00000000000E+00 -0.00000000000E+00 -0.45593999997E+02  0.45594000000E+02  0.51100000000E-03 0. -1.
    9900012    2    1    2    0    0 -0.49748222324E+01  0.16565871139E+02 -0.71763303914E+01  0.72461637280E+02  0.70000087261E+02 0.  0.
        -12    1    1    2    0    0  0.49748222324E+01 -0.16565871139E+02  0.71763303914E+01  0.18726362720E+02  0.00000000000E+00 0.  1.
         11    1    3    3    0    0  0.28180289508E+02 -0.27938794466E+01 -0.79323701902E+01  0.29408450762E+02  0.51100000000E-03 0.  1.
        -11    1    3    3    0    0 -0.35096253471E+02  0.20589920289E+02  0.20843981386E+00  0.40690727109E+02  0.51100000000E-03 0. -1.
        -12    1    3    3    0    0  0.19411417306E+01 -0.12301697028E+01  0.54759998488E+00  0.23624594091E+01  0.00000000000E+00 0.  1.
</event>
<event>
 8    1  0.1826069E-013  0.7246159E+02  0.7816164E-02  0.1226708E+00
        -11   -1    0    0    0    0  0.00000000000E+00  0.00000000000E+00  0.45593999997E+02  0.45594000000E+02  0.51100000000E-03 0. -1.
         11   -1    0    0    0    0 -0.00000000000E+00 -0.00000000000E+00 -0.45593999997E+02  0.45594000000E+02  0.51100000000E-03 0.  1.
    9900012    2    1    2    0    0 -0.80862100912E+01  0.16876855433E+02 -0.68066607476E+00  0.72461592196E+02  0.70000028531E+02 0.  0.
         24    2    3    3    0    0 -0.21994484612E+02  0.19743179714E+02 -0.29102162463E+00  0.58255687153E+02  0.50200496945E+02 0.  0.
        -12    1    1    2    0    0  0.80862100912E+01 -0.16876855433E+02  0.68066607476E+00  0.18726407804E+02  0.00000000000E+00 0.  1.
         11    1    3    3    0    0  0.13908274521E+02 -0.28663242813E+01 -0.38964445014E+00  0.14205905043E+02  0.51100000000E-03 0.  1.
        -11    1    4    4    0    0 -0.33927647957E+02  0.26347627201E+02 -0.61813305840E+01  0.43399212010E+02  0.51100000000E-03 0. -1.
         12    1    4    4    0    0  0.11933163345E+02 -0.66044474868E+01  0.58903089594E+01  0.14856475143E+02  0.00000000000E+00 0. -1.
</event>
<event>
 7    1  0.1826069E-013  0.7246158E+02  0.7816164E-02  0.1226708E+00
        -11   -1    0    0    0    0  0.00000000000E+00  0.00000000000E+00  0.45593999997E+02  0.45594000000E+02  0.51100000000E-03 0.  1.
         11   -1    0    0    0    0 -0.00000000000E+00 -0.00000000000E+00 -0.45593999997E+02  0.45594000000E+02  0.51100000000E-03 0. -1.
    9900012    2    1    2    0    0  0.11350691468E+02  0.99542105229E+01 -0.11079460074E+02  0.72461576437E+02  0.70000008002E+02 0.  0.
        -12    1    1    2    0    0 -0.11350691468E+02 -0.99542105229E+01  0.11079460074E+02  0.18726423563E+02  0.00000000000E+00 0.  1.
         11    1    3    3    0    0  0.63526210840E+01  0.21100077067E+02 -0.25116342182E+02  0.33412567871E+02  0.51100000000E-03 0. -1.
        -11    1    3    3    0    0 -0.85920114505E+01 -0.18659049252E+02  0.52327798181E+01  0.21198225507E+02  0.51100000000E-03 0.  1.
        -12    1    3    3    0    0  0.13590081834E+02  0.75131827081E+01  0.88041022907E+01  0.17850783059E+02  0.00000000000E+00 0.  1.
</event>
<event>
 7    1  0.1826069E-013  0.7246153E+02  0.7816164E-02  0.1226708E+00
        -11   -1    0    0    0    0  0.00000000000E+00  0.00000000000E+00  0.45593999997E+02  0.45594000000E+02  0.51100000000E-03 0. -1.
         11   -1    0    0    0    0 -0.00000000000E+00 -0.00000000000E+00 -0.45593999997E+02  0.45594000000E+02  0.51100000000E-03 0.  1.
    9900012    2    1    2    0    0  0.14679604921E+01  0.18101897252E+02  0.45658562637E+01  0.72461531151E+02  0.69999949008E+02 0.  0.
        -12    1    1    2    0    0 -0.14679604921E+01 -0.18101897252E+02 -0.45658562637E+01  0.18726468849E+02  0.00000000000E+00 0.  1.
         11    1    3    3    0    0 -0.57279381431E+00  0.21801045133E+02  0.25006411307E+02  0.33180329539E+02  0.51100000000E-03 0. -1.
        -11    1    3    3    0    0 -0.14550858791E+02 -0.69628688365E+01 -0.65977087827E+01  0.17428103610E+02  0.51100000000E-03 0.  1.
         12    1    3    3    0    0  0.16591613098E+02  0.32637209561E+01 -0.13842846260E+02  0.21853098001E+02  0.00000000000E+00 0. -1.
</event>
<event>
 8    1  0.1826069E-013  0.7246159E+02  0.7816164E-02  0.1226708E+00
        -11   -1    0    0    0    0  0.00000000000E+00  0.00000000000E+00  0.45593999997E+02  0.45594000000E+02  0.51100000000E-03 0. -1.
         11   -1    0    0    0    0 -0.00000000000E+00 -0.00000000000E+00 -0.45593999997E+02  0.45594000000E+02  0.51100000000E-03 0.  1.
    9900012    2    1    2    0    0  0.33294047711E+01 -0.89098837029E+01  0.16130951024E+02  0.72461586978E+02  0.70000021733E+02 0.  0.
         24    2    3    3    0    0 -0.10015536466E+02 -0.40186412940E+01  0.12477161459E+02  0.57786373611E+02  0.55381630244E+02 0.  0.
        -12    1    1    2    0    0 -0.33294047711E+01  0.89098837029E+01 -0.16130951024E+02  0.18726413022E+02  0.00000000000E+00 0.  1.
         11    1    3    3    0    0  0.13344941237E+02 -0.48912424089E+01  0.36537895653E+01  0.14675213367E+02  0.51100000000E-03 0.  1.
        -11    1    4    4    0    0 -0.24429482429E+02 -0.20547352145E+02  0.15778725497E+02  0.35608446617E+02  0.51100000000E-03 0. -1.
         12    1    4    4    0    0  0.14413945963E+02  0.16528710851E+02 -0.33015640375E+01  0.22177926994E+02  0.00000000000E+00 0. -1.
</event>
<event>
 7    1  0.1826069E-013  0.7246143E+02  0.7816164E-02  0.1226708E+00
        -11   -1    0    0    0    0  0.00000000000E+00  0.00000000000E+00  0.45593999997E+02  0.45594000000E+02  0.51100000000E-03 0. -1.
         11   -1    0    0    0    0 -0.00000000000E+00 -0.00000000000E+00 -0.45593999997E+02  0.45594000000E+02  0.51100000000E-03 0.  1.
    9900012    2    1    2    0    0 -0.16873399531E+02 -0.71594156472E+01 -0.38360900449E+01  0.72461429813E+02  0.69999816996E+02 0.  0.
        -12    1    1    2    0    0  0.16873399531E+02  0.71594156472E+01  0.38360900449E+01  0.18726570187E+02  0.00000000000E+00 0.  1.
         11    1    3    3    0    0 -0.45121548121E+00 -0.52794370366E+01  0.19222296810E+02  0.19939226308E+02  0.51100000000E-03 0. -1.
        -11    1    3    3    0    0 -0.16489943493E+02  0.19138464089E+02 -0.74378236087E+01  0.26334772913E+02  0.51100000000E-03 0.  1.
        -12    1    3    3    0    0  0.67759443269E-01 -0.21018442700E+02 -0.15620563246E+02  0.26187430592E+02  0.00000000000E+00 0.  1.
</event>
<event>
 7    1  0.1826069E-013  0.7246156E+02  0.7816164E-02  0.1226708E+00
        -11   -1    0    0    0    0  0.00000000000E+00  0.00000000000E+00  0.45593999997E+02  0.45594000000E+02  0.51100000000E-03 0.  1.
         11   -1    0    0    0    0 -0.00000000000E+00 -0.00000000000E+00 -0.45593999997E+02  0.45594000000E+02  0.51100000000E-03 0. -1.
    9900012    2    1    2    0    0 -0.52091223117E+01  0.17964353220E+02 -0.90912446090E+00  0.72461562828E+02  0.69999990273E+02 0.  0.
        -12    1    1    2    0    0  0.52091223117E+01 -0.17964353220E+02  0.90912446090E+00  0.18726437172E+02  0.00000000000E+00 0.  1.
         11    1    3    3    0    0 -0.13757754206E+02  0.28280262454E+02  0.25473610388E+02  0.40471642810E+02  0.51100000000E-03 0.  1.
        -11    1    3    3    0    0  0.14578757644E+01 -0.76735396448E+01 -0.21767470008E+02  0.23126421323E+02  0.51100000000E-03 0. -1.
        -12    1    3    3    0    0  0.70907561301E+01 -0.26423695895E+01 -0.46152648414E+01  0.88634986941E+01  0.00000000000E+00 0.  1.
</event>
<event>
 7    1  0.1826069E-013  0.7246148E+02  0.7816164E-02  0.1226708E+00
        -11   -1    0    0    0    0  0.00000000000E+00  0.00000000000E+00  0.45593999997E+02  0.45594000000E+02  0.51100000000E-03 0. -1.
         11   -1    0    0    0    0 -0.00000000000E+00 -0.00000000000E+00 -0.45593999997E+02  0.45594000000E+02  0.51100000000E-03 0.  1.
    9900012    2    1    2    0    0 -0.53915954200E+00 -0.89688230872E+01  0.16430219625E+02  0.72461478767E+02  0.69999880768E+02 0.  0.
        -12    1    1    2    0    0  0.53915954200E+00  0.89688230872E+01 -0.16430219625E+02  0.18726521233E+02  0.00000000000E+00 0.  1.
         11    1    3    3    0    0 -0.27994195710E+01  0.22231758277E+02  0.30991146522E+01  0.22620617540E+02  0.51100000000E-03 0. -1.
        -11    1    3    3    0    0 -0.18807319115E+01 -0.21790627355E+02  0.25706668048E+02  0.33752057352E+02  0.51100000000E-03 0.  1.
        -12    1    3    3    0    0  0.41409919405E+01 -0.94099540084E+01 -0.12375563076E+02  0.16088803875E+02  0.00000000000E+00 0.  1.
</event>
<event>
 7    1  0.1826069E-013  0.7246157E+02  0.7816164E-02  0.1226708E+00
        -11   -1    0    0    0    0  0.00000000000E+00  0.00000000000E+00  0.45593999997E+02  0.45594000000E+02  0.51100000000E-03 0. -1.
         11   -1    0    0    0    0 -0.00000000000E+00 -0.00000000000E+00 -0.45593999997E+02  0.45594000000E+02  0.51100000000E-03 0.  1.
    9900012    2    1    2    0    0  0.83285011096E-01  0.10038023055E+02  0.15808549803E+02  0.72461572414E+02  0.70000002761E+02 0.  0.
        -12    1    1    2    0    0 -0.83285011096E-01 -0.10038023055E+02 -0.15808549803E+02  0.18726427586E+02  0.00000000000E+00 0.  1.
         11    1    3    3    0    0  0.88498715256E+01 -0.94222883948E+01  0.28779718443E+02  0.31549515663E+02  0.51100000000E-03 0. -1.
        -11    1    3    3    0    0  0.88833515207E+00  0.26587394178E+02 -0.69987086126E+01  0.27507464278E+02  0.51100000000E-03 0.  1.
        -12    1    3    3    0    0 -0.96549216666E+01 -0.71270827276E+01 -0.59724600275E+01  0.13404592473E+02  0.00000000000E+00 0.  1.
</event>
<event>
 7    1  0.1826069E-013  0.7246157E+02  0.7816164E-02  0.1226708E+00
        -11   -1    0    0    0    0  0.00000000000E+00  0.00000000000E+00  0.45593999997E+02  0.45594000000E+02  0.51100000000E-03 0.  1.
         11   -1    0    0    0    0 -0.00000000000E+00 -0.00000000000E+00 -0.45593999997E+02  0.45594000000E+02  0.51100000000E-03 0. -1.
    9900012    2    1    2    0    0  0.82699915210E+01  0.94181971871E+01 -0.13913440111E+02  0.72461574454E+02  0.70000005419E+02 0.  0.
        -12    1    1    2    0    0 -0.82699915210E+01 -0.94181971871E+01  0.13913440111E+02  0.18726425546E+02  0.00000000000E+00 0.  1.
         11    1    3    3    0    0  0.10982769360E+02 -0.70329839856E+01 -0.21703655429E+02  0.25320599238E+02  0.51100000000E-03 0. -1.
        -11    1    3    3    0    0 -0.35263334688E+00  0.30216408118E+02 -0.16827587327E+01  0.30265282867E+02  0.51100000000E-03 0.  1.
        -12    1    3    3    0    0 -0.23601444920E+01 -0.13765226945E+02  0.94729740508E+01  0.16875692348E+02  0.00000000000E+00 0.  1.
</event>
<event>
 7    1  0.1826069E-013  0.7246154E+02  0.7816164E-02  0.1226708E+00
        -11   -1    0    0    0    0  0.00000000000E+00  0.00000000000E+00  0.45593999997E+02  0.45594000000E+02  0.51100000000E-03 0. -1.
         11   -1    0    0    0    0 -0.00000000000E+00 -0.00000000000E+00 -0.45593999997E+02  0.45594000000E+02  0.51100000000E-03 0.  1.
    9900012    2    1    2    0    0 -0.76653283433E+01 -0.16784060500E+02 -0.31966045640E+01  0.72461542080E+02  0.69999963246E+02 0.  0.
        -12    1    1    2    0    0  0.76653283433E+01  0.16784060500E+02  0.31966045640E+01  0.18726457920E+02  0.00000000000E+00 0.  1.
         11    1    3    3    0    0 -0.19048468998E+02 -0.11895090844E+02  0.25607560820E+02  0.34060013634E+02  0.51100000000E-03 0. -1.
        -11    1    3    3    0    0  0.17833560000E+02 -0.45682422150E+01 -0.24478146104E+02  0.30628162468E+02  0.51100000000E-03 0.  1.
        -12    1    3    3    0    0 -0.64504193450E+01 -0.32072744134E+00 -0.43260192793E+01  0.77733659776E+01  0.00000000000E+00 0.  1.
</event>
<event>
 7    1  0.1826069E-013  0.7246153E+02  0.7816164E-02  0.1226708E+00
        -11   -1    0    0    0    0  0.00000000000E+00  0.00000000000E+00  0.45593999997E+02  0.45594000000E+02  0.51100000000E-03 0.  1.
         11   -1    0    0    0    0 -0.00000000000E+00 -0.00000000000E+00 -0.45593999997E+02  0.45594000000E+02  0.51100000000E-03 0. -1.
    9900012    2    1    2    0    0 -0.10422059902E+02  0.46073007353E+01 -0.14860494696E+02  0.72461525285E+02  0.69999941366E+02 0.  0.
        -12    1    1    2    0    0  0.10422059902E+02 -0.46073007353E+01  0.14860494696E+02  0.18726474715E+02  0.00000000000E+00 0.  1.
         11    1    3    3    0    0  0.32851737438E+01 -0.10050508088E+02 -0.15001832039E+02  0.18353747415E+02  0.51100000000E-03 0. -1.
        -11    1    3    3    0    0 -0.21658241403E+02  0.28701001162E+02 -0.67085102331E+01  0.36576372130E+02  0.51100000000E-03 0.  1.
        -12    1    3    3    0    0  0.79510077577E+01 -0.14043192338E+02  0.68498475764E+01  0.17531405740E+02  0.00000000000E+00 0.  1.
</event>
<event>
 7    1  0.1826069E-013  0.7246150E+02  0.7816164E-02  0.1226708E+00
        -11   -1    0    0    0    0  0.00000000000E+00  0.00000000000E+00  0.45593999997E+02  0.45594000000E+02  0.51100000000E-03 0. -1.
         11   -1    0    0    0    0 -0.00000000000E+00 -0.00000000000E+00 -0.45593999997E+02  0.45594000000E+02  0.51100000000E-03 0.  1.
    9900012    2    1    2    0    0  0.17849128372E+02 -0.48878068870E+01  0.28634982222E+01  0.72461503749E+02  0.69999913312E+02 0.  0.
        -12    1    1    2    0    0 -0.17849128372E+02  0.48878068870E+01 -0.28634982222E+01  0.18726496251E+02  0.00000000000E+00 0.  1.
         11    1    3    3    0    0 -0.41549448599E+01 -0.28228008337E+02  0.34664855919E+01  0.28741964861E+02  0.51100000000E-03 0. -1.
        -11    1    3    3    0    0  0.82131871335E+01  0.26862820335E+02 -0.55830620079E+01  0.28639799945E+02  0.51100000000E-03 0.  1.
        -12    1    3    3    0    0  0.13790886098E+02 -0.35226188853E+01  0.49800746382E+01  0.15079738943E+02  0.00000000000E+00 0.  1.
</event>
<event>
 7    1  0.1826069E-013  0.7246150E+02  0.7816164E-02  0.1226708E+00
        -11   -1    0    0    0    0  0.00000000000E+00  0.00000000000E+00  0.45593999997E+02  0.45594000000E+02  0.51100000000E-03 0.  1.
         11   -1    0    0    0    0 -0.00000000000E+00 -0.00000000000E+00 -0.45593999997E+02  0.45594000000E+02  0.51100000000E-03 0. -1.
    9900012    2    1    2    0    0  0.10728544819E+02 -0.14729864858E+02  0.43140778280E+01  0.72461498453E+02  0.69999906414E+02 0.  0.
        -12    1    1    2    0    0 -0.10728544819E+02  0.14729864858E+02 -0.43140778280E+01  0.18726501547E+02  0.00000000000E+00 0.  1.
         11    1    3    3    0    0  0.76455937967E+01 -0.71294267654E+01 -0.76394459305E+01  0.12947778377E+02  0.51100000000E-03 0. -1.
        -11    1    3    3    0    0 -0.14393826192E+02 -0.20044716799E+02  0.24405593976E+02  0.34707433232E+02  0.51100000000E-03 0.  1.
        -12    1    3    3    0    0  0.17476777214E+02  0.12444278706E+02 -0.12452070217E+02  0.24806286844E+02  0.00000000000E+00 0.  1.
</event>
<event>
 7    1  0.1826069E-013  0.7246157E+02  0.7816164E-02  0.1226708E+00
        -11   -1    0    0    0    0  0.00000000000E+00  0.00000000000E+00  0.45593999997E+02  0.45594000000E+02  0.51100000000E-03 0.  1.
         11   -1    0    0    0    0 -0.00000000000E+00 -0.00000000000E+00 -0.45593999997E+02  0.45594000000E+02  0.51100000000E-03 0. -1.
    9900012    2    1    2    0    0 -0.47009922084E+01  0.12191406417E+02 -0.13414530784E+02  0.72461565360E+02  0.69999993573E+02 0.  0.
        -12    1    1    2    0    0  0.47009922084E+01 -0.12191406417E+02  0.13414530784E+02  0.18726434640E+02  0.00000000000E+00 0.  1.
         11    1    3    3    0    0  0.28150748611E+01 -0.22612643683E+02 -0.46092852010E+01  0.23248694827E+02  0.51100000000E-03 0.  1.
        -11    1    3    3    0    0 -0.16936862079E+02  0.34971040503E+02 -0.85555402182E+01  0.39787287412E+02  0.51100000000E-03 0. -1.
         12    1    3    3    0    0  0.94207950096E+01 -0.16699040265E+00 -0.24970536437E+00  0.94255831213E+01  0.00000000000E+00 0. -1.
</event>
<event>
 7    1  0.1826069E-013  0.7246157E+02  0.7816164E-02  0.1226708E+00
        -11   -1    0    0    0    0  0.00000000000E+00  0.00000000000E+00  0.45593999997E+02  0.45594000000E+02  0.51100000000E-03 0.  1.
         11   -1    0    0    0    0 -0.00000000000E+00 -0.00000000000E+00 -0.45593999997E+02  0.45594000000E+02  0.51100000000E-03 0. -1.
    9900012    2    1    2    0    0 -0.96451151076E+01  0.95987573071E+01  0.12865251467E+02  0.72461572615E+02  0.70000003023E+02 0.  0.
        -12    1    1    2    0    0  0.96451151076E+01 -0.95987573071E+01 -0.12865251467E+02  0.18726427385E+02  0.00000000000E+00 0.  1.
         11    1    3    3    0    0  0.12740464011E+02 -0.10300308028E+02  0.91430021373E+00  0.16408891304E+02  0.51100000000E-03 0. -1.
        -11    1    3    3    0    0 -0.23242385390E+02  0.30747223341E+02  0.19116191246E+02  0.43023586436E+02  0.51100000000E-03 0.  1.
        -12    1    3    3    0    0  0.85680627166E+00 -0.10848158006E+02 -0.71652399925E+01  0.13029094875E+02  0.00000000000E+00 0.  1.
</event>
<event>
 7    1  0.1826069E-013  0.7246158E+02  0.7816164E-02  0.1226708E+00
        -11   -1    0    0    0    0  0.00000000000E+00  0.00000000000E+00  0.45593999997E+02  0.45594000000E+02  0.51100000000E-03 0. -1.
         11   -1    0    0    0    0 -0.00000000000E+00 -0.00000000000E+00 -0.45593999997E+02  0.45594000000E+02  0.51100000000E-03 0.  1.
    9900012    2    1    2    0    0  0.26405010376E+00 -0.98525639080E+01  0.15922818091E+02  0.72461578185E+02  0.70000010279E+02 0.  0.
        -12    1    1    2    0    0 -0.26405010376E+00  0.98525639080E+01 -0.15922818091E+02  0.18726421815E+02  0.00000000000E+00 0.  1.
         11    1    3    3    0    0 -0.74278814551E+01  0.17309517454E+02 -0.47089083340E+01  0.19415628637E+02  0.51100000000E-03 0. -1.
        -11    1    3    3    0    0  0.18997691958E+02 -0.30880331043E+02  0.11472163317E+02  0.38027853956E+02  0.51100000000E-03 0.  1.
        -12    1    3    3    0    0 -0.11305760399E+02  0.37182496803E+01  0.91595631084E+01  0.15018095592E+02  0.00000000000E+00 0.  1.
</event>
<event>
 7    1  0.1826069E-013  0.7246157E+02  0.7816164E-02  0.1226708E+00
        -11   -1    0    0    0    0  0.00000000000E+00  0.00000000000E+00  0.45593999997E+02  0.45594000000E+02  0.51100000000E-03 0. -1.
         11   -1    0    0    0    0 -0.00000000000E+00 -0.00000000000E+00 -0.45593999997E+02  0.45594000000E+02  0.51100000000E-03 0.  1.
    9900012    2    1    2    0    0 -0.11551377290E+02 -0.84385692150E+01  0.12084505678E+02  0.72461573614E+02  0.70000004325E+02 0.  0.
        -12    1    1    2    0    0  0.11551377290E+02  0.84385692150E+01 -0.12084505678E+02  0.18726426386E+02  0.00000000000E+00 0.  1.
         11    1    3    3    0    0 -0.22032898762E+02  0.13091591268E+02  0.23700723898E+02  0.34907917488E+02  0.51100000000E-03 0. -1.
        -11    1    3    3    0    0  0.70929260274E+01  0.34868227713E+01 -0.92960816449E+01  0.12201830472E+02  0.51100000000E-03 0.  1.
         12    1    3    3    0    0  0.33885954446E+01 -0.25016983255E+02 -0.23201365753E+01  0.25351825654E+02  0.00000000000E+00 0. -1.
</event>
<event>
 7    1  0.1826069E-013  0.7246144E+02  0.7816164E-02  0.1226708E+00
        -11   -1    0    0    0    0  0.00000000000E+00  0.00000000000E+00  0.45593999997E+02  0.45594000000E+02  0.51100000000E-03 0.  1.
         11   -1    0    0    0    0 -0.00000000000E+00 -0.00000000000E+00 -0.45593999997E+02  0.45594000000E+02  0.51100000000E-03 0. -1.
    9900012    2    1    2    0    0  0.76992607466E+01  0.17012975098E+02 -0.14015338590E+01  0.72461435048E+02  0.69999823817E+02 0.  0.
        -12    1    1    2    0    0 -0.76992607466E+01 -0.17012975098E+02  0.14015338590E+01  0.18726564952E+02  0.00000000000E+00 0.  1.
         11    1    3    3    0    0  0.25992478271E+01  0.42201669730E+01 -0.28326796746E+02  0.28757143681E+02  0.51100000000E-03 0. -1.
        -11    1    3    3    0    0 -0.60246260944E+01  0.19367610248E+02  0.10606798154E+02  0.22888962704E+02  0.51100000000E-03 0.  1.
        -12    1    3    3    0    0  0.11124639014E+02 -0.65748021234E+01  0.16318464733E+02  0.20815328664E+02  0.00000000000E+00 0.  1.
</event>
<event>
 7    1  0.1826069E-013  0.7246225E+02  0.7816164E-02  0.1226706E+00
        -11   -1    0    0    0    0  0.00000000000E+00  0.00000000000E+00  0.45593999997E+02  0.45594000000E+02  0.51100000000E-03 0. -1.
         11   -1    0    0    0    0 -0.00000000000E+00 -0.00000000000E+00 -0.45593999997E+02  0.45594000000E+02  0.51100000000E-03 0.  1.
    9900012    2    1    2    0    0  0.10103483677E+00  0.15816454677E+02  0.10024134590E+02  0.72462249792E+02  0.70000885166E+02 0.  0.
        -12    1    1    2    0    0 -0.10103483677E+00 -0.15816454677E+02 -0.10024134590E+02  0.18725750208E+02  0.00000000000E+00 0.  1.
         11    1    3    3    0    0  0.46025340788E+01 -0.11957580618E+02  0.21647590961E+02  0.25155223093E+02  0.51100000000E-03 0. -1.
        -11    1    3    3    0    0  0.97436262141E+01 -0.27234392902E+01 -0.90063233578E+01  0.13545081545E+02  0.51100000000E-03 0.  1.
         12    1    3    3    0    0 -0.14245125456E+02  0.30497474586E+02 -0.26171330131E+01  0.33761945154E+02  0.00000000000E+00 0. -1.
</event>
<event>
 7    1  0.1826069E-013  0.7246141E+02  0.7816164E-02  0.1226708E+00
        -11   -1    0    0    0    0  0.00000000000E+00  0.00000000000E+00  0.45593999997E+02  0.45594000000E+02  0.51100000000E-03 0.  1.
         11   -1    0    0    0    0 -0.00000000000E+00 -0.00000000000E+00 -0.45593999997E+02  0.45594000000E+02  0.51100000000E-03 0. -1.
    9900012    2    1    2    0    0 -0.87507603230E+01 -0.78637968617E+01 -0.14569487485E+02  0.72461412674E+02  0.69999794670E+02 0.  0.
        -12    1    1    2    0    0  0.87507603230E+01  0.78637968617E+01  0.14569487485E+02  0.18726587326E+02  0.00000000000E+00 0.  1.
         11    1    3    3    0    0  0.10743542512E+02 -0.14629659813E+01 -0.19261385629E+02  0.22103505418E+02  0.51100000000E-03 0. -1.
        -11    1    3    3    0    0 -0.82139573868E+01 -0.15481543166E+02  0.21782236866E+02  0.27957344614E+02  0.51100000000E-03 0.  1.
        -12    1    3    3    0    0 -0.11280345448E+02  0.90807122855E+01 -0.17090338721E+02  0.22400562642E+02  0.00000000000E+00 0.  1.
</event>
<event>
 7    1  0.1826069E-013  0.7246158E+02  0.7816164E-02  0.1226708E+00
        -11   -1    0    0    0    0  0.00000000000E+00  0.00000000000E+00  0.45593999997E+02  0.45594000000E+02  0.51100000000E-03 0. -1.
         11   -1    0    0    0    0 -0.00000000000E+00 -0.00000000000E+00 -0.45593999997E+02  0.45594000000E+02  0.51100000000E-03 0.  1.
    9900012    2    1    2    0    0  0.11553556187E+02 -0.12930213352E+02  0.70713400412E+01  0.72461576746E+02  0.70000008405E+02 0.  0.
        -12    1    1    2    0    0 -0.11553556187E+02  0.12930213352E+02 -0.70713400412E+01  0.18726423254E+02  0.00000000000E+00 0.  1.
         11    1    3    3    0    0 -0.77991136755E+01 -0.13341908523E+02  0.30434680892E+02  0.34133597795E+02  0.51100000000E-03 0. -1.
        -11    1    3    3    0    0 -0.22021322409E+01  0.73924500682E+01 -0.64366501259E+01  0.10046301286E+02  0.51100000000E-03 0.  1.
         12    1    3    3    0    0  0.21554802104E+02 -0.69807548976E+01 -0.16926690725E+02  0.28281677665E+02  0.00000000000E+00 0. -1.
</event>
<event>
 7    1  0.1826069E-013  0.7246158E+02  0.7816164E-02  0.1226708E+00
        -11   -1    0    0    0    0  0.00000000000E+00  0.00000000000E+00  0.45593999997E+02  0.45594000000E+02  0.51100000000E-03 0.  1.
         11   -1    0    0    0    0 -0.00000000000E+00 -0.00000000000E+00 -0.45593999997E+02  0.45594000000E+02  0.51100000000E-03 0. -1.
    9900012    2    1    2    0    0 -0.51047136343E+01  0.12135426343E+02 -0.13317356548E+02  0.72461583919E+02  0.70000017748E+02 0.  0.
        -12    1    1    2    0    0  0.51047136343E+01 -0.12135426343E+02  0.13317356548E+02  0.18726416081E+02  0.00000000000E+00 0.  1.
         11    1    3    3    0    0  0.14197722273E+01 -0.24152148604E+01 -0.25125307883E+02  0.25281022774E+02  0.51100000000E-03 0. -1.
        -11    1    3    3    0    0 -0.46404833664E+01 -0.62697482976E+01  0.22418359217E+02  0.23736610117E+02  0.51100000000E-03 0.  1.
        -12    1    3    3    0    0 -0.18840024953E+01  0.20820389501E+02 -0.10610407882E+02  0.23443951028E+02  0.00000000000E+00 0.  1.
</event>
<event>
 7    1  0.1826069E-013  0.7246158E+02  0.7816164E-02  0.1226708E+00
        -11   -1    0    0    0    0  0.00000000000E+00  0.00000000000E+00  0.45593999997E+02  0.45594000000E+02  0.51100000000E-03 0.  1.
         11   -1    0    0    0    0 -0.00000000000E+00 -0.00000000000E+00 -0.45593999997E+02  0.45594000000E+02  0.51100000000E-03 0. -1.
    9900012    2    1    2    0    0  0.12586061832E+02  0.48917981692E+01 -0.12974600134E+02  0.72461577747E+02  0.70000009708E+02 0.  0.
        -12    1    1    2    0    0 -0.12586061832E+02 -0.48917981692E+01  0.12974600134E+02  0.18726422253E+02  0.00000000000E+00 0.  1.
         11    1    3    3    0    0  0.15537046980E+02 -0.16146612084E+02 -0.39457313168E+01  0.22752619773E+02  0.51100000000E-03 0. -1.
        -11    1    3    3    0    0 -0.18041364434E+02  0.64889914953E+01  0.97999268750E+01  0.21532217914E+02  0.51100000000E-03 0.  1.
         12    1    3    3    0    0  0.15090379286E+02  0.14549418758E+02 -0.18828795692E+02  0.28176740060E+02  0.00000000000E+00 0. -1.
</event>
<event>
 7    1  0.1826069E-013  0.7246166E+02  0.7816164E-02  0.1226708E+00
        -11   -1    0    0    0    0  0.00000000000E+00  0.00000000000E+00  0.45593999997E+02  0.45594000000E+02  0.51100000000E-03 0. -1.
         11   -1    0    0    0    0 -0.00000000000E+00 -0.00000000000E+00 -0.45593999997E+02  0.45594000000E+02  0.51100000000E-03 0.  1.
    9900012    2    1    2    0    0 -0.16427677078E+02  0.89741723531E+01 -0.52086452245E+00  0.72461664441E+02  0.70000122643E+02 0.  0.
        -12    1    1    2    0    0  0.16427677078E+02 -0.89741723531E+01  0.52086452245E+00  0.18726335559E+02  0.00000000000E+00 0.  1.
         11    1    3    3    0    0  0.16976573157E+02  0.24397620835E+02  0.50126758551E+01  0.30142575505E+02  0.51100000000E-03 0. -1.
        -11    1    3    3    0    0 -0.45243881563E+01 -0.11318688898E+02 -0.49131814138E+01  0.13142380242E+02  0.51100000000E-03 0.  1.
         12    1    3    3    0    0 -0.28879862079E+02 -0.41047595844E+01 -0.62035896377E+00  0.29176708694E+02  0.00000000000E+00 0. -1.
</event>
<event>
 7    1  0.1826069E-013  0.7246157E+02  0.7816164E-02  0.1226708E+00
        -11   -1    0    0    0    0  0.00000000000E+00  0.00000000000E+00  0.45593999997E+02  0.45594000000E+02  0.51100000000E-03 0.  1.
         11   -1    0    0    0    0 -0.00000000000E+00 -0.00000000000E+00 -0.45593999997E+02  0.45594000000E+02  0.51100000000E-03 0. -1.
    9900012    2    1    2    0    0  0.27363607181E+01  0.18362437053E+02 -0.24520359193E+01  0.72461568289E+02  0.69999997387E+02 0.  0.
        -12    1    1    2    0    0 -0.27363607181E+01 -0.18362437053E+02  0.24520359193E+01  0.18726431711E+02  0.00000000000E+00 0.  1.
         11    1    3    3    0    0  0.18274781780E+02  0.12984798617E+02  0.34163224450E+01  0.22676946521E+02  0.51100000000E-03 0. -1.
        -11    1    3    3    0    0 -0.14173323890E+02  0.55169989576E+01  0.19303548978E+02  0.24575341117E+02  0.51100000000E-03 0.  1.
        -12    1    3    3    0    0 -0.13650971715E+01 -0.13936052218E+00 -0.25171907343E+02  0.25209280650E+02  0.00000000000E+00 0.  1.
</event>
<event>
 7    1  0.1826069E-013  0.7246161E+02  0.7816164E-02  0.1226708E+00
        -11   -1    0    0    0    0  0.00000000000E+00  0.00000000000E+00  0.45593999997E+02  0.45594000000E+02  0.51100000000E-03 0. -1.
         11   -1    0    0    0    0 -0.00000000000E+00 -0.00000000000E+00 -0.45593999997E+02  0.45594000000E+02  0.51100000000E-03 0.  1.
    9900012    2    1    2    0    0  0.16788449569E+02  0.44649043370E+01 -0.69921492397E+01  0.72461613251E+02  0.70000055959E+02 0.  0.
        -12    1    1    2    0    0 -0.16788449569E+02 -0.44649043370E+01  0.69921492397E+01  0.18726386749E+02  0.00000000000E+00 0.  1.
         11    1    3    3    0    0 -0.81977933380E+01 -0.18331406963E+02 -0.41807226490E+01  0.20511526979E+02  0.51100000000E-03 0. -1.
        -11    1    3    3    0    0  0.40148197637E+01  0.27421121388E+02  0.66228681183E+01  0.28493842463E+02  0.51100000000E-03 0.  1.
         12    1    3    3    0    0  0.20971423144E+02 -0.46248100877E+01 -0.94342947090E+01  0.23456243810E+02  0.00000000000E+00 0. -1.
</event>
<event>
 7    1  0.1826069E-013  0.7246155E+02  0.7816164E-02  0.1226708E+00
        -11   -1    0    0    0    0  0.00000000000E+00  0.00000000000E+00  0.45593999997E+02  0.45594000000E+02  0.51100000000E-03 0.  1.
         11   -1    0    0    0    0 -0.00000000000E+00 -0.00000000000E+00 -0.45593999997E+02  0.45594000000E+02  0.51100000000E-03 0. -1.
    9900012    2    1    2    0    0  0.15087542409E+01  0.53980538720E+01 -0.17867974285E+02  0.72461552659E+02  0.69999977027E+02 0.  0.
        -12    1    1    2    0    0 -0.15087542409E+01 -0.53980538720E+01  0.17867974285E+02  0.18726447341E+02  0.00000000000E+00 0.  1.
         11    1    3    3    0    0  0.14005774587E+02 -0.75469250296E+01 -0.22996405514E+02  0.27963412989E+02  0.51100000000E-03 0. -1.
        -11    1    3    3    0    0 -0.27103226535E+02  0.69836461004E+01  0.26552813338E+00  0.27989760751E+02  0.51100000000E-03 0.  1.
         12    1    3    3    0    0  0.14606206189E+02  0.59613328011E+01  0.48629030957E+01  0.16508378919E+02  0.00000000000E+00 0. -1.
</event>
<event>
 7    1  0.1826069E-013  0.7246157E+02  0.7816164E-02  0.1226708E+00
        -11   -1    0    0    0    0  0.00000000000E+00  0.00000000000E+00  0.45593999997E+02  0.45594000000E+02  0.51100000000E-03 0.  1.
         11   -1    0    0    0    0 -0.00000000000E+00 -0.00000000000E+00 -0.45593999997E+02  0.45594000000E+02  0.51100000000E-03 0. -1.
    9900012    2    1    2    0    0  0.14142282771E+02 -0.54401913126E+01 -0.11003609051E+02  0.72461567995E+02  0.69999997005E+02 0.  0.
        -12    1    1    2    0    0 -0.14142282771E+02  0.54401913126E+01  0.11003609051E+02  0.18726432005E+02  0.00000000000E+00 0.  1.
         11    1    3    3    0    0  0.11990356823E+02  0.11500163655E+02  0.19939580129E+01  0.16733149425E+02  0.51100000000E-03 0. -1.
        -11    1    3    3    0    0 -0.20587524960E+02 -0.15081899421E+01 -0.18479082464E+02  0.27705546554E+02  0.51100000000E-03 0.  1.
        -12    1    3    3    0    0  0.22739450907E+02 -0.15432165026E+02  0.54815154005E+01  0.28022872016E+02  0.00000000000E+00 0.  1.
</event>
<event>
 7    1  0.1826069E-013  0.7246159E+02  0.7816164E-02  0.1226708E+00
        -11   -1    0    0    0    0  0.00000000000E+00  0.00000000000E+00  0.45593999997E+02  0.45594000000E+02  0.51100000000E-03 0.  1.
         11   -1    0    0    0    0 -0.00000000000E+00 -0.00000000000E+00 -0.45593999997E+02  0.45594000000E+02  0.51100000000E-03 0. -1.
    9900012    2    1    2    0    0  0.31415425771E+01  0.15297123902E+02 -0.10334755214E+02  0.72461589378E+02  0.70000024860E+02 0.  0.
        -12    1    1    2    0    0 -0.31415425771E+01 -0.15297123902E+02  0.10334755214E+02  0.18726410622E+02  0.00000000000E+00 0.  1.
         11    1    3    3    0    0  0.16760284747E+01  0.13047121775E+02 -0.21608773179E+02  0.25297737777E+02  0.51100000000E-03 0. -1.
        -11    1    3    3    0    0 -0.20657346391E+02 -0.18371811935E+01  0.13201549007E+02  0.24584183760E+02  0.51100000000E-03 0.  1.
        -12    1    3    3    0    0  0.22122860494E+02  0.40871833202E+01 -0.19275310428E+01  0.22579667842E+02  0.00000000000E+00 0.  1.
</event>
<event>
 7    1  0.1826069E-013  0.7246157E+02  0.7816164E-02  0.1226708E+00
        -11   -1    0    0    0    0  0.00000000000E+00  0.00000000000E+00  0.45593999997E+02  0.45594000000E+02  0.51100000000E-03 0. -1.
         11   -1    0    0    0    0 -0.00000000000E+00 -0.00000000000E+00 -0.45593999997E+02  0.45594000000E+02  0.51100000000E-03 0.  1.
    9900012    2    1    2    0    0  0.15996277468E+02 -0.42786726953E+01  0.87459279786E+01  0.72461569772E+02  0.69999999320E+02 0.  0.
        -12    1    1    2    0    0 -0.15996277468E+02  0.42786726953E+01 -0.87459279786E+01  0.18726430228E+02  0.00000000000E+00 0.  1.
         11    1    3    3    0    0  0.92196715510E+01 -0.17561281797E+02  0.24889778912E+02  0.31826122234E+02  0.51100000000E-03 0. -1.
        -11    1    3    3    0    0  0.93664451056E+01 -0.96115870822E+00 -0.22825055992E+02  0.24690834358E+02  0.51100000000E-03 0.  1.
        -12    1    3    3    0    0 -0.25898391888E+01  0.14243767810E+02  0.66812050588E+01  0.15944613181E+02  0.00000000000E+00 0.  1.
</event>
<event>
 7    1  0.1826069E-013  0.7246139E+02  0.7816164E-02  0.1226708E+00
        -11   -1    0    0    0    0  0.00000000000E+00  0.00000000000E+00  0.45593999997E+02  0.45594000000E+02  0.51100000000E-03 0.  1.
         11   -1    0    0    0    0 -0.00000000000E+00 -0.00000000000E+00 -0.45593999997E+02  0.45594000000E+02  0.51100000000E-03 0. -1.
    9900012    2    1    2    0    0 -0.97709104773E+01 -0.35115053315E+01 -0.15584751821E+02  0.72461391909E+02  0.69999767620E+02 0.  0.
        -12    1    1    2    0    0  0.97709104773E+01  0.35115053315E+01  0.15584751821E+02  0.18726608091E+02  0.00000000000E+00 0.  1.
         11    1    3    3    0    0 -0.90930742126E+01  0.32576526399E+02 -0.26142591709E+01  0.33922683003E+02  0.51100000000E-03 0. -1.
        -11    1    3    3    0    0  0.39541858002E+00 -0.25056027611E+02 -0.73722174252E+01  0.26121073208E+02  0.51100000000E-03 0.  1.
         12    1    3    3    0    0 -0.10732548447E+01 -0.11032004119E+02 -0.55982752251E+01  0.12417635699E+02  0.00000000000E+00 0. -1.
</event>
<event>
 7    1  0.1826069E-013  0.7246158E+02  0.7816164E-02  0.1226708E+00
        -11   -1    0    0    0    0  0.00000000000E+00  0.00000000000E+00  0.45593999997E+02  0.45594000000E+02  0.51100000000E-03 0.  1.
         11   -1    0    0    0    0 -0.00000000000E+00 -0.00000000000E+00 -0.45593999997E+02  0.45594000000E+02  0.51100000000E-03 0. -1.
    9900012    2    1    2    0    0  0.18635050164E+02  0.16058656810E+01  0.91379816435E+00  0.72461576789E+02  0.70000008461E+02 0.  0.
        -12    1    1    2    0    0 -0.18635050164E+02 -0.16058656810E+01 -0.91379816435E+00  0.18726423211E+02  0.00000000000E+00 0.  1.
         11    1    3    3    0    0  0.20663750024E+02  0.28034601080E+02 -0.15173597474E+02  0.37989044254E+02  0.51100000000E-03 0. -1.
        -11    1    3    3    0    0  0.33703658936E+01 -0.20849488324E+02  0.64217753503E+01  0.22074866445E+02  0.51100000000E-03 0.  1.
        -12    1    3    3    0    0 -0.53990657541E+01 -0.55792470748E+01  0.96656202876E+01  0.12397666090E+02  0.00000000000E+00 0.  1.
</event>
<event>
 8    1  0.1826069E-013  0.7246154E+02  0.7816164E-02  0.1226708E+00
        -11   -1    0    0    0    0  0.00000000000E+00  0.00000000000E+00  0.45593999997E+02  0.45594000000E+02  0.51100000000E-03 0.  1.
         11   -1    0    0    0    0 -0.00000000000E+00 -0.00000000000E+00 -0.45593999997E+02  0.45594000000E+02  0.51100000000E-03 0. -1.
    9900012    2    1    2    0    0  0.20463960309E+01  0.13759223413E+02 -0.12537005830E+02  0.72461535282E+02  0.69999954390E+02 0.  0.
        -24    2    3    3    0    0 -0.33961837841E+01  0.28036459424E+01 -0.15502261499E+02  0.59874276080E+02  0.57664671418E+02 0.  0.
        -12    1    1    2    0    0 -0.20463960309E+01 -0.13759223413E+02  0.12537005830E+02  0.18726464718E+02  0.00000000000E+00 0.  1.
         11    1    4    4    0    0  0.52972158250E+01  0.69762204331E+01 -0.36091250592E+02  0.37139016096E+02  0.51100000000E-03 0. -1.
        -11    1    3    3    0    0  0.54425798150E+01  0.10955577471E+02  0.29652556684E+01  0.12587259201E+02  0.51100000000E-03 0.  1.
        -12    1    4    4    0    0 -0.86933996091E+01 -0.41725744907E+01  0.20588989094E+02  0.22735259984E+02  0.00000000000E+00 0.  1.
</event>
<event>
 7    1  0.1826069E-013  0.7246163E+02  0.7816164E-02  0.1226708E+00
        -11   -1    0    0    0    0  0.00000000000E+00  0.00000000000E+00  0.45593999997E+02  0.45594000000E+02  0.51100000000E-03 0.  1.
         11   -1    0    0    0    0 -0.00000000000E+00 -0.00000000000E+00 -0.45593999997E+02  0.45594000000E+02  0.51100000000E-03 0. -1.
    9900012    2    1    2    0    0  0.10261999084E+02  0.56041060528E+01 -0.14627452299E+02  0.72461628472E+02  0.70000075787E+02 0.  0.
        -12    1    1    2    0    0 -0.10261999084E+02 -0.56041060528E+01  0.14627452299E+02  0.18726371528E+02  0.00000000000E+00 0.  1.
         11    1    3    3    0    0  0.14181533007E+02  0.33368456856E+01 -0.32205961713E+02  0.35347904997E+02  0.51100000000E-03 0. -1.
        -11    1    3    3    0    0 -0.14606188050E+02 -0.85456254327E+01  0.12664101759E+02  0.21136412114E+02  0.51100000000E-03 0.  1.
        -12    1    3    3    0    0  0.10686654127E+02  0.10812885800E+02  0.49144076548E+01  0.15977311362E+02  0.00000000000E+00 0.  1.
</event>
<event>
 7    1  0.1826069E-013  0.7246160E+02  0.7816164E-02  0.1226708E+00
        -11   -1    0    0    0    0  0.00000000000E+00  0.00000000000E+00  0.45593999997E+02  0.45594000000E+02  0.51100000000E-03 0.  1.
         11   -1    0    0    0    0 -0.00000000000E+00 -0.00000000000E+00 -0.45593999997E+02  0.45594000000E+02  0.51100000000E-03 0. -1.
    9900012    2    1    2    0    0  0.16120656680E+02  0.67303413535E+01 -0.67457410639E+01  0.72461599143E+02  0.70000037581E+02 0.  0.
        -12    1    1    2    0    0 -0.16120656680E+02 -0.67303413535E+01  0.67457410639E+01  0.18726400857E+02  0.00000000000E+00 0.  1.
         11    1    3    3    0    0  0.25240193100E+02  0.91685477939E+01 -0.25866690160E+02  0.37285590735E+02  0.51100000000E-03 0. -1.
        -11    1    3    3    0    0 -0.22722014470E+01  0.12297870803E+02  0.44216963321E+01  0.13264687121E+02  0.51100000000E-03 0.  1.
         12    1    3    3    0    0 -0.68473349728E+01 -0.14736077243E+02  0.14699252764E+02  0.21911321287E+02  0.00000000000E+00 0. -1.
</event>
<event>
 7    1  0.1826069E-013  0.7246159E+02  0.7816164E-02  0.1226708E+00
        -11   -1    0    0    0    0  0.00000000000E+00  0.00000000000E+00  0.45593999997E+02  0.45594000000E+02  0.51100000000E-03 0.  1.
         11   -1    0    0    0    0 -0.00000000000E+00 -0.00000000000E+00 -0.45593999997E+02  0.45594000000E+02  0.51100000000E-03 0. -1.
    9900012    2    1    2    0    0 -0.11116021427E+02 -0.14830972044E+02 -0.26748193676E+01  0.72461592903E+02  0.70000029452E+02 0.  0.
        -12    1    1    2    0    0  0.11116021427E+02  0.14830972044E+02  0.26748193676E+01  0.18726407097E+02  0.00000000000E+00 0.  1.
         11    1    3    3    0    0  0.38356769361E+01 -0.79548643118E+01 -0.34291965860E+02  0.35410891073E+02  0.51100000000E-03 0. -1.
        -11    1    3    3    0    0 -0.68051959751E+01 -0.66703092850E+01  0.24288567788E+02  0.26090960957E+02  0.51100000000E-03 0.  1.
        -12    1    3    3    0    0 -0.81465023879E+01 -0.20579844675E+00  0.73285787051E+01  0.10959740873E+02  0.00000000000E+00 0.  1.
</event>
<event>
 7    1  0.1826069E-013  0.7246176E+02  0.7816164E-02  0.1226708E+00
        -11   -1    0    0    0    0  0.00000000000E+00  0.00000000000E+00  0.45593999997E+02  0.45594000000E+02  0.51100000000E-03 0.  1.
         11   -1    0    0    0    0 -0.00000000000E+00 -0.00000000000E+00 -0.45593999997E+02  0.45594000000E+02  0.51100000000E-03 0. -1.
    9900012    2    1    2    0    0  0.23268603044E+01  0.15798909811E+02 -0.97801971788E+01  0.72461759402E+02  0.70000246347E+02 0.  0.
        -12    1    1    2    0    0 -0.23268603044E+01 -0.15798909811E+02  0.97801971788E+01  0.18726240598E+02  0.00000000000E+00 0.  1.
         11    1    3    3    0    0 -0.51507473246E+01  0.24856501179E+02 -0.11668370794E+02  0.27937908406E+02  0.51100000000E-03 0. -1.
        -11    1    3    3    0    0 -0.50078783328E+00 -0.12033016911E+02 -0.18700918978E+02  0.22243395768E+02  0.51100000000E-03 0.  1.
         12    1    3    3    0    0  0.79783954623E+01  0.29754255425E+01  0.20589092593E+02  0.22280455227E+02  0.00000000000E+00 0. -1.
</event>
<event>
 7    1  0.1826069E-013  0.7246161E+02  0.7816164E-02  0.1226708E+00
        -11   -1    0    0    0    0  0.00000000000E+00  0.00000000000E+00  0.45593999997E+02  0.45594000000E+02  0.51100000000E-03 0. -1.
         11   -1    0    0    0    0 -0.00000000000E+00 -0.00000000000E+00 -0.45593999997E+02  0.45594000000E+02  0.51100000000E-03 0.  1.
    9900012    2    1    2    0    0  0.17540313005E+02 -0.37990047493E+01  0.53462678313E+01  0.72461612278E+02  0.70000054691E+02 0.  0.
        -12    1    1    2    0    0 -0.17540313005E+02  0.37990047493E+01 -0.53462678313E+01  0.18726387722E+02  0.00000000000E+00 0.  1.
         11    1    3    3    0    0  0.16396572719E+02  0.45294918133E+01  0.28012831860E+02  0.32773200059E+02  0.51100000000E-03 0. -1.
        -11    1    3    3    0    0 -0.63719470830E+01 -0.17538835848E+02 -0.67961816363E+01  0.19859520579E+02  0.51100000000E-03 0.  1.
        -12    1    3    3    0    0  0.75156873686E+01  0.92103392855E+01 -0.15870382392E+02  0.19828891640E+02  0.00000000000E+00 0.  1.
</event>
<event>
 7    1  0.1826069E-013  0.7246159E+02  0.7816164E-02  0.1226708E+00
        -11   -1    0    0    0    0  0.00000000000E+00  0.00000000000E+00  0.45593999997E+02  0.45594000000E+02  0.51100000000E-03 0. -1.
         11   -1    0    0    0    0 -0.00000000000E+00 -0.00000000000E+00 -0.45593999997E+02  0.45594000000E+02  0.51100000000E-03 0.  1.
    9900012    2    1    2    0    0  0.22597947090E+01  0.17610720917E+02  0.59526837887E+01  0.72461585297E+02  0.70000019543E+02 0.  0.
        -12    1    1    2    0    0 -0.22597947090E+01 -0.17610720917E+02 -0.59526837887E+01  0.18726414703E+02  0.00000000000E+00 0.  1.
         11    1    3    3    0    0  0.76080034159E+01 -0.35227380984E+01  0.21291253709E+02  0.22882501708E+02  0.51100000000E-03 0. -1.
        -11    1    3    3    0    0  0.39909699690E+01  0.30526793046E+02 -0.18558210781E+02  0.35947463368E+02  0.51100000000E-03 0.  1.
         12    1    3    3    0    0 -0.93391786759E+01 -0.93933340306E+01  0.32196408606E+01  0.13631620220E+02  0.00000000000E+00 0. -1.
</event>
<event>
 7    1  0.1826069E-013  0.7246164E+02  0.7816164E-02  0.1226708E+00
        -11   -1    0    0    0    0  0.00000000000E+00  0.00000000000E+00  0.45593999997E+02  0.45594000000E+02  0.51100000000E-03 0.  1.
         11   -1    0    0    0    0 -0.00000000000E+00 -0.00000000000E+00 -0.45593999997E+02  0.45594000000E+02  0.51100000000E-03 0. -1.
    9900012    2    1    2    0    0 -0.15061715273E+02  0.10753805824E+02  0.28595618514E+01  0.72461636214E+02  0.70000085873E+02 0.  0.
        -12    1    1    2    0    0  0.15061715273E+02 -0.10753805824E+02 -0.28595618514E+01  0.18726363786E+02  0.00000000000E+00 0.  1.
         11    1    3    3    0    0 -0.36000557289E+02  0.19223944296E+02  0.81549515001E+01  0.41618546270E+02  0.51100000000E-03 0. -1.
        -11    1    3    3    0    0  0.72903122981E+01  0.30469751450E+01  0.58150129909E+01  0.98105599883E+01  0.51100000000E-03 0.  1.
         12    1    3    3    0    0  0.13648529718E+02 -0.11517113617E+02 -0.11110402640E+02  0.21032529956E+02  0.00000000000E+00 0. -1.
</event>
<event>
 7    1  0.1826069E-013  0.7246206E+02  0.7816164E-02  0.1226707E+00
        -11   -1    0    0    0    0  0.00000000000E+00  0.00000000000E+00  0.45593999997E+02  0.45594000000E+02  0.51100000000E-03 0.  1.
         11   -1    0    0    0    0 -0.00000000000E+00 -0.00000000000E+00 -0.45593999997E+02  0.45594000000E+02  0.51100000000E-03 0. -1.
    9900012    2    1    2    0    0  0.16264102172E+02  0.91969594456E+01  0.12472746159E+01  0.72462061399E+02  0.70000639753E+02 0.  0.
        -12    1    1    2    0    0 -0.16264102172E+02 -0.91969594456E+01 -0.12472746159E+01  0.18725938601E+02  0.00000000000E+00 0.  1.
         11    1    3    3    0    0 -0.26932759255E+01 -0.48098771815E+01 -0.29243988106E+02  0.29759023746E+02  0.51100000000E-03 0. -1.
        -11    1    3    3    0    0  0.20368580148E+01  0.99675428171E+01  0.19864257695E+02  0.22317917341E+02  0.51100000000E-03 0.  1.
         12    1    3    3    0    0  0.16920520083E+02  0.40392938101E+01  0.10627005026E+02  0.20385120313E+02  0.00000000000E+00 0. -1.
</event>
<event>
 7    1  0.1826069E-013  0.7246164E+02  0.7816164E-02  0.1226708E+00
        -11   -1    0    0    0    0  0.00000000000E+00  0.00000000000E+00  0.45593999997E+02  0.45594000000E+02  0.51100000000E-03 0.  1.
         11   -1    0    0    0    0 -0.00000000000E+00 -0.00000000000E+00 -0.45593999997E+02  0.45594000000E+02  0.51100000000E-03 0. -1.
    9900012    2    1    2    0    0 -0.13027725341E+02 -0.89176050285E+01 -0.10071315023E+02  0.72461636410E+02  0.70000086128E+02 0.  0.
        -12    1    1    2    0    0  0.13027725341E+02  0.89176050285E+01  0.10071315023E+02  0.18726363590E+02  0.00000000000E+00 0.  1.
         11    1    3    3    0    0 -0.16963538618E+01  0.35771017512E+01 -0.11607731765E+01  0.41256112264E+01  0.51100000000E-03 0. -1.
        -11    1    3    3    0    0 -0.74796215144E+01 -0.39637924061E+02 -0.52937011549E+01  0.40683326242E+02  0.51100000000E-03 0.  1.
        -12    1    3    3    0    0 -0.38517499651E+01  0.27143217282E+02 -0.36168406916E+01  0.27652698942E+02  0.00000000000E+00 0.  1.
</event>
<event>
 8    1  0.1826069E-013  0.7246153E+02  0.7816164E-02  0.1226708E+00
        -11   -1    0    0    0    0  0.00000000000E+00  0.00000000000E+00  0.45593999997E+02  0.45594000000E+02  0.51100000000E-03 0. -1.
         11   -1    0    0    0    0 -0.00000000000E+00 -0.00000000000E+00 -0.45593999997E+02  0.45594000000E+02  0.51100000000E-03 0.  1.
    9900012    2    1    2    0    0  0.53961715435E+01  0.10769777697E+02  0.14337845174E+02  0.72461532548E+02  0.69999950829E+02 0.  0.
        -24    2    3    3    0    0  0.11111815714E+02  0.10402237375E+02 -0.38392826642E+01  0.53403420079E+02  0.51044159253E+02 0.  0.
        -12    1    1    2    0    0 -0.53961715435E+01 -0.10769777697E+02 -0.14337845174E+02  0.18726467452E+02  0.00000000000E+00 0.  1.
         11    1    4    4    0    0  0.59793251181E+01 -0.14191794138E+02 -0.18691064433E+02  0.24218076711E+02  0.51100000000E-03 0.  1.
        -11    1    3    3    0    0 -0.57156441709E+01  0.36754032252E+00  0.18177127839E+02  0.19058112469E+02  0.51100000000E-03 0. -1.
        -12    1    4    4    0    0  0.51324905963E+01  0.24594031513E+02  0.14851781769E+02  0.29185343367E+02  0.00000000000E+00 0.  1.
</event>
<event>
 7    1  0.1826069E-013  0.7246155E+02  0.7816164E-02  0.1226708E+00
        -11   -1    0    0    0    0  0.00000000000E+00  0.00000000000E+00  0.45593999997E+02  0.45594000000E+02  0.51100000000E-03 0. -1.
         11   -1    0    0    0    0 -0.00000000000E+00 -0.00000000000E+00 -0.45593999997E+02  0.45594000000E+02  0.51100000000E-03 0.  1.
    9900012    2    1    2    0    0 -0.16361384265E+02 -0.54541933773E+01 -0.72963489899E+01  0.72461552685E+02  0.69999977061E+02 0.  0.
        -12    1    1    2    0    0  0.16361384265E+02  0.54541933773E+01  0.72963489899E+01  0.18726447315E+02  0.00000000000E+00 0.  1.
         11    1    3    3    0    0 -0.15559956564E+02  0.18590909831E+02  0.10382605086E+02  0.26372953291E+02  0.51100000000E-03 0. -1.
        -11    1    3    3    0    0  0.26559522489E+01 -0.27006201022E+02 -0.25371741179E+02  0.37149888650E+02  0.51100000000E-03 0.  1.
        -12    1    3    3    0    0 -0.34573799495E+01  0.29610978137E+01  0.76927871023E+01  0.89387107448E+01  0.00000000000E+00 0.  1.
</event>
<event>
 7    1  0.1826069E-013  0.7246156E+02  0.7816164E-02  0.1226708E+00
        -11   -1    0    0    0    0  0.00000000000E+00  0.00000000000E+00  0.45593999997E+02  0.45594000000E+02  0.51100000000E-03 0.  1.
         11   -1    0    0    0    0 -0.00000000000E+00 -0.00000000000E+00 -0.45593999997E+02  0.45594000000E+02  0.51100000000E-03 0. -1.
    9900012    2    1    2    0    0  0.77963078209E+01  0.13720471401E+02 -0.10081953916E+02  0.72461560246E+02  0.69999986910E+02 0.  0.
        -12    1    1    2    0    0 -0.77963078209E+01 -0.13720471401E+02  0.10081953916E+02  0.18726439754E+02  0.00000000000E+00 0.  1.
         11    1    3    3    0    0  0.79941137839E+01 -0.11482310637E+01 -0.23145879708E+02  0.24514404693E+02  0.51100000000E-03 0. -1.
        -11    1    3    3    0    0 -0.66339635427E+01  0.59116404077E+01  0.28002200291E+02  0.29378226393E+02  0.51100000000E-03 0.  1.
        -12    1    3    3    0    0  0.64361575797E+01  0.89570620570E+01 -0.14938274500E+02  0.18568929159E+02  0.00000000000E+00 0.  1.
</event>
<event>
 7    1  0.1826069E-013  0.7246161E+02  0.7816164E-02  0.1226708E+00
        -11   -1    0    0    0    0  0.00000000000E+00  0.00000000000E+00  0.45593999997E+02  0.45594000000E+02  0.51100000000E-03 0.  1.
         11   -1    0    0    0    0 -0.00000000000E+00 -0.00000000000E+00 -0.45593999997E+02  0.45594000000E+02  0.51100000000E-03 0. -1.
    9900012    2    1    2    0    0  0.49202653597E+01 -0.17941563147E+02  0.21375101896E+01  0.72461610888E+02  0.70000052881E+02 0.  0.
        -12    1    1    2    0    0 -0.49202653597E+01  0.17941563147E+02 -0.21375101896E+01  0.18726389112E+02  0.00000000000E+00 0.  1.
         11    1    3    3    0    0  0.11681092302E+02  0.38681265746E+01 -0.17087043528E+02  0.21056528140E+02  0.51100000000E-03 0. -1.
        -11    1    3    3    0    0 -0.18670783697E+02 -0.24173525048E+02  0.23753357107E+01  0.30636574501E+02  0.51100000000E-03 0.  1.
        -12    1    3    3    0    0  0.11909956755E+02  0.23638353269E+01  0.16849218006E+02  0.20768508247E+02  0.00000000000E+00 0.  1.
</event>
<event>
 7    1  0.1826069E-013  0.7246159E+02  0.7816164E-02  0.1226708E+00
        -11   -1    0    0    0    0  0.00000000000E+00  0.00000000000E+00  0.45593999997E+02  0.45594000000E+02  0.51100000000E-03 0.  1.
         11   -1    0    0    0    0 -0.00000000000E+00 -0.00000000000E+00 -0.45593999997E+02  0.45594000000E+02  0.51100000000E-03 0. -1.
    9900012    2    1    2    0    0 -0.89548474744E+01 -0.74475255721E+01 -0.14663683606E+02  0.72461586907E+02  0.70000021641E+02 0.  0.
        -12    1    1    2    0    0  0.89548474744E+01  0.74475255721E+01  0.14663683606E+02  0.18726413093E+02  0.00000000000E+00 0.  1.
         11    1    3    3    0    0  0.13327950518E+02  0.55187625531E+01 -0.17200953252E+02  0.22449138027E+02  0.51100000000E-03 0. -1.
        -11    1    3    3    0    0 -0.19374498934E+02 -0.27586503205E+02 -0.35790129206E+01  0.33899789111E+02  0.51100000000E-03 0.  1.
        -12    1    3    3    0    0 -0.29082990577E+01  0.14620215080E+02  0.61162825669E+01  0.16112659769E+02  0.00000000000E+00 0.  1.
</event>
<event>
 7    1  0.1826069E-013  0.7246155E+02  0.7816164E-02  0.1226708E+00
        -11   -1    0    0    0    0  0.00000000000E+00  0.00000000000E+00  0.45593999997E+02  0.45594000000E+02  0.51100000000E-03 0.  1.
         11   -1    0    0    0    0 -0.00000000000E+00 -0.00000000000E+00 -0.45593999997E+02  0.45594000000E+02  0.51100000000E-03 0. -1.
    9900012    2    1    2    0    0 -0.10435374823E+02  0.15400172917E+02 -0.21488346427E+01  0.72461551755E+02  0.69999975849E+02 0.  0.
        -12    1    1    2    0    0  0.10435374823E+02 -0.15400172917E+02  0.21488346427E+01  0.18726448245E+02  0.00000000000E+00 0.  1.
         11    1    3    3    0    0 -0.13225577380E+02  0.28114802679E+02 -0.24014160547E+02  0.39268790836E+02  0.51100000000E-03 0.  1.
        -11    1    3    3    0    0  0.12017688317E+02 -0.55257300637E+01  0.10565630685E+02  0.16929001071E+02  0.51100000000E-03 0. -1.
         12    1    3    3    0    0 -0.92274857605E+01 -0.71888996986E+01  0.11299695219E+02  0.16263759847E+02  0.00000000000E+00 0. -1.
</event>
<event>
 7    1  0.1826069E-013  0.7246158E+02  0.7816164E-02  0.1226708E+00
        -11   -1    0    0    0    0  0.00000000000E+00  0.00000000000E+00  0.45593999997E+02  0.45594000000E+02  0.51100000000E-03 0. -1.
         11   -1    0    0    0    0 -0.00000000000E+00 -0.00000000000E+00 -0.45593999997E+02  0.45594000000E+02  0.51100000000E-03 0.  1.
    9900012    2    1    2    0    0  0.43300370778E+01 -0.36860776995E+01  0.17842157030E+02  0.72461575958E+02  0.70000007378E+02 0.  0.
        -12    1    1    2    0    0 -0.43300370778E+01  0.36860776995E+01 -0.17842157030E+02  0.18726424042E+02  0.00000000000E+00 0.  1.
         11    1    3    3    0    0  0.15339981213E+02  0.18301492476E+02 -0.11306450419E+01  0.23906861127E+02  0.51100000000E-03 0. -1.
        -11    1    3    3    0    0 -0.20537662766E+02 -0.35956118094E+01  0.18440120894E+02  0.27834548228E+02  0.51100000000E-03 0.  1.
        -12    1    3    3    0    0  0.95277186304E+01 -0.18391958366E+02  0.53268117762E+00  0.20720166603E+02  0.00000000000E+00 0.  1.
</event>
<event>
 7    1  0.1826069E-013  0.7246153E+02  0.7816164E-02  0.1226708E+00
        -11   -1    0    0    0    0  0.00000000000E+00  0.00000000000E+00  0.45593999997E+02  0.45594000000E+02  0.51100000000E-03 0. -1.
         11   -1    0    0    0    0 -0.00000000000E+00 -0.00000000000E+00 -0.45593999997E+02  0.45594000000E+02  0.51100000000E-03 0.  1.
    9900012    2    1    2    0    0 -0.36775402268E+01  0.18100999395E+02  0.30838478972E+01  0.72461532125E+02  0.69999950278E+02 0.  0.
        -12    1    1    2    0    0  0.36775402268E+01 -0.18100999395E+02 -0.30838478972E+01  0.18726467875E+02  0.00000000000E+00 0.  1.
         11    1    3    3    0    0  0.21107395498E+02  0.24376814709E+02 -0.38552491816E+01  0.32474823888E+02  0.51100000000E-03 0. -1.
        -11    1    3    3    0    0 -0.63363716033E+01 -0.11773486494E+02 -0.80344097169E+01  0.15598600228E+02  0.51100000000E-03 0.  1.
         12    1    3    3    0    0 -0.18448564121E+02  0.54976711798E+01  0.14973506796E+02  0.24388108010E+02  0.00000000000E+00 0. -1.
</event>
<event>
 7    1  0.1826069E-013  0.7246160E+02  0.7816164E-02  0.1226708E+00
        -11   -1    0    0    0    0  0.00000000000E+00  0.00000000000E+00  0.45593999997E+02  0.45594000000E+02  0.51100000000E-03 0. -1.
         11   -1    0    0    0    0 -0.00000000000E+00 -0.00000000000E+00 -0.45593999997E+02  0.45594000000E+02  0.51100000000E-03 0.  1.
    9900012    2    1    2    0    0  0.16785341960E+02  0.83012092025E+01  0.14282970007E+00  0.72461596734E+02  0.70000034443E+02 0.  0.
        -12    1    1    2    0    0 -0.16785341960E+02 -0.83012092025E+01 -0.14282970007E+00  0.18726403266E+02  0.00000000000E+00 0.  1.
         11    1    3    3    0    0 -0.63045374050E+00 -0.22852537420E+01  0.18971566438E+02  0.19119105365E+02  0.51100000000E-03 0. -1.
        -11    1    3    3    0    0  0.13306931023E+02 -0.76580289130E+01 -0.28437213816E+02  0.32317099962E+02  0.51100000000E-03 0.  1.
         12    1    3    3    0    0  0.41088646779E+01  0.18244491857E+02  0.96084770779E+01  0.21025391407E+02  0.00000000000E+00 0. -1.
</event>
<event>
 7    1  0.1826069E-013  0.7246151E+02  0.7816164E-02  0.1226708E+00
        -11   -1    0    0    0    0  0.00000000000E+00  0.00000000000E+00  0.45593999997E+02  0.45594000000E+02  0.51100000000E-03 0. -1.
         11   -1    0    0    0    0 -0.00000000000E+00 -0.00000000000E+00 -0.45593999997E+02  0.45594000000E+02  0.51100000000E-03 0.  1.
    9900012    2    1    2    0    0  0.17151753007E+02 -0.23093191310E+00  0.75130216385E+01  0.72461509274E+02  0.69999920510E+02 0.  0.
        -12    1    1    2    0    0 -0.17151753007E+02  0.23093191310E+00 -0.75130216385E+01  0.18726490726E+02  0.00000000000E+00 0.  1.
         11    1    3    3    0    0 -0.38657926552E+01 -0.96443882628E+01  0.12665098668E+02  0.16381797898E+02  0.51100000000E-03 0. -1.
        -11    1    3    3    0    0  0.37263259647E+02  0.94703713322E+01  0.16128492680E+01  0.38481680521E+02  0.51100000000E-03 0.  1.
        -12    1    3    3    0    0 -0.16245713985E+02 -0.56914982482E-01 -0.67649262979E+01  0.17598030856E+02  0.00000000000E+00 0.  1.
</event>
<event>
 7    1  0.1826069E-013  0.7246145E+02  0.7816164E-02  0.1226708E+00
        -11   -1    0    0    0    0  0.00000000000E+00  0.00000000000E+00  0.45593999997E+02  0.45594000000E+02  0.51100000000E-03 0.  1.
         11   -1    0    0    0    0 -0.00000000000E+00 -0.00000000000E+00 -0.45593999997E+02  0.45594000000E+02  0.51100000000E-03 0. -1.
    9900012    2    1    2    0    0  0.16522906195E+02  0.86569619398E+01 -0.16536075607E+01  0.72461445668E+02  0.69999837651E+02 0.  0.
        -12    1    1    2    0    0 -0.16522906195E+02 -0.86569619398E+01  0.16536075607E+01  0.18726554332E+02  0.00000000000E+00 0.  1.
         11    1    3    3    0    0  0.24267485845E+02  0.17311797777E+01 -0.10665425459E+02  0.26564245767E+02  0.51100000000E-03 0. -1.
        -11    1    3    3    0    0 -0.25211393231E+02 -0.19673943983E+01  0.34455882736E+01  0.25521697988E+02  0.51100000000E-03 0.  1.
         12    1    3    3    0    0  0.17466813581E+02  0.88931765604E+01  0.55662296249E+01  0.20375501914E+02  0.00000000000E+00 0. -1.
</event>
<event>
 7    1  0.1826069E-013  0.7246153E+02  0.7816164E-02  0.1226708E+00
        -11   -1    0    0    0    0  0.00000000000E+00  0.00000000000E+00  0.45593999997E+02  0.45594000000E+02  0.51100000000E-03 0. -1.
         11   -1    0    0    0    0 -0.00000000000E+00 -0.00000000000E+00 -0.45593999997E+02  0.45594000000E+02  0.51100000000E-03 0.  1.
    9900012    2    1    2    0    0 -0.24959243008E+01  0.64929538955E+00  0.18548026494E+02  0.72461534518E+02  0.69999953395E+02 0.  0.
        -12    1    1    2    0    0  0.24959243008E+01 -0.64929538955E+00 -0.18548026494E+02  0.18726465482E+02  0.00000000000E+00 0.  1.
         11    1    3    3    0    0  0.23977084683E+01  0.22190304027E+02  0.10426274558E+02  0.24634646336E+02  0.51100000000E-03 0. -1.
        -11    1    3    3    0    0  0.15089152377E+02 -0.22538793566E+02  0.48388181259E+01  0.27551658679E+02  0.51100000000E-03 0.  1.
        -12    1    3    3    0    0 -0.19982785147E+02  0.99778492842E+00  0.32829338102E+01  0.20275229503E+02  0.00000000000E+00 0.  1.
</event>
<event>
 7    1  0.1826069E-013  0.7246156E+02  0.7816164E-02  0.1226708E+00
        -11   -1    0    0    0    0  0.00000000000E+00  0.00000000000E+00  0.45593999997E+02  0.45594000000E+02  0.51100000000E-03 0.  1.
         11   -1    0    0    0    0 -0.00000000000E+00 -0.00000000000E+00 -0.45593999997E+02  0.45594000000E+02  0.51100000000E-03 0. -1.
    9900012    2    1    2    0    0 -0.43807899230E+00  0.91112851225E+01 -0.16354580562E+02  0.72461555192E+02  0.69999980327E+02 0.  0.
        -12    1    1    2    0    0  0.43807899230E+00 -0.91112851225E+01  0.16354580562E+02  0.18726444808E+02  0.00000000000E+00 0.  1.
         11    1    3    3    0    0  0.10947069599E+02 -0.15623449887E+02 -0.31760640554E+01  0.19339542454E+02  0.51100000000E-03 0.  1.
        -11    1    3    3    0    0 -0.10072696775E+02  0.36496868050E+02 -0.15756906368E+02  0.41009275735E+02  0.51100000000E-03 0. -1.
         12    1    3    3    0    0 -0.13124518163E+01 -0.11762133040E+02  0.25783898618E+01  0.12112737003E+02  0.00000000000E+00 0. -1.
</event>
<event>
 7    1  0.1826069E-013  0.7246156E+02  0.7816164E-02  0.1226708E+00
        -11   -1    0    0    0    0  0.00000000000E+00  0.00000000000E+00  0.45593999997E+02  0.45594000000E+02  0.51100000000E-03 0.  1.
         11   -1    0    0    0    0 -0.00000000000E+00 -0.00000000000E+00 -0.45593999997E+02  0.45594000000E+02  0.51100000000E-03 0. -1.
    9900012    2    1    2    0    0 -0.78750893846E+01  0.89969574527E+00 -0.16966231299E+02  0.72461561744E+02  0.69999988862E+02 0.  0.
        -12    1    1    2    0    0  0.78750893846E+01 -0.89969574527E+00  0.16966231299E+02  0.18726438256E+02  0.00000000000E+00 0.  1.
         11    1    3    3    0    0 -0.21284430048E+01 -0.16905711356E+02 -0.29241990867E+01  0.17288270204E+02  0.51100000000E-03 0. -1.
        -11    1    3    3    0    0 -0.97270944137E+01  0.24805352447E+02  0.11032004858E+02  0.28837943880E+02  0.51100000000E-03 0.  1.
        -12    1    3    3    0    0  0.39804480339E+01 -0.69999453457E+01 -0.25074037070E+02  0.26335347661E+02  0.00000000000E+00 0.  1.
</event>
<event>
 7    1  0.1826069E-013  0.7246154E+02  0.7816164E-02  0.1226708E+00
        -11   -1    0    0    0    0  0.00000000000E+00  0.00000000000E+00  0.45593999997E+02  0.45594000000E+02  0.51100000000E-03 0.  1.
         11   -1    0    0    0    0 -0.00000000000E+00 -0.00000000000E+00 -0.45593999997E+02  0.45594000000E+02  0.51100000000E-03 0. -1.
    9900012    2    1    2    0    0 -0.16170904229E+02 -0.15750853228E+01 -0.93113571736E+01  0.72461537179E+02  0.69999956862E+02 0.  0.
        -12    1    1    2    0    0  0.16170904229E+02  0.15750853228E+01  0.93113571736E+01  0.18726462821E+02  0.00000000000E+00 0.  1.
         11    1    3    3    0    0 -0.23739821790E+02  0.22682793303E+02 -0.22181257964E+02  0.39624442656E+02  0.51100000000E-03 0. -1.
        -11    1    3    3    0    0  0.10373091170E+02 -0.80639185737E+01  0.24158912140E+01  0.13359054375E+02  0.51100000000E-03 0.  1.
         12    1    3    3    0    0 -0.28041736082E+01 -0.16193960052E+02  0.10454009576E+02  0.19478040148E+02  0.00000000000E+00 0. -1.
</event>
<event>
 7    1  0.1826069E-013  0.7246157E+02  0.7816164E-02  0.1226708E+00
        -11   -1    0    0    0    0  0.00000000000E+00  0.00000000000E+00  0.45593999997E+02  0.45594000000E+02  0.51100000000E-03 0.  1.
         11   -1    0    0    0    0 -0.00000000000E+00 -0.00000000000E+00 -0.45593999997E+02  0.45594000000E+02  0.51100000000E-03 0. -1.
    9900012    2    1    2    0    0  0.72945204033E+01  0.97052024330E+01 -0.14257563014E+02  0.72461572543E+02  0.70000002930E+02 0.  0.
        -12    1    1    2    0    0 -0.72945204033E+01 -0.97052024330E+01  0.14257563014E+02  0.18726427457E+02  0.00000000000E+00 0.  1.
         11    1    3    3    0    0  0.25987704213E+02 -0.91591353779E+01 -0.18927936890E+02  0.33429288450E+02  0.51100000000E-03 0. -1.
        -11    1    3    3    0    0 -0.11134895860E+01  0.86972512176E+01  0.14129766708E+02  0.16629261718E+02  0.51100000000E-03 0.  1.
         12    1    3    3    0    0 -0.17579694223E+02  0.10167086593E+02 -0.94593928321E+01  0.22403022375E+02  0.00000000000E+00 0. -1.
</event>
<event>
 7    1  0.1826069E-013  0.7246145E+02  0.7816164E-02  0.1226708E+00
        -11   -1    0    0    0    0  0.00000000000E+00  0.00000000000E+00  0.45593999997E+02  0.45594000000E+02  0.51100000000E-03 0. -1.
         11   -1    0    0    0    0 -0.00000000000E+00 -0.00000000000E+00 -0.45593999997E+02  0.45594000000E+02  0.51100000000E-03 0.  1.
    9900012    2    1    2    0    0 -0.12011698106E+02  0.12078321998E+02  0.77792605620E+01  0.72461450703E+02  0.69999844210E+02 0.  0.
        -12    1    1    2    0    0  0.12011698106E+02 -0.12078321998E+02 -0.77792605620E+01  0.18726549297E+02  0.00000000000E+00 0.  1.
         11    1    3    3    0    0  0.24511531549E+02  0.10585425111E+02  0.60275415277E+01  0.27371475313E+02  0.51100000000E-03 0. -1.
        -11    1    3    3    0    0 -0.26334865952E+02  0.10534689827E+02  0.88725380178E+01  0.29719131643E+02  0.51100000000E-03 0.  1.
         12    1    3    3    0    0 -0.10188363703E+02 -0.90417929400E+01 -0.71208189835E+01  0.15370843748E+02  0.00000000000E+00 0. -1.
</event>
<event>
 7    1  0.1826069E-013  0.7246158E+02  0.7816164E-02  0.1226708E+00
        -11   -1    0    0    0    0  0.00000000000E+00  0.00000000000E+00  0.45593999997E+02  0.45594000000E+02  0.51100000000E-03 0.  1.
         11   -1    0    0    0    0 -0.00000000000E+00 -0.00000000000E+00 -0.45593999997E+02  0.45594000000E+02  0.51100000000E-03 0. -1.
    9900012    2    1    2    0    0  0.17630055974E+01 -0.12945776431E+02 -0.13415568505E+02  0.72461580309E+02  0.70000013046E+02 0.  0.
        -12    1    1    2    0    0 -0.17630055974E+01  0.12945776431E+02  0.13415568505E+02  0.18726419691E+02  0.00000000000E+00 0.  1.
         11    1    3    3    0    0  0.26686235396E+02 -0.12198088110E+02 -0.24140905530E+02  0.37996471326E+02  0.51100000000E-03 0. -1.
        -11    1    3    3    0    0 -0.14640342034E+02 -0.96001102741E+01  0.56883268467E+00  0.17516429517E+02  0.51100000000E-03 0.  1.
         12    1    3    3    0    0 -0.10282887765E+02  0.88524219527E+01  0.10156504341E+02  0.16948679466E+02  0.00000000000E+00 0. -1.
</event>
<event>
 7    1  0.1826069E-013  0.7246155E+02  0.7816164E-02  0.1226708E+00
        -11   -1    0    0    0    0  0.00000000000E+00  0.00000000000E+00  0.45593999997E+02  0.45594000000E+02  0.51100000000E-03 0. -1.
         11   -1    0    0    0    0 -0.00000000000E+00 -0.00000000000E+00 -0.45593999997E+02  0.45594000000E+02  0.51100000000E-03 0.  1.
    9900012    2    1    2    0    0  0.45824411406E+01  0.14724689331E+02  0.10623786504E+02  0.72461545921E+02  0.69999968249E+02 0.  0.
        -12    1    1    2    0    0 -0.45824411406E+01 -0.14724689331E+02 -0.10623786504E+02  0.18726454079E+02  0.00000000000E+00 0.  1.
         11    1    3    3    0    0 -0.16850625357E+02 -0.59674332382E+01  0.10809254891E+02  0.20890041310E+02  0.51100000000E-03 0. -1.
        -11    1    3    3    0    0  0.43318928014E+01  0.29750084215E+02 -0.73271910369E+01  0.30943828703E+02  0.51100000000E-03 0.  1.
         12    1    3    3    0    0  0.17101173696E+02 -0.90579616458E+01  0.71417226506E+01  0.20627675908E+02  0.00000000000E+00 0. -1.
</event>
<event>
 7    1  0.1826069E-013  0.7246155E+02  0.7816164E-02  0.1226708E+00
        -11   -1    0    0    0    0  0.00000000000E+00  0.00000000000E+00  0.45593999997E+02  0.45594000000E+02  0.51100000000E-03 0.  1.
         11   -1    0    0    0    0 -0.00000000000E+00 -0.00000000000E+00 -0.45593999997E+02  0.45594000000E+02  0.51100000000E-03 0. -1.
    9900012    2    1    2    0    0 -0.18490443323E+02 -0.29529807393E+01 -0.25173336668E+00  0.72461549209E+02  0.69999972533E+02 0.  0.
        -12    1    1    2    0    0  0.18490443323E+02  0.29529807393E+01  0.25173336668E+00  0.18726450791E+02  0.00000000000E+00 0.  1.
         11    1    3    3    0    0 -0.11303452532E+00 -0.17319925434E+02  0.26459175336E+02  0.31624050239E+02  0.51100000000E-03 0. -1.
        -11    1    3    3    0    0 -0.10751187198E+02  0.16101955540E+02 -0.87482564115E+01  0.21246011128E+02  0.51100000000E-03 0.  1.
         12    1    3    3    0    0 -0.76262215999E+01 -0.17350108449E+01 -0.17962652291E+02  0.19591487841E+02  0.00000000000E+00 0. -1.
</event>
<event>
 7    1  0.1826069E-013  0.7246160E+02  0.7816164E-02  0.1226708E+00
        -11   -1    0    0    0    0  0.00000000000E+00  0.00000000000E+00  0.45593999997E+02  0.45594000000E+02  0.51100000000E-03 0.  1.
         11   -1    0    0    0    0 -0.00000000000E+00 -0.00000000000E+00 -0.45593999997E+02  0.45594000000E+02  0.51100000000E-03 0. -1.
    9900012    2    1    2    0    0 -0.66456117269E+01 -0.40993017016E+01 -0.17020857877E+02  0.72461600653E+02  0.70000039547E+02 0.  0.
        -12    1    1    2    0    0  0.66456117269E+01  0.40993017016E+01  0.17020857877E+02  0.18726399347E+02  0.00000000000E+00 0.  1.
         11    1    3    3    0    0  0.22396851822E+01  0.48835965835E+01 -0.56285178565E+01  0.77811258072E+01  0.51100000000E-03 0. -1.
        -11    1    3    3    0    0 -0.70028813947E+01 -0.32458153712E+02 -0.20952991635E+02  0.39263213686E+02  0.51100000000E-03 0.  1.
        -12    1    3    3    0    0 -0.18824155145E+01  0.23475255427E+02  0.95606516145E+01  0.25417261159E+02  0.00000000000E+00 0.  1.
</event>
<event>
 7    1  0.1826069E-013  0.7246157E+02  0.7816164E-02  0.1226708E+00
        -11   -1    0    0    0    0  0.00000000000E+00  0.00000000000E+00  0.45593999997E+02  0.45594000000E+02  0.51100000000E-03 0. -1.
         11   -1    0    0    0    0 -0.00000000000E+00 -0.00000000000E+00 -0.45593999997E+02  0.45594000000E+02  0.51100000000E-03 0.  1.
    9900012    2    1    2    0    0 -0.14798450551E+02 -0.11102414005E+02  0.29019699753E+01  0.72461570410E+02  0.70000000151E+02 0.  0.
        -12    1    1    2    0    0  0.14798450551E+02  0.11102414005E+02 -0.29019699753E+01  0.18726429590E+02  0.00000000000E+00 0.  1.
         11    1    3    3    0    0  0.13488274296E+02  0.10870140831E+02 -0.12417154667E+02  0.21313827330E+02  0.51100000000E-03 0.  1.
        -11    1    3    3    0    0 -0.32856907250E+02 -0.82372438965E+01  0.74953943081E+01  0.34693075348E+02  0.51100000000E-03 0. -1.
        -12    1    3    3    0    0  0.45701824024E+01 -0.13735310940E+02  0.78237303344E+01  0.16454667731E+02  0.00000000000E+00 0.  1.
</event>
<event>
 7    1  0.1826069E-013  0.7246159E+02  0.7816164E-02  0.1226708E+00
        -11   -1    0    0    0    0  0.00000000000E+00  0.00000000000E+00  0.45593999997E+02  0.45594000000E+02  0.51100000000E-03 0.  1.
         11   -1    0    0    0    0 -0.00000000000E+00 -0.00000000000E+00 -0.45593999997E+02  0.45594000000E+02  0.51100000000E-03 0. -1.
    9900012    2    1    2    0    0  0.78818735350E+01  0.16730585721E+02  0.29397324787E+01  0.72461589345E+02  0.70000024817E+02 0.  0.
        -12    1    1    2    0    0 -0.78818735350E+01 -0.16730585721E+02 -0.29397324787E+01  0.18726410655E+02  0.00000000000E+00 0.  1.
         11    1    3    3    0    0  0.63200426917E+01 -0.26841882328E+02  0.10114596776E+01  0.27594431277E+02  0.51100000000E-03 0. -1.
        -11    1    3    3    0    0  0.11756461203E+01  0.21205683960E+01  0.23988589070E+01  0.34107885362E+01  0.51100000000E-03 0.  1.
         12    1    3    3    0    0  0.38618472300E+00  0.41451899653E+02 -0.47058610586E+00  0.41456369532E+02  0.00000000000E+00 0. -1.
</event>
<event>
 7    1  0.1826069E-013  0.7246160E+02  0.7816164E-02  0.1226708E+00
        -11   -1    0    0    0    0  0.00000000000E+00  0.00000000000E+00  0.45593999997E+02  0.45594000000E+02  0.51100000000E-03 0. -1.
         11   -1    0    0    0    0 -0.00000000000E+00 -0.00000000000E+00 -0.45593999997E+02  0.45594000000E+02  0.51100000000E-03 0.  1.
    9900012    2    1    2    0    0  0.28337078533E+01 -0.14266170558E+02  0.11795111895E+02  0.72461596523E+02  0.70000034167E+02 0.  0.
        -12    1    1    2    0    0 -0.28337078533E+01  0.14266170558E+02 -0.11795111895E+02  0.18726403477E+02  0.00000000000E+00 0.  1.
         11    1    3    3    0    0 -0.48347891524E+01 -0.23063654445E+02 -0.10728807424E+02  0.25892366665E+02  0.51100000000E-03 0. -1.
        -11    1    3    3    0    0  0.18393324998E+02  0.68269403025E+01  0.28139507301E+02  0.34303839286E+02  0.51100000000E-03 0.  1.
         12    1    3    3    0    0 -0.10724827992E+02  0.19705435850E+01 -0.56155879818E+01  0.12265390571E+02  0.00000000000E+00 0. -1.
</event>
<event>
 7    1  0.3104846E-013  0.7246155E+02  0.7816164E-02  0.1226708E+00
        -11   -1    0    0    0    0  0.00000000000E+00  0.00000000000E+00  0.45593999997E+02  0.45594000000E+02  0.51100000000E-03 0.  1.
         11   -1    0    0    0    0 -0.00000000000E+00 -0.00000000000E+00 -0.45593999997E+02  0.45594000000E+02  0.51100000000E-03 0. -1.
    9900012    2    1    2    0    0  0.94832106246E+01 -0.15216937118E+02 -0.54030829030E+01  0.72461554425E+02  0.69999979328E+02 0.  0.
        -12    1    1    2    0    0 -0.94832106246E+01  0.15216937118E+02  0.54030829030E+01  0.18726445575E+02  0.00000000000E+00 0.  1.
         11    1    3    3    0    0 -0.24150221230E+02  0.53506583136E+00 -0.25894034871E+01  0.24294536250E+02  0.51100000000E-03 0. -1.
        -11    1    3    3    0    0  0.15892734913E+02 -0.99746631926E+01  0.13714470236E+02  0.23241334362E+02  0.51100000000E-03 0.  1.
         12    1    3    3    0    0  0.17740696941E+02 -0.57773397569E+01 -0.16528149652E+02  0.24925683813E+02  0.00000000000E+00 0. -1.
</event>
<event>
 7    1  0.1826069E-013  0.7246158E+02  0.7816164E-02  0.1226708E+00
        -11   -1    0    0    0    0  0.00000000000E+00  0.00000000000E+00  0.45593999997E+02  0.45594000000E+02  0.51100000000E-03 0.  1.
         11   -1    0    0    0    0 -0.00000000000E+00 -0.00000000000E+00 -0.45593999997E+02  0.45594000000E+02  0.51100000000E-03 0. -1.
    9900012    2    1    2    0    0 -0.50301151646E-01  0.76775798560E+00 -0.18710605210E+02  0.72461582034E+02  0.70000015293E+02 0.  0.
        -12    1    1    2    0    0  0.50301151646E-01 -0.76775798560E+00  0.18710605210E+02  0.18726417966E+02  0.00000000000E+00 0.  1.
         11    1    3    3    0    0  0.25427362327E+01 -0.70002793741E+01  0.42628863175E+01  0.85814695060E+01  0.51100000000E-03 0. -1.
        -11    1    3    3    0    0 -0.29623120020E+02  0.11958918122E+02 -0.91388995018E+01  0.33227465247E+02  0.51100000000E-03 0.  1.
        -12    1    3    3    0    0  0.27030082635E+02 -0.41908807627E+01 -0.13834592025E+02  0.30652647281E+02  0.00000000000E+00 0.  1.
</event>
<event>
 7    1  0.1826069E-013  0.7246159E+02  0.7816164E-02  0.1226708E+00
        -11   -1    0    0    0    0  0.00000000000E+00  0.00000000000E+00  0.45593999997E+02  0.45594000000E+02  0.51100000000E-03 0.  1.
         11   -1    0    0    0    0 -0.00000000000E+00 -0.00000000000E+00 -0.45593999997E+02  0.45594000000E+02  0.51100000000E-03 0. -1.
    9900012    2    1    2    0    0  0.11188993275E+02 -0.13771256825E+02 -0.59864305861E+01  0.72461589874E+02  0.70000025506E+02 0.  0.
        -12    1    1    2    0    0 -0.11188993275E+02  0.13771256825E+02  0.59864305861E+01  0.18726410126E+02  0.00000000000E+00 0.  1.
         11    1    3    3    0    0 -0.14104830404E+02 -0.77624213947E+01  0.83592316030E+01  0.18140512118E+02  0.51100000000E-03 0.  1.
        -11    1    3    3    0    0  0.34014704286E+02 -0.17059406067E+02 -0.80247278705E+01  0.38889840585E+02  0.51100000000E-03 0. -1.
         12    1    3    3    0    0 -0.87208806072E+01  0.11050570637E+02 -0.63209343186E+01  0.15431237171E+02  0.00000000000E+00 0. -1.
</event>
<event>
 7    1  0.1826069E-013  0.7246155E+02  0.7816164E-02  0.1226708E+00
        -11   -1    0    0    0    0  0.00000000000E+00  0.00000000000E+00  0.45593999997E+02  0.45594000000E+02  0.51100000000E-03 0. -1.
         11   -1    0    0    0    0 -0.00000000000E+00 -0.00000000000E+00 -0.45593999997E+02  0.45594000000E+02  0.51100000000E-03 0.  1.
    9900012    2    1    2    0    0 -0.52488007133E+01  0.11696044620E+02  0.13650362727E+02  0.72461554228E+02  0.69999979070E+02 0.  0.
        -12    1    1    2    0    0  0.52488007133E+01 -0.11696044620E+02 -0.13650362727E+02  0.18726445772E+02  0.00000000000E+00 0.  1.
         11    1    3    3    0    0  0.24280873415E+01 -0.15596529127E+02  0.21309577879E+02  0.26518775209E+02  0.51100000000E-03 0. -1.
        -11    1    3    3    0    0  0.12291106390E+02  0.78628828389E+01 -0.10443067281E+02  0.17943073241E+02  0.51100000000E-03 0.  1.
         12    1    3    3    0    0 -0.19967994445E+02  0.19429690908E+02  0.27838521292E+01  0.27999705778E+02  0.00000000000E+00 0. -1.
</event>
<event>
 7    1  0.1826069E-013  0.7246158E+02  0.7816164E-02  0.1226708E+00
        -11   -1    0    0    0    0  0.00000000000E+00  0.00000000000E+00  0.45593999997E+02  0.45594000000E+02  0.51100000000E-03 0. -1.
         11   -1    0    0    0    0 -0.00000000000E+00 -0.00000000000E+00 -0.45593999997E+02  0.45594000000E+02  0.51100000000E-03 0.  1.
    9900012    2    1    2    0    0  0.13688020966E+02 -0.11521200422E+02  0.55298040147E+01  0.72461582575E+02  0.70000015998E+02 0.  0.
        -12    1    1    2    0    0 -0.13688020966E+02  0.11521200422E+02 -0.55298040147E+01  0.18726417425E+02  0.00000000000E+00 0.  1.
         11    1    3    3    0    0  0.50763771003E+01 -0.19395642886E+02 -0.15846289118E+02  0.25555145206E+02  0.51100000000E-03 0. -1.
        -11    1    3    3    0    0  0.10779890493E+02 -0.12043977515E+02  0.21464896123E+02  0.26870154433E+02  0.51100000000E-03 0.  1.
        -12    1    3    3    0    0 -0.21682466282E+01  0.19918419979E+02 -0.88802989886E-01  0.20036282936E+02  0.00000000000E+00 0.  1.
</event>
<event>
 7    1  0.1826069E-013  0.7246163E+02  0.7816164E-02  0.1226708E+00
        -11   -1    0    0    0    0  0.00000000000E+00  0.00000000000E+00  0.45593999997E+02  0.45594000000E+02  0.51100000000E-03 0.  1.
         11   -1    0    0    0    0 -0.00000000000E+00 -0.00000000000E+00 -0.45593999997E+02  0.45594000000E+02  0.51100000000E-03 0. -1.
    9900012    2    1    2    0    0  0.73425005165E+01  0.16762318372E+02  0.39735694478E+01  0.72461631287E+02  0.70000079454E+02 0.  0.
        -12    1    1    2    0    0 -0.73425005165E+01 -0.16762318372E+02 -0.39735694478E+01  0.18726368713E+02  0.00000000000E+00 0.  1.
         11    1    3    3    0    0  0.10687263298E+02  0.10719813631E+02 -0.85183571261E+01  0.17369352592E+02  0.51100000000E-03 0. -1.
        -11    1    3    3    0    0 -0.13946772910E+02 -0.16708371849E+02 -0.74824558722E+01  0.23014545631E+02  0.51100000000E-03 0.  1.
        -12    1    3    3    0    0  0.10602010128E+02  0.22750876590E+02  0.19974382446E+02  0.32077733063E+02  0.00000000000E+00 0.  1.
</event>
<event>
 7    1  0.1826069E-013  0.7246158E+02  0.7816164E-02  0.1226708E+00
        -11   -1    0    0    0    0  0.00000000000E+00  0.00000000000E+00  0.45593999997E+02  0.45594000000E+02  0.51100000000E-03 0.  1.
         11   -1    0    0    0    0 -0.00000000000E+00 -0.00000000000E+00 -0.45593999997E+02  0.45594000000E+02  0.51100000000E-03 0. -1.
    9900012    2    1    2    0    0 -0.29059781571E+01  0.18499389869E+02 -0.82322359543E-01  0.72461577183E+02  0.70000008973E+02 0.  0.
        -12    1    1    2    0    0  0.29059781571E+01 -0.18499389869E+02  0.82322359543E-01  0.18726422817E+02  0.00000000000E+00 0.  1.
         11    1    3    3    0    0  0.13432999416E+02  0.23250316276E+02  0.17790595337E+02  0.32210680883E+02  0.51100000000E-03 0. -1.
        -11    1    3    3    0    0  0.29239255863E+01 -0.12886317064E+02 -0.13495126546E+02  0.18887163605E+02  0.51100000000E-03 0.  1.
        -12    1    3    3    0    0 -0.19262903159E+02  0.81353906567E+01 -0.43777911512E+01  0.21363732694E+02  0.00000000000E+00 0.  1.
</event>
<event>
 7    1  0.1826069E-013  0.7246156E+02  0.7816164E-02  0.1226708E+00
        -11   -1    0    0    0    0  0.00000000000E+00  0.00000000000E+00  0.45593999997E+02  0.45594000000E+02  0.51100000000E-03 0.  1.
         11   -1    0    0    0    0 -0.00000000000E+00 -0.00000000000E+00 -0.45593999997E+02  0.45594000000E+02  0.51100000000E-03 0. -1.
    9900012    2    1    2    0    0  0.44855009692E+01 -0.18072867217E+02 -0.19827272490E+01  0.72461562652E+02  0.69999990045E+02 0.  0.
        -12    1    1    2    0    0 -0.44855009692E+01  0.18072867217E+02  0.19827272490E+01  0.18726437348E+02  0.00000000000E+00 0.  1.
         11    1    3    3    0    0  0.11510416952E+02  0.96440937062E+01 -0.12715890717E+02  0.19677197941E+02  0.51100000000E-03 0. -1.
        -11    1    3    3    0    0 -0.12178869318E+02 -0.26631232346E+00  0.19947809799E+02  0.23373294508E+02  0.51100000000E-03 0.  1.
         12    1    3    3    0    0  0.51539533349E+01 -0.27450648600E+02 -0.92146463306E+01  0.29411070204E+02  0.00000000000E+00 0. -1.
</event>
<event>
 7    1  0.1826069E-013  0.7246157E+02  0.7816164E-02  0.1226708E+00
        -11   -1    0    0    0    0  0.00000000000E+00  0.00000000000E+00  0.45593999997E+02  0.45594000000E+02  0.51100000000E-03 0.  1.
         11   -1    0    0    0    0 -0.00000000000E+00 -0.00000000000E+00 -0.45593999997E+02  0.45594000000E+02  0.51100000000E-03 0. -1.
    9900012    2    1    2    0    0  0.18507883954E+01 -0.75667858175E+01 -0.17029308399E+02  0.72461574558E+02  0.70000005554E+02 0.  0.
        -12    1    1    2    0    0 -0.18507883954E+01  0.75667858175E+01  0.17029308399E+02  0.18726425442E+02  0.00000000000E+00 0.  1.
         11    1    3    3    0    0  0.48220763318E+01  0.17391626385E+02  0.53059743973E+01  0.18811551054E+02  0.51100000000E-03 0. -1.
        -11    1    3    3    0    0  0.13468199956E+02 -0.28344841695E+02 -0.10421895559E+02  0.33067179621E+02  0.51100000000E-03 0.  1.
        -12    1    3    3    0    0 -0.16439487892E+02  0.33864294926E+01 -0.11913387237E+02  0.20582843883E+02  0.00000000000E+00 0.  1.
</event>
<event>
 7    1  0.1826069E-013  0.7246157E+02  0.7816164E-02  0.1226708E+00
        -11   -1    0    0    0    0  0.00000000000E+00  0.00000000000E+00  0.45593999997E+02  0.45594000000E+02  0.51100000000E-03 0. -1.
         11   -1    0    0    0    0 -0.00000000000E+00 -0.00000000000E+00 -0.45593999997E+02  0.45594000000E+02  0.51100000000E-03 0.  1.
    9900012    2    1    2    0    0  0.11495375426E+02  0.13026179774E+02  0.69895828562E+01  0.72461567233E+02  0.69999996012E+02 0.  0.
        -12    1    1    2    0    0 -0.11495375426E+02 -0.13026179774E+02 -0.69895828562E+01  0.18726432767E+02  0.00000000000E+00 0.  1.
         11    1    3    3    0    0  0.44318551967E+01  0.52741989956E+01 -0.25484661352E+02  0.26399365144E+02  0.51100000000E-03 0.  1.
        -11    1    3    3    0    0  0.11169633509E+01  0.77106678836E+01  0.37484860720E+02  0.38285986859E+02  0.51100000000E-03 0. -1.
         12    1    3    3    0    0  0.59465568786E+01  0.41312894459E-01 -0.50106165120E+01  0.77762152295E+01  0.00000000000E+00 0. -1.
</event>
<event>
 7    1  0.1826069E-013  0.7246158E+02  0.7816164E-02  0.1226708E+00
        -11   -1    0    0    0    0  0.00000000000E+00  0.00000000000E+00  0.45593999997E+02  0.45594000000E+02  0.51100000000E-03 0.  1.
         11   -1    0    0    0    0 -0.00000000000E+00 -0.00000000000E+00 -0.45593999997E+02  0.45594000000E+02  0.51100000000E-03 0. -1.
    9900012    2    1    2    0    0 -0.85373516417E+01 -0.54317595921E+01  0.15757170179E+02  0.72461580231E+02  0.70000012945E+02 0.  0.
        -12    1    1    2    0    0  0.85373516417E+01  0.54317595921E+01 -0.15757170179E+02  0.18726419769E+02  0.00000000000E+00 0.  1.
         11    1    3    3    0    0 -0.69184652298E+01  0.50736829060E+01 -0.76803487797E+01  0.11514997916E+02  0.51100000000E-03 0. -1.
        -11    1    3    3    0    0  0.15557186219E+02 -0.45736348803E+01  0.35573598823E+02  0.39095077856E+02  0.51100000000E-03 0.  1.
        -12    1    3    3    0    0 -0.17176072631E+02 -0.59318076177E+01 -0.12136079865E+02  0.21851504459E+02  0.00000000000E+00 0.  1.
</event>
<event>
 7    1  0.1826069E-013  0.7246157E+02  0.7816164E-02  0.1226708E+00
        -11   -1    0    0    0    0  0.00000000000E+00  0.00000000000E+00  0.45593999997E+02  0.45594000000E+02  0.51100000000E-03 0. -1.
         11   -1    0    0    0    0 -0.00000000000E+00 -0.00000000000E+00 -0.45593999997E+02  0.45594000000E+02  0.51100000000E-03 0.  1.
    9900012    2    1    2    0    0  0.57355895597E+01  0.17495659847E+02  0.34182021451E+01  0.72461569294E+02  0.69999998697E+02 0.  0.
        -12    1    1    2    0    0 -0.57355895597E+01 -0.17495659847E+02 -0.34182021451E+01  0.18726430706E+02  0.00000000000E+00 0.  1.
         11    1    3    3    0    0  0.16716100478E+02  0.12079064480E+02  0.26850754891E+01  0.20797630743E+02  0.51100000000E-03 0. -1.
        -11    1    3    3    0    0 -0.30407550792E+02 -0.32107325449E+00 -0.45047050574E+01  0.30741089784E+02  0.51100000000E-03 0.  1.
        -12    1    3    3    0    0  0.19427039874E+02  0.57376686208E+01  0.52378317133E+01  0.20922848767E+02  0.00000000000E+00 0.  1.
</event>
<event>
 7    1  0.1826069E-013  0.7246157E+02  0.7816164E-02  0.1226708E+00
        -11   -1    0    0    0    0  0.00000000000E+00  0.00000000000E+00  0.45593999997E+02  0.45594000000E+02  0.51100000000E-03 0.  1.
         11   -1    0    0    0    0 -0.00000000000E+00 -0.00000000000E+00 -0.45593999997E+02  0.45594000000E+02  0.51100000000E-03 0. -1.
    9900012    2    1    2    0    0  0.56218801324E+01  0.14916034105E+02 -0.98277971655E+01  0.72461569300E+02  0.69999998704E+02 0.  0.
        -12    1    1    2    0    0 -0.56218801324E+01 -0.14916034105E+02  0.98277971655E+01  0.18726430700E+02  0.00000000000E+00 0.  1.
         11    1    3    3    0    0  0.11933773782E+02  0.17517338488E+02 -0.33608373272E+02  0.39734051626E+02  0.51100000000E-03 0. -1.
        -11    1    3    3    0    0  0.74797538357E+01 -0.41381175408E+01  0.10238858396E+02  0.13338101654E+02  0.51100000000E-03 0.  1.
         12    1    3    3    0    0 -0.13791647485E+02  0.15368131575E+01  0.13541717711E+02  0.19389416020E+02  0.00000000000E+00 0. -1.
</event>
<event>
 7    1  0.1826069E-013  0.7246158E+02  0.7816164E-02  0.1226708E+00
        -11   -1    0    0    0    0  0.00000000000E+00  0.00000000000E+00  0.45593999997E+02  0.45594000000E+02  0.51100000000E-03 0.  1.
         11   -1    0    0    0    0 -0.00000000000E+00 -0.00000000000E+00 -0.45593999997E+02  0.45594000000E+02  0.51100000000E-03 0. -1.
    9900012    2    1    2    0    0 -0.12360044087E+02  0.83067162073E+01 -0.11353703863E+02  0.72461579749E+02  0.70000012317E+02 0.  0.
        -12    1    1    2    0    0  0.12360044087E+02 -0.83067162073E+01  0.11353703863E+02  0.18726420251E+02  0.00000000000E+00 0.  1.
         11    1    3    3    0    0  0.64833551115E+01 -0.27717852278E+02 -0.68926272523E+00  0.28474344799E+02  0.51100000000E-03 0. -1.
        -11    1    3    3    0    0 -0.11099489540E+01  0.13085436018E+02 -0.11410629413E+00  0.13132922103E+02  0.51100000000E-03 0.  1.
         12    1    3    3    0    0 -0.17733450245E+02  0.22939132467E+02 -0.10550334844E+02  0.30854312847E+02  0.00000000000E+00 0. -1.
</event>
<event>
 7    1  0.1826069E-013  0.7246156E+02  0.7816164E-02  0.1226708E+00
        -11   -1    0    0    0    0  0.00000000000E+00  0.00000000000E+00  0.45593999997E+02  0.45594000000E+02  0.51100000000E-03 0.  1.
         11   -1    0    0    0    0 -0.00000000000E+00 -0.00000000000E+00 -0.45593999997E+02  0.45594000000E+02  0.51100000000E-03 0. -1.
    9900012    2    1    2    0    0  0.23582169717E+01 -0.93507017484E+01 -0.16052498332E+02  0.72461561119E+02  0.69999988047E+02 0.  0.
        -12    1    1    2    0    0 -0.23582169717E+01  0.93507017484E+01  0.16052498332E+02  0.18726438881E+02  0.00000000000E+00 0.  1.
         11    1    3    3    0    0  0.15406465819E+01 -0.21165779617E+02  0.44190743677E+01  0.21676993270E+02  0.51100000000E-03 0.  1.
        -11    1    3    3    0    0 -0.17413737076E+02 -0.10388769825E+01 -0.22403208292E+02  0.28394035401E+02  0.51100000000E-03 0. -1.
        -12    1    3    3    0    0  0.18231307466E+02  0.12853954851E+02  0.19316355921E+01  0.22390532448E+02  0.00000000000E+00 0.  1.
</event>
<event>
 7    1  0.1826069E-013  0.7246150E+02  0.7816164E-02  0.1226708E+00
        -11   -1    0    0    0    0  0.00000000000E+00  0.00000000000E+00  0.45593999997E+02  0.45594000000E+02  0.51100000000E-03 0.  1.
         11   -1    0    0    0    0 -0.00000000000E+00 -0.00000000000E+00 -0.45593999997E+02  0.45594000000E+02  0.51100000000E-03 0. -1.
    9900012    2    1    2    0    0  0.10017312769E+02 -0.15742142606E+02  0.15875652020E+01  0.72461495462E+02  0.69999902517E+02 0.  0.
        -12    1    1    2    0    0 -0.10017312769E+02  0.15742142606E+02 -0.15875652020E+01  0.18726504538E+02  0.00000000000E+00 0.  1.
         11    1    3    3    0    0 -0.12123895276E+02  0.12848789530E+02 -0.50026257004E+01  0.18360460049E+02  0.51100000000E-03 0. -1.
        -11    1    3    3    0    0  0.80452146515E+01 -0.36177828206E+02  0.77568548289E+00  0.37069696798E+02  0.51100000000E-03 0.  1.
        -12    1    3    3    0    0  0.14095993394E+02  0.75868960698E+01  0.58145054195E+01  0.17031338615E+02  0.00000000000E+00 0.  1.
</event>
<event>
 7    1  0.1826069E-013  0.7246159E+02  0.7816164E-02  0.1226708E+00
        -11   -1    0    0    0    0  0.00000000000E+00  0.00000000000E+00  0.45593999997E+02  0.45594000000E+02  0.51100000000E-03 0. -1.
         11   -1    0    0    0    0 -0.00000000000E+00 -0.00000000000E+00 -0.45593999997E+02  0.45594000000E+02  0.51100000000E-03 0.  1.
    9900012    2    1    2    0    0 -0.18112668270E+02 -0.36006602177E+01  0.31056425426E+01  0.72461587598E+02  0.70000022541E+02 0.  0.
        -12    1    1    2    0    0  0.18112668270E+02  0.36006602177E+01 -0.31056425426E+01  0.18726412402E+02  0.00000000000E+00 0.  1.
         11    1    3    3    0    0 -0.68187997769E+01 -0.22288289387E+02  0.36473088519E+01  0.23591666671E+02  0.51100000000E-03 0. -1.
        -11    1    3    3    0    0 -0.63966555701E+00  0.31270015254E+02  0.45695544893E+01  0.31608604122E+02  0.51100000000E-03 0.  1.
        -12    1    3    3    0    0 -0.10654202936E+02 -0.12582386085E+02 -0.51112207987E+01  0.17261316805E+02  0.00000000000E+00 0.  1.
</event>
<event>
 7    1  0.1826069E-013  0.7246145E+02  0.7816164E-02  0.1226708E+00
        -11   -1    0    0    0    0  0.00000000000E+00  0.00000000000E+00  0.45593999997E+02  0.45594000000E+02  0.51100000000E-03 0.  1.
         11   -1    0    0    0    0 -0.00000000000E+00 -0.00000000000E+00 -0.45593999997E+02  0.45594000000E+02  0.51100000000E-03 0. -1.
    9900012    2    1    2    0    0 -0.12717275110E+02 -0.42870659332E+01  0.13060462815E+02  0.72461449077E+02  0.69999842091E+02 0.  0.
        -12    1    1    2    0    0  0.12717275110E+02  0.42870659332E+01 -0.13060462815E+02  0.18726550923E+02  0.00000000000E+00 0.  1.
         11    1    3    3    0    0 -0.22203748912E+02 -0.56740993570E+01 -0.18834184806E+02  0.29663586884E+02  0.51100000000E-03 0. -1.
        -11    1    3    3    0    0 -0.44926542816E+01 -0.79332497036E+01  0.20671827150E+02  0.22593026166E+02  0.51100000000E-03 0.  1.
         12    1    3    3    0    0  0.13979128083E+02  0.93202831274E+01  0.11222820470E+02  0.20204836026E+02  0.00000000000E+00 0. -1.
</event>
<event>
 7    1  0.1826069E-013  0.7246155E+02  0.7816164E-02  0.1226708E+00
        -11   -1    0    0    0    0  0.00000000000E+00  0.00000000000E+00  0.45593999997E+02  0.45594000000E+02  0.51100000000E-03 0. -1.
         11   -1    0    0    0    0 -0.00000000000E+00 -0.00000000000E+00 -0.45593999997E+02  0.45594000000E+02  0.51100000000E-03 0.  1.
    9900012    2    1    2    0    0 -0.60314917899E+01  0.16525488880E+02 -0.64194499610E+01  0.72461547754E+02  0.69999970637E+02 0.  0.
        -12    1    1    2    0    0  0.60314917899E+01 -0.16525488880E+02  0.64194499610E+01  0.18726452246E+02  0.00000000000E+00 0.  1.
         11    1    3    3    0    0 -0.14359071095E+02 -0.47415189842E+01 -0.28595813888E+02  0.32347882422E+02  0.51100000000E-03 0. -1.
        -11    1    3    3    0    0  0.13747098490E+02  0.40172012562E+01  0.49863137225E+01  0.15165221648E+02  0.51100000000E-03 0.  1.
         12    1    3    3    0    0 -0.54195191852E+01  0.17249806608E+02  0.17190050205E+02  0.24948443684E+02  0.00000000000E+00 0. -1.
</event>
<event>
 7    1  0.1826069E-013  0.7246150E+02  0.7816164E-02  0.1226708E+00
        -11   -1    0    0    0    0  0.00000000000E+00  0.00000000000E+00  0.45593999997E+02  0.45594000000E+02  0.51100000000E-03 0.  1.
         11   -1    0    0    0    0 -0.00000000000E+00 -0.00000000000E+00 -0.45593999997E+02  0.45594000000E+02  0.51100000000E-03 0. -1.
    9900012    2    1    2    0    0 -0.17416791236E+02  0.68350354049E+00  0.68461544588E+01  0.72461504735E+02  0.69999914597E+02 0.  0.
        -12    1    1    2    0    0  0.17416791236E+02 -0.68350354049E+00 -0.68461544588E+01  0.18726495265E+02  0.00000000000E+00 0.  1.
         11    1    3    3    0    0 -0.13372558019E+02  0.16933418338E+02  0.25996341214E+01  0.21733017793E+02  0.51100000000E-03 0. -1.
        -11    1    3    3    0    0  0.41798809108E+01 -0.19726571247E+02 -0.17828641092E+02  0.26915970372E+02  0.51100000000E-03 0.  1.
        -12    1    3    3    0    0 -0.82241141277E+01  0.34766564496E+01  0.22075161430E+02  0.23812516570E+02  0.00000000000E+00 0.  1.
</event>
<event>
 7    1  0.1826069E-013  0.7246168E+02  0.7816164E-02  0.1226708E+00
        -11   -1    0    0    0    0  0.00000000000E+00  0.00000000000E+00  0.45593999997E+02  0.45594000000E+02  0.51100000000E-03 0.  1.
         11   -1    0    0    0    0 -0.00000000000E+00 -0.00000000000E+00 -0.45593999997E+02  0.45594000000E+02  0.51100000000E-03 0. -1.
    9900012    2    1    2    0    0  0.33845454016E+00  0.23330992181E+01 -0.18577332271E+02  0.72461676876E+02  0.70000138843E+02 0.  0.
        -12    1    1    2    0    0 -0.33845454016E+00 -0.23330992181E+01  0.18577332271E+02  0.18726323124E+02  0.00000000000E+00 0.  1.
         11    1    3    3    0    0 -0.30050353175E-01  0.31334479311E+02 -0.95123281120E+01  0.32746524748E+02  0.51100000000E-03 0. -1.
        -11    1    3    3    0    0  0.11685678143E+02 -0.22470365576E+02 -0.37256216028E+01  0.25599856628E+02  0.51100000000E-03 0.  1.
         12    1    3    3    0    0 -0.11317173250E+02 -0.65310145163E+01 -0.53393825560E+01  0.14115295500E+02  0.00000000000E+00 0. -1.
</event>
<event>
 7    1  0.1826069E-013  0.7246157E+02  0.7816164E-02  0.1226708E+00
        -11   -1    0    0    0    0  0.00000000000E+00  0.00000000000E+00  0.45593999997E+02  0.45594000000E+02  0.51100000000E-03 0. -1.
         11   -1    0    0    0    0 -0.00000000000E+00 -0.00000000000E+00 -0.45593999997E+02  0.45594000000E+02  0.51100000000E-03 0.  1.
    9900012    2    1    2    0    0  0.26607456790E+01  0.11601282289E+02  0.14457172070E+02  0.72461571014E+02  0.70000000937E+02 0.  0.
        -12    1    1    2    0    0 -0.26607456790E+01 -0.11601282289E+02 -0.14457172070E+02  0.18726428986E+02  0.00000000000E+00 0.  1.
         11    1    3    3    0    0 -0.21084562246E+02  0.15340925861E+02  0.13910200604E+02  0.29553281586E+02  0.51100000000E-03 0. -1.
        -11    1    3    3    0    0  0.19628116007E+02 -0.17765740983E+02  0.62757936424E+01  0.27207904674E+02  0.51100000000E-03 0.  1.
        -12    1    3    3    0    0  0.41171919183E+01  0.14026097411E+02 -0.57288221769E+01  0.15700384754E+02  0.00000000000E+00 0.  1.
</event>
<event>
 7    1  0.1826069E-013  0.7246155E+02  0.7816164E-02  0.1226708E+00
        -11   -1    0    0    0    0  0.00000000000E+00  0.00000000000E+00  0.45593999997E+02  0.45594000000E+02  0.51100000000E-03 0.  1.
         11   -1    0    0    0    0 -0.00000000000E+00 -0.00000000000E+00 -0.45593999997E+02  0.45594000000E+02  0.51100000000E-03 0. -1.
    9900012    2    1    2    0    0 -0.62292821984E+01 -0.13405819728E+02  0.11496080685E+02  0.72461552649E+02  0.69999977014E+02 0.  0.
        -12    1    1    2    0    0  0.62292821984E+01  0.13405819728E+02 -0.11496080685E+02  0.18726447351E+02  0.00000000000E+00 0.  1.
         11    1    3    3    0    0  0.18422319099E+02  0.38342894852E+01  0.42703151301E+01  0.19295574840E+02  0.51100000000E-03 0. -1.
        -11    1    3    3    0    0 -0.12941278014E+02 -0.10432116762E+02  0.25487540240E+02  0.30428940903E+02  0.51100000000E-03 0.  1.
         12    1    3    3    0    0 -0.11710323283E+02 -0.68079924512E+01 -0.18261774685E+02  0.22737036906E+02  0.00000000000E+00 0. -1.
</event>
<event>
 7    1  0.1826069E-013  0.7246153E+02  0.7816164E-02  0.1226708E+00
        -11   -1    0    0    0    0  0.00000000000E+00  0.00000000000E+00  0.45593999997E+02  0.45594000000E+02  0.51100000000E-03 0.  1.
         11   -1    0    0    0    0 -0.00000000000E+00 -0.00000000000E+00 -0.45593999997E+02  0.45594000000E+02  0.51100000000E-03 0. -1.
    9900012    2    1    2    0    0 -0.84940945860E+01  0.15076747434E+02 -0.71570095781E+01  0.72461528306E+02  0.69999945302E+02 0.  0.
        -12    1    1    2    0    0  0.84940945860E+01 -0.15076747434E+02  0.71570095781E+01  0.18726471694E+02  0.00000000000E+00 0.  1.
         11    1    3    3    0    0 -0.62360360076E+01  0.12012450483E+02 -0.15152122735E+02  0.20316838714E+02  0.51100000000E-03 0. -1.
        -11    1    3    3    0    0 -0.26823308668E+01 -0.21151533272E+02  0.15977897122E+02  0.26643488047E+02  0.51100000000E-03 0.  1.
        -12    1    3    3    0    0  0.42427228840E+00  0.24215830222E+02 -0.79827839651E+01  0.25501201544E+02  0.00000000000E+00 0.  1.
</event>
<event>
 7    1  0.1826069E-013  0.7246155E+02  0.7816164E-02  0.1226708E+00
        -11   -1    0    0    0    0  0.00000000000E+00  0.00000000000E+00  0.45593999997E+02  0.45594000000E+02  0.51100000000E-03 0.  1.
         11   -1    0    0    0    0 -0.00000000000E+00 -0.00000000000E+00 -0.45593999997E+02  0.45594000000E+02  0.51100000000E-03 0. -1.
    9900012    2    1    2    0    0 -0.16784858114E+02 -0.50201683645E+01  0.66141057331E+01  0.72461549536E+02  0.69999972959E+02 0.  0.
        -12    1    1    2    0    0  0.16784858114E+02  0.50201683645E+01 -0.66141057331E+01  0.18726450464E+02  0.00000000000E+00 0.  1.
         11    1    3    3    0    0 -0.87978478725E+01  0.17059549757E+02 -0.22377981088E+02  0.29482272689E+02  0.51100000000E-03 0. -1.
        -11    1    3    3    0    0 -0.83841902262E+01 -0.30139305453E+01  0.80286987700E+00  0.89455588636E+01  0.51100000000E-03 0.  1.
         12    1    3    3    0    0  0.39717998439E+00 -0.19065787576E+02  0.28189216944E+02  0.34033717983E+02  0.00000000000E+00 0. -1.
</event>
<event>
 7    1  0.1826069E-013  0.7246155E+02  0.7816164E-02  0.1226708E+00
        -11   -1    0    0    0    0  0.00000000000E+00  0.00000000000E+00  0.45593999997E+02  0.45594000000E+02  0.51100000000E-03 0.  1.
         11   -1    0    0    0    0 -0.00000000000E+00 -0.00000000000E+00 -0.45593999997E+02  0.45594000000E+02  0.51100000000E-03 0. -1.
    9900012    2    1    2    0    0  0.12368069178E+02  0.27091553710E+01 -0.13797514512E+02  0.72461546392E+02  0.69999968863E+02 0.  0.
        -12    1    1    2    0    0 -0.12368069178E+02 -0.27091553710E+01  0.13797514512E+02  0.18726453608E+02  0.00000000000E+00 0.  1.
         11    1    3    3    0    0 -0.10283702433E+02  0.24700220268E+02 -0.18052117144E+02  0.32275909758E+02  0.51100000000E-03 0. -1.
        -11    1    3    3    0    0  0.17502459513E+02 -0.23445366781E+01  0.82424369176E+01  0.19487706583E+02  0.51100000000E-03 0.  1.
        -12    1    3    3    0    0  0.51493120977E+01 -0.19646528219E+02 -0.39878342855E+01  0.20697930052E+02  0.00000000000E+00 0.  1.
</event>
<event>
 7    1  0.1826069E-013  0.7246151E+02  0.7816164E-02  0.1226708E+00
        -11   -1    0    0    0    0  0.00000000000E+00  0.00000000000E+00  0.45593999997E+02  0.45594000000E+02  0.51100000000E-03 0.  1.
         11   -1    0    0    0    0 -0.00000000000E+00 -0.00000000000E+00 -0.45593999997E+02  0.45594000000E+02  0.51100000000E-03 0. -1.
    9900012    2    1    2    0    0  0.13349888968E+02 -0.10497623522E+02 -0.78906168080E+01  0.72461508906E+02  0.69999920030E+02 0.  0.
        -12    1    1    2    0    0 -0.13349888968E+02  0.10497623522E+02  0.78906168080E+01  0.18726491094E+02  0.00000000000E+00 0.  1.
         11    1    3    3    0    0  0.33674417036E+02 -0.15732487849E+02  0.67228668358E+01  0.37771344633E+02  0.51100000000E-03 0. -1.
        -11    1    3    3    0    0 -0.13308569290E+02  0.73015148303E+01 -0.20354818596E+02  0.25391903743E+02  0.51100000000E-03 0.  1.
         12    1    3    3    0    0 -0.70159587767E+01 -0.20666505037E+01  0.57413349518E+01  0.92982605303E+01  0.00000000000E+00 0. -1.
</event>
<event>
 7    1  0.1826069E-013  0.7246142E+02  0.7816164E-02  0.1226708E+00
        -11   -1    0    0    0    0  0.00000000000E+00  0.00000000000E+00  0.45593999997E+02  0.45594000000E+02  0.51100000000E-03 0.  1.
         11   -1    0    0    0    0 -0.00000000000E+00 -0.00000000000E+00 -0.45593999997E+02  0.45594000000E+02  0.51100000000E-03 0. -1.
    9900012    2    1    2    0    0  0.57287667772E+01  0.66990394257E+00 -0.17816212686E+02  0.72461415299E+02  0.69999798090E+02 0.  0.
        -12    1    1    2    0    0 -0.57287667772E+01 -0.66990394257E+00  0.17816212686E+02  0.18726584701E+02  0.00000000000E+00 0.  1.
         11    1    3    3    0    0  0.25347129091E+02  0.33790925197E+01 -0.20544971191E+02  0.32802302677E+02  0.51100000000E-03 0. -1.
        -11    1    3    3    0    0 -0.15170081872E+02 -0.42920280388E+01  0.17851431664E+02  0.23816517407E+02  0.51100000000E-03 0.  1.
         12    1    3    3    0    0 -0.44482804420E+01  0.15828394616E+01 -0.15122673160E+02  0.15842595215E+02  0.00000000000E+00 0. -1.
</event>
<event>
 7    1  0.1826069E-013  0.7246162E+02  0.7816164E-02  0.1226708E+00
        -11   -1    0    0    0    0  0.00000000000E+00  0.00000000000E+00  0.45593999997E+02  0.45594000000E+02  0.51100000000E-03 0. -1.
         11   -1    0    0    0    0 -0.00000000000E+00 -0.00000000000E+00 -0.45593999997E+02  0.45594000000E+02  0.51100000000E-03 0.  1.
    9900012    2    1    2    0    0  0.28075708589E+01 -0.13392161014E+02  0.12784555581E+02  0.72461620420E+02  0.70000065298E+02 0.  0.
        -12    1    1    2    0    0 -0.28075708589E+01  0.13392161014E+02 -0.12784555581E+02  0.18726379580E+02  0.00000000000E+00 0.  1.
         11    1    3    3    0    0 -0.15495934961E+02 -0.15746049869E+02  0.53501095945E+01  0.22730722816E+02  0.51100000000E-03 0. -1.
        -11    1    3    3    0    0  0.29687164784E+02 -0.14194052342E+00 -0.76611960269E+01  0.30660101514E+02  0.51100000000E-03 0.  1.
         12    1    3    3    0    0 -0.11383658964E+02  0.24958293782E+01  0.15095642014E+02  0.19070796090E+02  0.00000000000E+00 0. -1.
</event>
<event>
 7    1  0.1826069E-013  0.7246157E+02  0.7816164E-02  0.1226708E+00
        -11   -1    0    0    0    0  0.00000000000E+00  0.00000000000E+00  0.45593999997E+02  0.45594000000E+02  0.51100000000E-03 0.  1.
         11   -1    0    0    0    0 -0.00000000000E+00 -0.00000000000E+00 -0.45593999997E+02  0.45594000000E+02  0.51100000000E-03 0. -1.
    9900012    2    1    2    0    0  0.12176735528E+02 -0.87614159277E+00 -0.14199953607E+02  0.72461569624E+02  0.69999999127E+02 0.  0.
        -12    1    1    2    0    0 -0.12176735528E+02  0.87614159277E+00  0.14199953607E+02  0.18726430376E+02  0.00000000000E+00 0.  1.
         11    1    3    3    0    0  0.76491271503E+01  0.15202586103E+02 -0.27553188516E+02  0.32385273938E+02  0.51100000000E-03 0. -1.
        -11    1    3    3    0    0  0.11264156849E+02 -0.45467407755E+01  0.21310967589E+02  0.24529806788E+02  0.51100000000E-03 0.  1.
        -12    1    3    3    0    0 -0.67365484715E+01 -0.11531986921E+02 -0.79577326799E+01  0.15546488898E+02  0.00000000000E+00 0.  1.
</event>
<event>
 7    1  0.1826069E-013  0.7246165E+02  0.7816164E-02  0.1226708E+00
        -11   -1    0    0    0    0  0.00000000000E+00  0.00000000000E+00  0.45593999997E+02  0.45594000000E+02  0.51100000000E-03 0. -1.
         11   -1    0    0    0    0 -0.00000000000E+00 -0.00000000000E+00 -0.45593999997E+02  0.45594000000E+02  0.51100000000E-03 0.  1.
    9900012    2    1    2    0    0  0.15215916954E+02  0.67012867709E+00  0.10895092934E+02  0.72461648213E+02  0.70000101503E+02 0.  0.
        -12    1    1    2    0    0 -0.15215916954E+02 -0.67012867709E+00 -0.10895092934E+02  0.18726351787E+02  0.00000000000E+00 0.  1.
         11    1    3    3    0    0  0.14130996478E+02  0.25360637919E+02  0.27000077777E+02  0.39646578885E+02  0.51100000000E-03 0. -1.
        -11    1    3    3    0    0 -0.50720028714E+01 -0.18332815573E+02 -0.74268107393E+01  0.20419962242E+02  0.51100000000E-03 0.  1.
         12    1    3    3    0    0  0.61569233479E+01 -0.63576936687E+01 -0.86781741029E+01  0.12395107085E+02  0.00000000000E+00 0. -1.
</event>
<event>
 7    1  0.1826069E-013  0.7246164E+02  0.7816164E-02  0.1226708E+00
        -11   -1    0    0    0    0  0.00000000000E+00  0.00000000000E+00  0.45593999997E+02  0.45594000000E+02  0.51100000000E-03 0.  1.
         11   -1    0    0    0    0 -0.00000000000E+00 -0.00000000000E+00 -0.45593999997E+02  0.45594000000E+02  0.51100000000E-03 0. -1.
    9900012    2    1    2    0    0  0.14374068292E+02 -0.46384366869E+01  0.11070118045E+02  0.72461642968E+02  0.70000094671E+02 0.  0.
        -12    1    1    2    0    0 -0.14374068292E+02  0.46384366869E+01 -0.11070118045E+02  0.18726357032E+02  0.00000000000E+00 0.  1.
         11    1    3    3    0    0 -0.11844093215E+02  0.78137810709E+01 -0.10270060668E+02  0.17516045932E+02  0.51100000000E-03 0. -1.
        -11    1    3    3    0    0  0.23178263186E+02 -0.15690414396E+02  0.32525504054E+02  0.42910714309E+02  0.51100000000E-03 0.  1.
        -12    1    3    3    0    0  0.30398983199E+01  0.32381966383E+01 -0.11185325342E+02  0.12034882728E+02  0.00000000000E+00 0.  1.
</event>
<event>
 7    1  0.1826069E-013  0.7246155E+02  0.7816164E-02  0.1226708E+00
        -11   -1    0    0    0    0  0.00000000000E+00  0.00000000000E+00  0.45593999997E+02  0.45594000000E+02  0.51100000000E-03 0. -1.
         11   -1    0    0    0    0 -0.00000000000E+00 -0.00000000000E+00 -0.45593999997E+02  0.45594000000E+02  0.51100000000E-03 0.  1.
    9900012    2    1    2    0    0  0.95729445473E+01 -0.23544837634E+01 -0.15921528522E+02  0.72461549948E+02  0.69999973494E+02 0.  0.
        -12    1    1    2    0    0 -0.95729445473E+01  0.23544837634E+01  0.15921528522E+02  0.18726450052E+02  0.00000000000E+00 0.  1.
         11    1    3    3    0    0  0.32191145608E+02 -0.22384285779E+02 -0.66773024516E+01  0.39773263302E+02  0.51100000000E-03 0. -1.
        -11    1    3    3    0    0 -0.16457115384E+02  0.17010266886E+02 -0.10177850798E+02  0.25763821017E+02  0.51100000000E-03 0.  1.
         12    1    3    3    0    0 -0.61610856763E+01  0.30195351296E+01  0.93362472749E+00  0.69244656286E+01  0.00000000000E+00 0. -1.
</event>
<event>
 7    1  0.1826069E-013  0.7246160E+02  0.7816164E-02  0.1226708E+00
        -11   -1    0    0    0    0  0.00000000000E+00  0.00000000000E+00  0.45593999997E+02  0.45594000000E+02  0.51100000000E-03 0. -1.
         11   -1    0    0    0    0 -0.00000000000E+00 -0.00000000000E+00 -0.45593999997E+02  0.45594000000E+02  0.51100000000E-03 0.  1.
    9900012    2    1    2    0    0 -0.56522217425E+01 -0.69912544398E+01  0.16427191910E+02  0.72461604636E+02  0.70000044737E+02 0.  0.
        -12    1    1    2    0    0  0.56522217425E+01  0.69912544398E+01 -0.16427191910E+02  0.18726395364E+02  0.00000000000E+00 0.  1.
         11    1    3    3    0    0  0.12652549845E+02 -0.28683921113E+02  0.47114941826E+01  0.31702563393E+02  0.51100000000E-03 0. -1.
        -11    1    3    3    0    0 -0.15256542523E+02  0.12414838667E+02 -0.59705688608E+01  0.20555729169E+02  0.51100000000E-03 0.  1.
         12    1    3    3    0    0 -0.30482290646E+01  0.92778280057E+01  0.17686266588E+02  0.20203312074E+02  0.00000000000E+00 0. -1.
</event>
<event>
 7    1  0.1826069E-013  0.7246155E+02  0.7816164E-02  0.1226708E+00
        -11   -1    0    0    0    0  0.00000000000E+00  0.00000000000E+00  0.45593999997E+02  0.45594000000E+02  0.51100000000E-03 0.  1.
         11   -1    0    0    0    0 -0.00000000000E+00 -0.00000000000E+00 -0.45593999997E+02  0.45594000000E+02  0.51100000000E-03 0. -1.
    9900012    2    1    2    0    0  0.13771504544E+02 -0.12681257095E+02 -0.45984211388E+00  0.72461546153E+02  0.69999968551E+02 0.  0.
        -12    1    1    2    0    0 -0.13771504544E+02  0.12681257095E+02  0.45984211388E+00  0.18726453847E+02  0.00000000000E+00 0.  1.
         11    1    3    3    0    0  0.31906389805E+02 -0.14767089098E+02  0.60465971773E+01  0.35674163880E+02  0.51100000000E-03 0. -1.
        -11    1    3    3    0    0 -0.43475669446E+01  0.26824293884E+01  0.12382137189E+02  0.13394554393E+02  0.51100000000E-03 0.  1.
         12    1    3    3    0    0 -0.13787318317E+02 -0.59659738596E+00 -0.18888576480E+02  0.23392827880E+02  0.00000000000E+00 0. -1.
</event>
<event>
 7    1  0.1826069E-013  0.7246159E+02  0.7816164E-02  0.1226708E+00
        -11   -1    0    0    0    0  0.00000000000E+00  0.00000000000E+00  0.45593999997E+02  0.45594000000E+02  0.51100000000E-03 0. -1.
         11   -1    0    0    0    0 -0.00000000000E+00 -0.00000000000E+00 -0.45593999997E+02  0.45594000000E+02  0.51100000000E-03 0.  1.
    9900012    2    1    2    0    0  0.18355305109E+01  0.77067535814E+01  0.16968069119E+02  0.72461585697E+02  0.70000020065E+02 0.  0.
        -12    1    1    2    0    0 -0.18355305109E+01 -0.77067535814E+01 -0.16968069119E+02  0.18726414303E+02  0.00000000000E+00 0.  1.
         11    1    3    3    0    0  0.60863857119E+01  0.25566586324E+02  0.13687531309E+02  0.29631789364E+02  0.51100000000E-03 0.  1.
        -11    1    3    3    0    0 -0.43116629378E+01 -0.13448343264E+02  0.20589447629E+02  0.24967453370E+02  0.51100000000E-03 0. -1.
        -12    1    3    3    0    0  0.60807736799E-01 -0.44114894786E+01 -0.17308909819E+02  0.17862342963E+02  0.00000000000E+00 0.  1.
</event>
<event>
 7    1  0.1826069E-013  0.7246156E+02  0.7816164E-02  0.1226708E+00
        -11   -1    0    0    0    0  0.00000000000E+00  0.00000000000E+00  0.45593999997E+02  0.45594000000E+02  0.51100000000E-03 0.  1.
         11   -1    0    0    0    0 -0.00000000000E+00 -0.00000000000E+00 -0.45593999997E+02  0.45594000000E+02  0.51100000000E-03 0. -1.
    9900012    2    1    2    0    0  0.18447441303E+02 -0.79581057291E+00 -0.31206114591E+01  0.72461558241E+02  0.69999984298E+02 0.  0.
        -12    1    1    2    0    0 -0.18447441303E+02  0.79581057291E+00  0.31206114591E+01  0.18726441759E+02  0.00000000000E+00 0.  1.
         11    1    3    3    0    0  0.12895522148E+02  0.64892469350E+01  0.16007816414E+02  0.21555857762E+02  0.51100000000E-03 0.  1.
        -11    1    3    3    0    0  0.13798296902E+02 -0.18205237233E+02 -0.26802714916E+02  0.35216603857E+02  0.51100000000E-03 0. -1.
         12    1    3    3    0    0 -0.82463777473E+01  0.10920179725E+02  0.76742870428E+01  0.15689096622E+02  0.00000000000E+00 0. -1.
</event>
<event>
 7    1  0.1826069E-013  0.7246159E+02  0.7816164E-02  0.1226708E+00
        -11   -1    0    0    0    0  0.00000000000E+00  0.00000000000E+00  0.45593999997E+02  0.45594000000E+02  0.51100000000E-03 0.  1.
         11   -1    0    0    0    0 -0.00000000000E+00 -0.00000000000E+00 -0.45593999997E+02  0.45594000000E+02  0.51100000000E-03 0. -1.
    9900012    2    1    2    0    0  0.65228318075E+01  0.17543815434E+02  0.58792320916E+00  0.72461589546E+02  0.70000025079E+02 0.  0.
        -12    1    1    2    0    0 -0.65228318075E+01 -0.17543815434E+02 -0.58792320916E+00  0.18726410454E+02  0.00000000000E+00 0.  1.
         11    1    3    3    0    0  0.72829400726E+01 -0.12957056703E+02 -0.22248899940E+02  0.26757056701E+02  0.51100000000E-03 0. -1.
        -11    1    3    3    0    0  0.10677048505E+02  0.20761970387E+02  0.19252978593E+02  0.30261129591E+02  0.51100000000E-03 0.  1.
         12    1    3    3    0    0 -0.11437156770E+02  0.97389017497E+01  0.35838445557E+01  0.15443403254E+02  0.00000000000E+00 0. -1.
</event>
<event>
 7    1  0.1826069E-013  0.7246158E+02  0.7816164E-02  0.1226708E+00
        -11   -1    0    0    0    0  0.00000000000E+00  0.00000000000E+00  0.45593999997E+02  0.45594000000E+02  0.51100000000E-03 0.  1.
         11   -1    0    0    0    0 -0.00000000000E+00 -0.00000000000E+00 -0.45593999997E+02  0.45594000000E+02  0.51100000000E-03 0. -1.
    9900012    2    1    2    0    0 -0.18215559587E+02  0.88723727024E+00 -0.42526588820E+01  0.72461577261E+02  0.70000009075E+02 0.  0.
        -12    1    1    2    0    0  0.18215559587E+02 -0.88723727024E+00  0.42526588820E+01  0.18726422739E+02  0.00000000000E+00 0.  1.
         11    1    3    3    0    0 -0.10825558371E+01  0.19800607858E+02 -0.20234320849E+01  0.19933145169E+02  0.51100000000E-03 0. -1.
        -11    1    3    3    0    0 -0.31332110758E+02 -0.13366907636E+02  0.69053579717E+01  0.34757148233E+02  0.51100000000E-03 0.  1.
         12    1    3    3    0    0  0.14199107008E+02 -0.55464629512E+01 -0.91345847689E+01  0.17771283859E+02  0.00000000000E+00 0. -1.
</event>
<event>
 7    1  0.1826069E-013  0.7246158E+02  0.7816164E-02  0.1226708E+00
        -11   -1    0    0    0    0  0.00000000000E+00  0.00000000000E+00  0.45593999997E+02  0.45594000000E+02  0.51100000000E-03 0. -1.
         11   -1    0    0    0    0 -0.00000000000E+00 -0.00000000000E+00 -0.45593999997E+02  0.45594000000E+02  0.51100000000E-03 0.  1.
    9900012    2    1    2    0    0  0.15199413378E+00  0.13630386655E+02  0.12840102903E+02  0.72461580557E+02  0.70000013369E+02 0.  0.
        -12    1    1    2    0    0 -0.15199413378E+00 -0.13630386655E+02 -0.12840102903E+02  0.18726419443E+02  0.00000000000E+00 0.  1.
         11    1    3    3    0    0 -0.89435672706E+01  0.10430474825E+02  0.32281194627E+02  0.35083582021E+02  0.51100000000E-03 0. -1.
        -11    1    3    3    0    0 -0.82584915106E+01 -0.65033084685E+01 -0.12468576723E+02  0.16308314101E+02  0.51100000000E-03 0.  1.
        -12    1    3    3    0    0  0.17354052915E+02  0.97032202984E+01 -0.69725150010E+01  0.21069684435E+02  0.00000000000E+00 0.  1.
</event>
<event>
 7    1  0.1826069E-013  0.7246165E+02  0.7816164E-02  0.1226708E+00
        -11   -1    0    0    0    0  0.00000000000E+00  0.00000000000E+00  0.45593999997E+02  0.45594000000E+02  0.51100000000E-03 0.  1.
         11   -1    0    0    0    0 -0.00000000000E+00 -0.00000000000E+00 -0.45593999997E+02  0.45594000000E+02  0.51100000000E-03 0. -1.
    9900012    2    1    2    0    0  0.11810983731E+02 -0.14324684171E+02 -0.24454357784E+01  0.72461653068E+02  0.70000107828E+02 0.  0.
        -12    1    1    2    0    0 -0.11810983731E+02  0.14324684171E+02  0.24454357784E+01  0.18726346932E+02  0.00000000000E+00 0.  1.
         11    1    3    3    0    0  0.18167656415E+01 -0.42514867732E+01 -0.18759201944E+02  0.19320544377E+02  0.51100000000E-03 0. -1.
        -11    1    3    3    0    0  0.28378131665E+02 -0.11825410829E+02  0.16030231967E+02  0.34671703668E+02  0.51100000000E-03 0.  1.
        -12    1    3    3    0    0 -0.18383913576E+02  0.17522134317E+01  0.28353419842E+00  0.18469405023E+02  0.00000000000E+00 0.  1.
</event>
<event>
 8    1  0.1826069E-013  0.7246157E+02  0.7816164E-02  0.1226708E+00
        -11   -1    0    0    0    0  0.00000000000E+00  0.00000000000E+00  0.45593999997E+02  0.45594000000E+02  0.51100000000E-03 0.  1.
         11   -1    0    0    0    0 -0.00000000000E+00 -0.00000000000E+00 -0.45593999997E+02  0.45594000000E+02  0.51100000000E-03 0. -1.
    9900012    2    1    2    0    0  0.85646656221E+01  0.15394320204E+02  0.63514340515E+01  0.72461566643E+02  0.69999995244E+02 0.  0.
         24    2    3    3    0    0  0.79631093918E+00  0.93606884504E+01 -0.11337817525E+02  0.52221466144E+02  0.50102682768E+02 0.  0.
        -12    1    1    2    0    0 -0.85646656221E+01 -0.15394320204E+02 -0.63514340515E+01  0.18726433357E+02  0.00000000000E+00 0.  1.
         11    1    3    3    0    0  0.77683546830E+01  0.60336317535E+01  0.17689251577E+02  0.20240100499E+02  0.51100000000E-03 0. -1.
        -11    1    4    4    0    0 -0.17377975489E+02 -0.56466454955E+01  0.96480412731E+01  0.20663091204E+02  0.51100000000E-03 0.  1.
         12    1    4    4    0    0  0.18174286428E+02  0.15007333946E+02 -0.20985858798E+02  0.31558374940E+02  0.00000000000E+00 0. -1.
</event>
<event>
 7    1  0.1826069E-013  0.7246227E+02  0.7816164E-02  0.1226706E+00
        -11   -1    0    0    0    0  0.00000000000E+00  0.00000000000E+00  0.45593999997E+02  0.45594000000E+02  0.51100000000E-03 0.  1.
         11   -1    0    0    0    0 -0.00000000000E+00 -0.00000000000E+00 -0.45593999997E+02  0.45594000000E+02  0.51100000000E-03 0. -1.
    9900012    2    1    2    0    0 -0.13325998102E+01  0.64388351696E+01 -0.17533354206E+02  0.72462270901E+02  0.70000912664E+02 0.  0.
        -12    1    1    2    0    0  0.13325998102E+01 -0.64388351696E+01  0.17533354206E+02  0.18725729099E+02  0.00000000000E+00 0.  1.
         11    1    3    3    0    0 -0.88809662629E+01  0.53403969335E+01 -0.25766598739E+02  0.27772450594E+02  0.51100000000E-03 0. -1.
        -11    1    3    3    0    0 -0.39928658120E+01  0.18568970208E+02  0.13250406631E+02  0.23158646509E+02  0.51100000000E-03 0.  1.
         12    1    3    3    0    0  0.11541232265E+02 -0.17470531972E+02 -0.50171620983E+01  0.21531173798E+02  0.00000000000E+00 0. -1.
</event>
<event>
 7    1  0.1826069E-013  0.7246157E+02  0.7816164E-02  0.1226708E+00
        -11   -1    0    0    0    0  0.00000000000E+00  0.00000000000E+00  0.45593999997E+02  0.45594000000E+02  0.51100000000E-03 0.  1.
         11   -1    0    0    0    0 -0.00000000000E+00 -0.00000000000E+00 -0.45593999997E+02  0.45594000000E+02  0.51100000000E-03 0. -1.
    9900012    2    1    2    0    0 -0.10192133314E+02 -0.16615977704E+01 -0.15621742008E+02  0.72461566490E+02  0.69999995045E+02 0.  0.
        -12    1    1    2    0    0  0.10192133314E+02  0.16615977704E+01  0.15621742008E+02  0.18726433510E+02  0.00000000000E+00 0.  1.
         11    1    3    3    0    0 -0.29233621426E+02  0.15490872285E+01 -0.37855815004E+01  0.29518382755E+02  0.51100000000E-03 0. -1.
        -11    1    3    3    0    0  0.19196521576E+02 -0.82064642588E+01  0.80974967034E+01  0.22392452956E+02  0.51100000000E-03 0.  1.
        -12    1    3    3    0    0 -0.15503346380E+00  0.49957792598E+01 -0.19933657211E+02  0.20550730780E+02  0.00000000000E+00 0.  1.
</event>
<event>
 7    1  0.1826069E-013  0.7246159E+02  0.7816164E-02  0.1226708E+00
        -11   -1    0    0    0    0  0.00000000000E+00  0.00000000000E+00  0.45593999997E+02  0.45594000000E+02  0.51100000000E-03 0. -1.
         11   -1    0    0    0    0 -0.00000000000E+00 -0.00000000000E+00 -0.45593999997E+02  0.45594000000E+02  0.51100000000E-03 0.  1.
    9900012    2    1    2    0    0  0.17353608633E+02 -0.54975975564E+01 -0.43940011565E+01  0.72461586632E+02  0.70000021283E+02 0.  0.
        -12    1    1    2    0    0 -0.17353608633E+02  0.54975975564E+01  0.43940011565E+01  0.18726413368E+02  0.00000000000E+00 0.  1.
         11    1    3    3    0    0  0.33053134142E+02  0.16507790498E+02 -0.11876053388E+02  0.38807956247E+02  0.51100000000E-03 0. -1.
        -11    1    3    3    0    0  0.22603076435E+00 -0.12615957472E+02 -0.21621396192E+01  0.12801887394E+02  0.51100000000E-03 0.  1.
         12    1    3    3    0    0 -0.15925556274E+02 -0.93894305818E+01  0.96441918510E+01  0.20851742991E+02  0.00000000000E+00 0. -1.
</event>
<event>
 7    1  0.1826069E-013  0.7246169E+02  0.7816164E-02  0.1226708E+00
        -11   -1    0    0    0    0  0.00000000000E+00  0.00000000000E+00  0.45593999997E+02  0.45594000000E+02  0.51100000000E-03 0. -1.
         11   -1    0    0    0    0 -0.00000000000E+00 -0.00000000000E+00 -0.45593999997E+02  0.45594000000E+02  0.51100000000E-03 0.  1.
    9900012    2    1    2    0    0 -0.14484196322E+02 -0.11642643851E+02  0.23090397256E+01  0.72461687940E+02  0.70000153255E+02 0.  0.
        -12    1    1    2    0    0  0.14484196322E+02  0.11642643851E+02 -0.23090397256E+01  0.18726312060E+02  0.00000000000E+00 0.  1.
         11    1    3    3    0    0 -0.79079409338E+01 -0.15406341740E+02 -0.28612862159E+02  0.33445280337E+02  0.51100000000E-03 0. -1.
        -11    1    3    3    0    0  0.12099640092E+01  0.67463778307E+01 -0.13942777753E+00  0.68554406937E+01  0.51100000000E-03 0.  1.
         12    1    3    3    0    0 -0.77862193971E+01 -0.29826799417E+01  0.31061329662E+02  0.32160966909E+02  0.00000000000E+00 0. -1.
</event>
<event>
 7    1  0.1826069E-013  0.7246155E+02  0.7816164E-02  0.1226708E+00
        -11   -1    0    0    0    0  0.00000000000E+00  0.00000000000E+00  0.45593999997E+02  0.45594000000E+02  0.51100000000E-03 0.  1.
         11   -1    0    0    0    0 -0.00000000000E+00 -0.00000000000E+00 -0.45593999997E+02  0.45594000000E+02  0.51100000000E-03 0. -1.
    9900012    2    1    2    0    0 -0.74586935241E+01  0.16577657342E+02 -0.44976919159E+01  0.72461546396E+02  0.69999968867E+02 0.  0.
        -12    1    1    2    0    0  0.74586935241E+01 -0.16577657342E+02  0.44976919159E+01  0.18726453604E+02  0.00000000000E+00 0.  1.
         11    1    3    3    0    0 -0.17817552794E+02 -0.34820913113E+01 -0.90778482959E+01  0.20297720991E+02  0.51100000000E-03 0. -1.
        -11    1    3    3    0    0  0.17004677965E+02  0.18466946036E+01  0.20769115188E+02  0.26905863666E+02  0.51100000000E-03 0.  1.
        -12    1    3    3    0    0 -0.66458186952E+01  0.18213054050E+02 -0.16188958808E+02  0.25257961739E+02  0.00000000000E+00 0.  1.
</event>
<event>
 7    1  0.1826069E-013  0.7246158E+02  0.7816164E-02  0.1226708E+00
        -11   -1    0    0    0    0  0.00000000000E+00  0.00000000000E+00  0.45593999997E+02  0.45594000000E+02  0.51100000000E-03 0. -1.
         11   -1    0    0    0    0 -0.00000000000E+00 -0.00000000000E+00 -0.45593999997E+02  0.45594000000E+02  0.51100000000E-03 0.  1.
    9900012    2    1    2    0    0 -0.13018605377E+02 -0.86139836303E+01  0.10343797450E+02  0.72461576272E+02  0.70000007787E+02 0.  0.
        -12    1    1    2    0    0  0.13018605377E+02  0.86139836303E+01 -0.10343797450E+02  0.18726423728E+02  0.00000000000E+00 0.  1.
         11    1    3    3    0    0  0.10763374063E+02  0.70403745067E+01  0.80872136404E+01  0.15192765355E+02  0.51100000000E-03 0. -1.
        -11    1    3    3    0    0 -0.30419887471E+02  0.86381342007E+01  0.46899003075E+01  0.31968454473E+02  0.51100000000E-03 0.  1.
        -12    1    3    3    0    0  0.66379080309E+01 -0.24292492338E+02 -0.24333164982E+01  0.25300356444E+02  0.00000000000E+00 0.  1.
</event>
<event>
 7    1  0.1826069E-013  0.7246129E+02  0.7816164E-02  0.1226709E+00
        -11   -1    0    0    0    0  0.00000000000E+00  0.00000000000E+00  0.45593999997E+02  0.45594000000E+02  0.51100000000E-03 0.  1.
         11   -1    0    0    0    0 -0.00000000000E+00 -0.00000000000E+00 -0.45593999997E+02  0.45594000000E+02  0.51100000000E-03 0. -1.
    9900012    2    1    2    0    0  0.43451809664E+00 -0.11806432977E+01 -0.18684402318E+02  0.72461291412E+02  0.69999636703E+02 0.  0.
        -12    1    1    2    0    0 -0.43451809664E+00  0.11806432977E+01  0.18684402318E+02  0.18726708588E+02  0.00000000000E+00 0.  1.
         11    1    3    3    0    0 -0.88903889631E+00 -0.11468831588E+02 -0.43019931001E+02  0.44531325511E+02  0.51100000000E-03 0. -1.
        -11    1    3    3    0    0 -0.34917344046E+01  0.34587815387E+01  0.58300855431E+01  0.76253050159E+01  0.51100000000E-03 0.  1.
         12    1    3    3    0    0  0.48152913976E+01  0.68294067514E+01  0.18505443141E+02  0.20304660885E+02  0.00000000000E+00 0. -1.
</event>
<event>
 7    1  0.1826069E-013  0.7246156E+02  0.7816164E-02  0.1226708E+00
        -11   -1    0    0    0    0  0.00000000000E+00  0.00000000000E+00  0.45593999997E+02  0.45594000000E+02  0.51100000000E-03 0.  1.
         11   -1    0    0    0    0 -0.00000000000E+00 -0.00000000000E+00 -0.45593999997E+02  0.45594000000E+02  0.51100000000E-03 0. -1.
    9900012    2    1    2    0    0 -0.13375182982E+02  0.11881072979E+02 -0.55339172758E+01  0.72461557323E+02  0.69999983102E+02 0.  0.
        -12    1    1    2    0    0  0.13375182982E+02 -0.11881072979E+02  0.55339172758E+01  0.18726442677E+02  0.00000000000E+00 0.  1.
         11    1    3    3    0    0 -0.24269108075E+02  0.20476724252E+02 -0.12823531573E+02  0.34245128195E+02  0.51100000000E-03 0. -1.
        -11    1    3    3    0    0  0.22749977692E+02 -0.35761513909E+01  0.99210397107E+01  0.25075433655E+02  0.51100000000E-03 0.  1.
        -12    1    3    3    0    0 -0.11856052600E+02 -0.50194998820E+01 -0.26314254135E+01  0.13140995473E+02  0.00000000000E+00 0.  1.
</event>
<event>
 7    1  0.1826069E-013  0.7246159E+02  0.7816164E-02  0.1226708E+00
        -11   -1    0    0    0    0  0.00000000000E+00  0.00000000000E+00  0.45593999997E+02  0.45594000000E+02  0.51100000000E-03 0.  1.
         11   -1    0    0    0    0 -0.00000000000E+00 -0.00000000000E+00 -0.45593999997E+02  0.45594000000E+02  0.51100000000E-03 0. -1.
    9900012    2    1    2    0    0 -0.89791527700E+01  0.13446703964E+02 -0.94466524219E+01  0.72461594206E+02  0.70000031150E+02 0.  0.
        -12    1    1    2    0    0  0.89791527700E+01 -0.13446703964E+02  0.94466524219E+01  0.18726405794E+02  0.00000000000E+00 0.  1.
         11    1    3    3    0    0 -0.29624146155E+02  0.11591543818E+02 -0.15767458291E+02  0.35504459786E+02  0.51100000000E-03 0. -1.
        -11    1    3    3    0    0  0.14459860075E+02 -0.95968618457E+01 -0.66469638909E+01  0.18584117948E+02  0.51100000000E-03 0.  1.
         12    1    3    3    0    0  0.61851333094E+01  0.11452021992E+02  0.12967769760E+02  0.18373016473E+02  0.00000000000E+00 0. -1.
</event>
<event>
 7    1  0.1826069E-013  0.7246186E+02  0.7816164E-02  0.1226707E+00
        -11   -1    0    0    0    0  0.00000000000E+00  0.00000000000E+00  0.45593999997E+02  0.45594000000E+02  0.51100000000E-03 0. -1.
         11   -1    0    0    0    0 -0.00000000000E+00 -0.00000000000E+00 -0.45593999997E+02  0.45594000000E+02  0.51100000000E-03 0.  1.
    9900012    2    1    2    0    0 -0.78244326563E+01 -0.16721680514E+02  0.31355905796E+01  0.72461861212E+02  0.70000378973E+02 0.  0.
        -12    1    1    2    0    0  0.78244326563E+01  0.16721680514E+02 -0.31355905796E+01  0.18726138788E+02  0.00000000000E+00 0.  1.
         11    1    3    3    0    0 -0.20863794976E+02 -0.31279433928E+02 -0.10562848295E+02  0.39054765292E+02  0.51100000000E-03 0.  1.
        -11    1    3    3    0    0  0.14499665136E+02  0.99727185602E+01 -0.13092865344E+01  0.17646802431E+02  0.51100000000E-03 0. -1.
         12    1    3    3    0    0 -0.14603028162E+01  0.45850348530E+01  0.15007725409E+02  0.15760293489E+02  0.00000000000E+00 0. -1.
</event>
<event>
 7    1  0.1826069E-013  0.7246165E+02  0.7816164E-02  0.1226708E+00
        -11   -1    0    0    0    0  0.00000000000E+00  0.00000000000E+00  0.45593999997E+02  0.45594000000E+02  0.51100000000E-03 0.  1.
         11   -1    0    0    0    0 -0.00000000000E+00 -0.00000000000E+00 -0.45593999997E+02  0.45594000000E+02  0.51100000000E-03 0. -1.
    9900012    2    1    2    0    0  0.13691554949E+02  0.10313988827E+02 -0.75391777604E+01  0.72461648413E+02  0.70000101765E+02 0.  0.
        -12    1    1    2    0    0 -0.13691554949E+02 -0.10313988827E+02  0.75391777604E+01  0.18726351587E+02  0.00000000000E+00 0.  1.
         11    1    3    3    0    0 -0.44144126436E+01 -0.19521796307E+02  0.11284805841E+02  0.22976823392E+02  0.51100000000E-03 0.  1.
        -11    1    3    3    0    0  0.16060378497E+02  0.30804927022E+02 -0.25069946537E+02  0.42841352756E+02  0.51100000000E-03 0. -1.
         12    1    3    3    0    0  0.20455890952E+01 -0.96914188818E+00  0.62459629358E+01  0.66434722654E+01  0.00000000000E+00 0. -1.
</event>
<event>
 7    1  0.1826069E-013  0.7246156E+02  0.7816164E-02  0.1226708E+00
        -11   -1    0    0    0    0  0.00000000000E+00  0.00000000000E+00  0.45593999997E+02  0.45594000000E+02  0.51100000000E-03 0.  1.
         11   -1    0    0    0    0 -0.00000000000E+00 -0.00000000000E+00 -0.45593999997E+02  0.45594000000E+02  0.51100000000E-03 0. -1.
    9900012    2    1    2    0    0  0.10079206264E+02  0.11500949907E+02 -0.10808213175E+02  0.72461555604E+02  0.69999980863E+02 0.  0.
        -12    1    1    2    0    0 -0.10079206264E+02 -0.11500949907E+02  0.10808213175E+02  0.18726444396E+02  0.00000000000E+00 0.  1.
         11    1    3    3    0    0 -0.91365668916E+01  0.28731217073E+01 -0.32880713725E+02  0.34247233731E+02  0.51100000000E-03 0. -1.
        -11    1    3    3    0    0  0.44579586910E+01  0.95993079767E+01  0.20839615367E+02  0.23373268454E+02  0.51100000000E-03 0.  1.
         12    1    3    3    0    0  0.14757814464E+02 -0.97147977668E+00  0.12328851834E+01  0.14841053419E+02  0.00000000000E+00 0. -1.
</event>
<event>
 7    1  0.1826069E-013  0.7246145E+02  0.7816164E-02  0.1226708E+00
        -11   -1    0    0    0    0  0.00000000000E+00  0.00000000000E+00  0.45593999997E+02  0.45594000000E+02  0.51100000000E-03 0.  1.
         11   -1    0    0    0    0 -0.00000000000E+00 -0.00000000000E+00 -0.45593999997E+02  0.45594000000E+02  0.51100000000E-03 0. -1.
    9900012    2    1    2    0    0 -0.17103586690E+02  0.66802637847E+01 -0.36776486053E+01  0.72461449299E+02  0.69999842381E+02 0.  0.
        -12    1    1    2    0    0  0.17103586690E+02 -0.66802637847E+01  0.36776486053E+01  0.18726550701E+02  0.00000000000E+00 0.  1.
         11    1    3    3    0    0 -0.59366433123E+01  0.23820272429E+01 -0.25841372042E+02  0.26621312832E+02  0.51100000000E-03 0. -1.
        -11    1    3    3    0    0 -0.24235030363E+02 -0.34102745049E+01  0.17057913959E+02  0.29831847039E+02  0.51100000000E-03 0.  1.
         12    1    3    3    0    0  0.13068086985E+02  0.77085110467E+01  0.51058094782E+01  0.16008289429E+02  0.00000000000E+00 0. -1.
</event>
<event>
 7    1  0.1826069E-013  0.7246157E+02  0.7816164E-02  0.1226708E+00
        -11   -1    0    0    0    0  0.00000000000E+00  0.00000000000E+00  0.45593999997E+02  0.45594000000E+02  0.51100000000E-03 0.  1.
         11   -1    0    0    0    0 -0.00000000000E+00 -0.00000000000E+00 -0.45593999997E+02  0.45594000000E+02  0.51100000000E-03 0. -1.
    9900012    2    1    2    0    0 -0.15093447856E+02  0.67741118336E+01 -0.87737428025E+01  0.72461566221E+02  0.69999994693E+02 0.  0.
        -12    1    1    2    0    0  0.15093447856E+02 -0.67741118336E+01  0.87737428025E+01  0.18726433779E+02  0.00000000000E+00 0.  1.
         11    1    3    3    0    0  0.48913338951E+01  0.29207827898E+02 -0.63806475005E+01  0.30294141687E+02  0.51100000000E-03 0. -1.
        -11    1    3    3    0    0 -0.13681294993E+02 -0.51657277545E+01  0.11922512218E+02  0.18868197417E+02  0.51100000000E-03 0.  1.
         12    1    3    3    0    0 -0.63034867588E+01 -0.17267988309E+02 -0.14315607520E+02  0.23299227117E+02  0.00000000000E+00 0. -1.
</event>
<event>
 7    1  0.1826069E-013  0.7246157E+02  0.7816164E-02  0.1226708E+00
        -11   -1    0    0    0    0  0.00000000000E+00  0.00000000000E+00  0.45593999997E+02  0.45594000000E+02  0.51100000000E-03 0.  1.
         11   -1    0    0    0    0 -0.00000000000E+00 -0.00000000000E+00 -0.45593999997E+02  0.45594000000E+02  0.51100000000E-03 0. -1.
    9900012    2    1    2    0    0 -0.78715935872E+01  0.92463315974E+01  0.14255616309E+02  0.72461568681E+02  0.69999997898E+02 0.  0.
        -12    1    1    2    0    0  0.78715935872E+01 -0.92463315974E+01 -0.14255616309E+02  0.18726431319E+02  0.00000000000E+00 0.  1.
         11    1    3    3    0    0  0.24650796038E+02  0.19295174395E+02 -0.67291652051E+01  0.32019481021E+02  0.51100000000E-03 0. -1.
        -11    1    3    3    0    0 -0.26103887284E+02 -0.70498330155E+01  0.19119774118E+02  0.33116141675E+02  0.51100000000E-03 0.  1.
         12    1    3    3    0    0 -0.64185023413E+01 -0.29990097826E+01  0.18650073960E+01  0.73259459845E+01  0.00000000000E+00 0. -1.
</event>
<event>
 7    1  0.1826069E-013  0.7246151E+02  0.7816164E-02  0.1226708E+00
        -11   -1    0    0    0    0  0.00000000000E+00  0.00000000000E+00  0.45593999997E+02  0.45594000000E+02  0.51100000000E-03 0.  1.
         11   -1    0    0    0    0 -0.00000000000E+00 -0.00000000000E+00 -0.45593999997E+02  0.45594000000E+02  0.51100000000E-03 0. -1.
    9900012    2    1    2    0    0  0.10845452420E+02  0.25169795564E+01 -0.15057304620E+02  0.72461509494E+02  0.69999920796E+02 0.  0.
        -12    1    1    2    0    0 -0.10845452420E+02 -0.25169795564E+01  0.15057304620E+02  0.18726490506E+02  0.00000000000E+00 0.  1.
         11    1    3    3    0    0 -0.27759909522E+02 -0.47840842556E+01 -0.44254023833E+01  0.28514631777E+02  0.51100000000E-03 0. -1.
        -11    1    3    3    0    0  0.20100968498E+02  0.10450172305E+02 -0.10974537793E+02  0.25173309592E+02  0.51100000000E-03 0.  1.
        -12    1    3    3    0    0  0.18504393444E+02 -0.31491084928E+01  0.34263555652E+00  0.18773568125E+02  0.00000000000E+00 0.  1.
</event>
<event>
 8    1  0.1826069E-013  0.7246163E+02  0.7816164E-02  0.1226708E+00
        -11   -1    0    0    0    0  0.00000000000E+00  0.00000000000E+00  0.45593999997E+02  0.45594000000E+02  0.51100000000E-03 0. -1.
         11   -1    0    0    0    0 -0.00000000000E+00 -0.00000000000E+00 -0.45593999997E+02  0.45594000000E+02  0.51100000000E-03 0.  1.
    9900012    2    1    2    0    0  0.93642567388E+01 -0.49962092696E+01 -0.15428077826E+02  0.72461628308E+02  0.70000075574E+02 0.  0.
         24    2    3    3    0    0  0.73249148205E+01  0.13264450728E+02 -0.15510620550E+02  0.54087259405E+02  0.49550502014E+02 0.  0.
        -12    1    1    2    0    0 -0.93642567388E+01  0.49962092696E+01  0.15428077826E+02  0.18726371692E+02  0.00000000000E+00 0.  1.
         11    1    3    3    0    0  0.20393419184E+01 -0.18260659998E+02  0.82542723419E-01  0.18374368903E+02  0.51100000000E-03 0. -1.
        -11    1    4    4    0    0  0.25703197678E+02  0.17153882269E+02 -0.20352810452E+01  0.30968571439E+02  0.51100000000E-03 0.  1.
         12    1    4    4    0    0 -0.18378282858E+02 -0.38894315412E+01 -0.13475339504E+02  0.23118687966E+02  0.00000000000E+00 0. -1.
</event>
<event>
 7    1  0.1826069E-013  0.7246158E+02  0.7816164E-02  0.1226708E+00
        -11   -1    0    0    0    0  0.00000000000E+00  0.00000000000E+00  0.45593999997E+02  0.45594000000E+02  0.51100000000E-03 0.  1.
         11   -1    0    0    0    0 -0.00000000000E+00 -0.00000000000E+00 -0.45593999997E+02  0.45594000000E+02  0.51100000000E-03 0. -1.
    9900012    2    1    2    0    0 -0.13846538348E+02  0.12592630485E+02 -0.61475827575E+00  0.72461577638E+02  0.70000009566E+02 0.  0.
        -12    1    1    2    0    0  0.13846538348E+02 -0.12592630485E+02  0.61475827575E+00  0.18726422362E+02  0.00000000000E+00 0.  1.
         11    1    3    3    0    0 -0.28021732720E+02 -0.70898426879E+01 -0.52062625487E+00  0.28909417600E+02  0.51100000000E-03 0. -1.
        -11    1    3    3    0    0 -0.63990194895E+00  0.32151117144E+01  0.15897491714E+02  0.16231964173E+02  0.51100000000E-03 0.  1.
         12    1    3    3    0    0  0.14815096321E+02  0.16467361459E+02 -0.15991623735E+02  0.27320195865E+02  0.00000000000E+00 0. -1.
</event>
<event>
 7    1  0.1826069E-013  0.7246152E+02  0.7816164E-02  0.1226708E+00
        -11   -1    0    0    0    0  0.00000000000E+00  0.00000000000E+00  0.45593999997E+02  0.45594000000E+02  0.51100000000E-03 0.  1.
         11   -1    0    0    0    0 -0.00000000000E+00 -0.00000000000E+00 -0.45593999997E+02  0.45594000000E+02  0.51100000000E-03 0. -1.
    9900012    2    1    2    0    0  0.87962573210E+01  0.89216639645E+01 -0.13918001861E+02  0.72461521245E+02  0.69999936104E+02 0.  0.
        -12    1    1    2    0    0 -0.87962573210E+01 -0.89216639645E+01  0.13918001861E+02  0.18726478755E+02  0.00000000000E+00 0.  1.
         11    1    3    3    0    0  0.12651051797E+02  0.30158811055E+02 -0.20772582182E+02  0.38744072664E+02  0.51100000000E-03 0. -1.
        -11    1    3    3    0    0 -0.43055732229E+01 -0.51456214649E+01  0.14439533791E+02  0.15922170625E+02  0.51100000000E-03 0.  1.
        -12    1    3    3    0    0  0.45077874700E+00 -0.16091525625E+02 -0.75849534695E+01  0.17795277957E+02  0.00000000000E+00 0.  1.
</event>
<event>
 7    1  0.1826069E-013  0.7246155E+02  0.7816164E-02  0.1226708E+00
        -11   -1    0    0    0    0  0.00000000000E+00  0.00000000000E+00  0.45593999997E+02  0.45594000000E+02  0.51100000000E-03 0.  1.
         11   -1    0    0    0    0 -0.00000000000E+00 -0.00000000000E+00 -0.45593999997E+02  0.45594000000E+02  0.51100000000E-03 0. -1.
    9900012    2    1    2    0    0  0.11599713052E+01  0.13718853973E+02 -0.12693600318E+02  0.72461548740E+02  0.69999971922E+02 0.  0.
        -12    1    1    2    0    0 -0.11599713052E+01 -0.13718853973E+02  0.12693600318E+02  0.18726451260E+02  0.00000000000E+00 0.  1.
         11    1    3    3    0    0 -0.83989651302E+01  0.23960560700E+02 -0.32202618087E+02  0.41008044287E+02  0.51100000000E-03 0. -1.
        -11    1    3    3    0    0 -0.58650652033E+01 -0.65893884759E+01  0.69094161942E+01  0.11205314040E+02  0.51100000000E-03 0.  1.
         12    1    3    3    0    0  0.15424001639E+02 -0.36523182507E+01  0.12599601575E+02  0.20248190413E+02  0.00000000000E+00 0. -1.
</event>
<event>
 7    1  0.1826069E-013  0.7246168E+02  0.7816164E-02  0.1226708E+00
        -11   -1    0    0    0    0  0.00000000000E+00  0.00000000000E+00  0.45593999997E+02  0.45594000000E+02  0.51100000000E-03 0. -1.
         11   -1    0    0    0    0 -0.00000000000E+00 -0.00000000000E+00 -0.45593999997E+02  0.45594000000E+02  0.51100000000E-03 0.  1.
    9900012    2    1    2    0    0 -0.78166568828E+01 -0.89362887683E+01  0.14481634422E+02  0.72461678490E+02  0.70000140944E+02 0.  0.
        -12    1    1    2    0    0  0.78166568828E+01  0.89362887683E+01 -0.14481634422E+02  0.18726321510E+02  0.00000000000E+00 0.  1.
         11    1    3    3    0    0  0.53106715762E+01  0.23580019520E+02  0.17291828714E+02  0.29719150285E+02  0.51100000000E-03 0. -1.
        -11    1    3    3    0    0 -0.10942419228E+02 -0.21320605811E+02  0.96634025999E+01  0.25839623077E+02  0.51100000000E-03 0.  1.
        -12    1    3    3    0    0 -0.21849092307E+01 -0.11195702477E+02 -0.12473596892E+02  0.16902905127E+02  0.00000000000E+00 0.  1.
</event>
<event>
 7    1  0.1826069E-013  0.7246161E+02  0.7816164E-02  0.1226708E+00
        -11   -1    0    0    0    0  0.00000000000E+00  0.00000000000E+00  0.45593999997E+02  0.45594000000E+02  0.51100000000E-03 0.  1.
         11   -1    0    0    0    0 -0.00000000000E+00 -0.00000000000E+00 -0.45593999997E+02  0.45594000000E+02  0.51100000000E-03 0. -1.
    9900012    2    1    2    0    0  0.58808674545E+01 -0.99514968213E+01 -0.14732977701E+02  0.72461614258E+02  0.70000057271E+02 0.  0.
        -12    1    1    2    0    0 -0.58808674545E+01  0.99514968213E+01  0.14732977701E+02  0.18726385742E+02  0.00000000000E+00 0.  1.
         11    1    3    3    0    0  0.18302417945E+02 -0.14825341479E+02 -0.22284143545E+02  0.32424563319E+02  0.51100000000E-03 0. -1.
        -11    1    3    3    0    0 -0.14774401685E+02  0.19503173677E+02  0.55050116764E+01  0.25079112473E+02  0.51100000000E-03 0.  1.
         12    1    3    3    0    0  0.23528511945E+01 -0.14629329019E+02  0.20461541672E+01  0.14957938466E+02  0.00000000000E+00 0. -1.
</event>
<event>
 7    1  0.1826069E-013  0.7246153E+02  0.7816164E-02  0.1226708E+00
        -11   -1    0    0    0    0  0.00000000000E+00  0.00000000000E+00  0.45593999997E+02  0.45594000000E+02  0.51100000000E-03 0. -1.
         11   -1    0    0    0    0 -0.00000000000E+00 -0.00000000000E+00 -0.45593999997E+02  0.45594000000E+02  0.51100000000E-03 0.  1.
    9900012    2    1    2    0    0  0.44045980175E+01 -0.68938796483E+01  0.16845017675E+02  0.72461529944E+02  0.69999947436E+02 0.  0.
        -12    1    1    2    0    0 -0.44045980175E+01  0.68938796483E+01 -0.16845017675E+02  0.18726470056E+02  0.00000000000E+00 0.  1.
         11    1    3    3    0    0 -0.58201194102E+01 -0.32089518780E+02 -0.97899649730E+00  0.32627740342E+02  0.51100000000E-03 0. -1.
        -11    1    3    3    0    0  0.13197452629E+02  0.16035695848E+02  0.14260127355E+01  0.20817055743E+02  0.51100000000E-03 0.  1.
         12    1    3    3    0    0 -0.29727352017E+01  0.91599432836E+01  0.16398001436E+02  0.19016733859E+02  0.00000000000E+00 0. -1.
</event>
<event>
 7    1  0.1826069E-013  0.7246156E+02  0.7816164E-02  0.1226708E+00
        -11   -1    0    0    0    0  0.00000000000E+00  0.00000000000E+00  0.45593999997E+02  0.45594000000E+02  0.51100000000E-03 0. -1.
         11   -1    0    0    0    0 -0.00000000000E+00 -0.00000000000E+00 -0.45593999997E+02  0.45594000000E+02  0.51100000000E-03 0.  1.
    9900012    2    1    2    0    0 -0.65168289599E+01 -0.72589279923E+01  0.15984949789E+02  0.72461555729E+02  0.69999981026E+02 0.  0.
        -12    1    1    2    0    0  0.65168289599E+01  0.72589279923E+01 -0.15984949789E+02  0.18726444271E+02  0.00000000000E+00 0.  1.
         11    1    3    3    0    0 -0.10754782352E+02 -0.32964254744E+02  0.17122563549E+02  0.38671560830E+02  0.51100000000E-03 0. -1.
        -11    1    3    3    0    0  0.11386352206E+01  0.16514242277E+01 -0.82703411450E+01  0.85101254434E+01  0.51100000000E-03 0.  1.
         12    1    3    3    0    0  0.30993181719E+01  0.24053902524E+02  0.71327273847E+01  0.25279869456E+02  0.00000000000E+00 0. -1.
</event>
<event>
 7    1  0.1826069E-013  0.7246178E+02  0.7816164E-02  0.1226707E+00
        -11   -1    0    0    0    0  0.00000000000E+00  0.00000000000E+00  0.45593999997E+02  0.45594000000E+02  0.51100000000E-03 0.  1.
         11   -1    0    0    0    0 -0.00000000000E+00 -0.00000000000E+00 -0.45593999997E+02  0.45594000000E+02  0.51100000000E-03 0. -1.
    9900012    2    1    2    0    0 -0.92117795410E+01  0.12719087821E+02 -0.10199967771E+02  0.72461777214E+02  0.70000269551E+02 0.  0.
        -12    1    1    2    0    0  0.92117795410E+01 -0.12719087821E+02  0.10199967771E+02  0.18726222786E+02  0.00000000000E+00 0.  1.
         11    1    3    3    0    0 -0.32018544409E+02  0.59055219237E+01 -0.16015132754E+02  0.36284250752E+02  0.51100000000E-03 0. -1.
        -11    1    3    3    0    0  0.25142998884E+02  0.54114717177E+01 -0.39670775627E+01  0.26022915357E+02  0.51100000000E-03 0.  1.
        -12    1    3    3    0    0 -0.23362340164E+01  0.14020941793E+01  0.97822425459E+01  0.10154611105E+02  0.00000000000E+00 0.  1.
</event>
<event>
 7    1  0.1826069E-013  0.7246159E+02  0.7816164E-02  0.1226708E+00
        -11   -1    0    0    0    0  0.00000000000E+00  0.00000000000E+00  0.45593999997E+02  0.45594000000E+02  0.51100000000E-03 0.  1.
         11   -1    0    0    0    0 -0.00000000000E+00 -0.00000000000E+00 -0.45593999997E+02  0.45594000000E+02  0.51100000000E-03 0. -1.
    9900012    2    1    2    0    0  0.59330984398E+01 -0.16710193304E+02 -0.60204879014E+01  0.72461588386E+02  0.70000023568E+02 0.  0.
        -12    1    1    2    0    0 -0.59330984398E+01  0.16710193304E+02  0.60204879014E+01  0.18726411614E+02  0.00000000000E+00 0.  1.
         11    1    3    3    0    0  0.96609241499E-01  0.10037856591E+02 -0.13866675215E+02  0.17118778580E+02  0.51100000000E-03 0. -1.
        -11    1    3    3    0    0  0.19022420563E+02 -0.18674382131E+02 -0.12782459117E+02  0.29563090051E+02  0.51100000000E-03 0.  1.
         12    1    3    3    0    0 -0.13185931364E+02 -0.80736677652E+01  0.20628646430E+02  0.25779719755E+02  0.00000000000E+00 0. -1.
</event>
<event>
 7    1  0.1826069E-013  0.7246140E+02  0.7816164E-02  0.1226708E+00
        -11   -1    0    0    0    0  0.00000000000E+00  0.00000000000E+00  0.45593999997E+02  0.45594000000E+02  0.51100000000E-03 0. -1.
         11   -1    0    0    0    0 -0.00000000000E+00 -0.00000000000E+00 -0.45593999997E+02  0.45594000000E+02  0.51100000000E-03 0.  1.
    9900012    2    1    2    0    0  0.74233373523E+01 -0.16099110677E+02  0.60331021448E+01  0.72461397972E+02  0.69999775518E+02 0.  0.
        -12    1    1    2    0    0 -0.74233373523E+01  0.16099110677E+02 -0.60331021448E+01  0.18726602028E+02  0.00000000000E+00 0.  1.
         11    1    3    3    0    0  0.57033979106E-01 -0.14523615454E+01  0.12014843861E+02  0.12102441085E+02  0.51100000000E-03 0. -1.
        -11    1    3    3    0    0  0.17267273261E+02  0.14150192565E+02 -0.16909924340E+02  0.28005931817E+02  0.51100000000E-03 0.  1.
        -12    1    3    3    0    0 -0.99009698881E+01 -0.28796941696E+02  0.10928182623E+02  0.32353025070E+02  0.00000000000E+00 0.  1.
</event>
<event>
 7    1  0.1826069E-013  0.7246157E+02  0.7816164E-02  0.1226708E+00
        -11   -1    0    0    0    0  0.00000000000E+00  0.00000000000E+00  0.45593999997E+02  0.45594000000E+02  0.51100000000E-03 0.  1.
         11   -1    0    0    0    0 -0.00000000000E+00 -0.00000000000E+00 -0.45593999997E+02  0.45594000000E+02  0.51100000000E-03 0. -1.
    9900012    2    1    2    0    0  0.17876103375E+01  0.17371795010E+02 -0.67604986008E+01  0.72461570711E+02  0.70000000543E+02 0.  0.
        -12    1    1    2    0    0 -0.17876103375E+01 -0.17371795010E+02  0.67604986008E+01  0.18726429289E+02  0.00000000000E+00 0.  1.
         11    1    3    3    0    0 -0.69854762555E+01 -0.14763403032E+02  0.11768599114E+01  0.16374979301E+02  0.51100000000E-03 0. -1.
        -11    1    3    3    0    0  0.23968527868E+02  0.28917867581E+02  0.20580136748E+01  0.37616071222E+02  0.51100000000E-03 0.  1.
        -12    1    3    3    0    0 -0.15195441275E+02  0.32173304611E+01 -0.99953721871E+01  0.18470520188E+02  0.00000000000E+00 0.  1.
</event>
<event>
 7    1  0.1826069E-013  0.7246149E+02  0.7816164E-02  0.1226708E+00
        -11   -1    0    0    0    0  0.00000000000E+00  0.00000000000E+00  0.45593999997E+02  0.45594000000E+02  0.51100000000E-03 0. -1.
         11   -1    0    0    0    0 -0.00000000000E+00 -0.00000000000E+00 -0.45593999997E+02  0.45594000000E+02  0.51100000000E-03 0.  1.
    9900012    2    1    2    0    0  0.49273716031E+00  0.16091822084E+02  0.95651748777E+01  0.72461492094E+02  0.69999898130E+02 0.  0.
        -12    1    1    2    0    0 -0.49273716031E+00 -0.16091822084E+02 -0.95651748777E+01  0.18726507906E+02  0.00000000000E+00 0.  1.
         11    1    3    3    0    0  0.27615768489E+02  0.76212689611E+01 -0.46733071942E+01  0.29026784358E+02  0.51100000000E-03 0. -1.
        -11    1    3    3    0    0 -0.23454235692E+02 -0.18208079746E+01 -0.22744252221E+01  0.23634498596E+02  0.51100000000E-03 0.  1.
         12    1    3    3    0    0 -0.36687956369E+01  0.10291361098E+02  0.16512907294E+02  0.19800209139E+02  0.00000000000E+00 0. -1.
</event>
<event>
 7    1  0.1826069E-013  0.7246175E+02  0.7816164E-02  0.1226708E+00
        -11   -1    0    0    0    0  0.00000000000E+00  0.00000000000E+00  0.45593999997E+02  0.45594000000E+02  0.51100000000E-03 0.  1.
         11   -1    0    0    0    0 -0.00000000000E+00 -0.00000000000E+00 -0.45593999997E+02  0.45594000000E+02  0.51100000000E-03 0. -1.
    9900012    2    1    2    0    0  0.86432630110E+01 -0.16245566263E+02 -0.34710098098E+01  0.72461752972E+02  0.70000237971E+02 0.  0.
        -12    1    1    2    0    0 -0.86432630110E+01  0.16245566263E+02  0.34710098098E+01  0.18726247028E+02  0.00000000000E+00 0.  1.
         11    1    3    3    0    0 -0.21138774209E+02  0.24942559555E+01  0.12786732392E+02  0.24830819828E+02  0.51100000000E-03 0.  1.
        -11    1    3    3    0    0  0.32357975596E+02 -0.12824791394E+02 -0.20028832257E+02  0.40158037562E+02  0.51100000000E-03 0. -1.
         12    1    3    3    0    0 -0.25759383760E+01 -0.59150308243E+01  0.37710900553E+01  0.74728955817E+01  0.00000000000E+00 0. -1.
</event>
<event>
 7    1  0.2116480E-013  0.7246154E+02  0.7816164E-02  0.1226708E+00
        -11   -1    0    0    0    0  0.00000000000E+00  0.00000000000E+00  0.45593999997E+02  0.45594000000E+02  0.51100000000E-03 0. -1.
         11   -1    0    0    0    0 -0.00000000000E+00 -0.00000000000E+00 -0.45593999997E+02  0.45594000000E+02  0.51100000000E-03 0.  1.
    9900012    2    1    2    0    0 -0.10372444236E+02  0.81735448824E+01  0.13277272020E+02  0.72461537770E+02  0.69999957631E+02 0.  0.
        -12    1    1    2    0    0  0.10372444236E+02 -0.81735448824E+01 -0.13277272020E+02  0.18726462230E+02  0.00000000000E+00 0.  1.
         11    1    3    3    0    0 -0.43472473251E+01  0.23772931929E+01  0.26123616374E+02  0.26589347772E+02  0.51100000000E-03 0. -1.
        -11    1    3    3    0    0  0.13639427057E+02 -0.32418420271E+01 -0.18775888152E+02  0.23432402488E+02  0.51100000000E-03 0.  1.
         12    1    3    3    0    0 -0.19664623968E+02  0.90380937166E+01  0.59295437976E+01  0.22439787510E+02  0.00000000000E+00 0. -1.
</event>
<event>
 7    1  0.1826069E-013  0.7246137E+02  0.7816164E-02  0.1226709E+00
        -11   -1    0    0    0    0  0.00000000000E+00  0.00000000000E+00  0.45593999997E+02  0.45594000000E+02  0.51100000000E-03 0.  1.
         11   -1    0    0    0    0 -0.00000000000E+00 -0.00000000000E+00 -0.45593999997E+02  0.45594000000E+02  0.51100000000E-03 0. -1.
    9900012    2    1    2    0    0  0.63389744421E+01 -0.11847398892E+02 -0.13043894255E+02  0.72461370970E+02  0.69999740343E+02 0.  0.
        -12    1    1    2    0    0 -0.63389744421E+01  0.11847398892E+02  0.13043894255E+02  0.18726629030E+02  0.00000000000E+00 0.  1.
         11    1    3    3    0    0 -0.15065896620E+01 -0.14580314267E+02 -0.25062304933E+02  0.29034023238E+02  0.51100000000E-03 0. -1.
        -11    1    3    3    0    0  0.18197971973E+02  0.13973277843E+02  0.15583605974E+02  0.27735671130E+02  0.51100000000E-03 0.  1.
        -12    1    3    3    0    0 -0.10352407869E+02 -0.11240362468E+02 -0.35651952962E+01  0.15691676602E+02  0.00000000000E+00 0.  1.
</event>
<event>
 7    1  0.1826069E-013  0.7246156E+02  0.7816164E-02  0.1226708E+00
        -11   -1    0    0    0    0  0.00000000000E+00  0.00000000000E+00  0.45593999997E+02  0.45594000000E+02  0.51100000000E-03 0. -1.
         11   -1    0    0    0    0 -0.00000000000E+00 -0.00000000000E+00 -0.45593999997E+02  0.45594000000E+02  0.51100000000E-03 0.  1.
    9900012    2    1    2    0    0  0.16282751260E+02 -0.20982606578E+01  0.90082608830E+01  0.72461562792E+02  0.69999990227E+02 0.  0.
        -12    1    1    2    0    0 -0.16282751260E+02  0.20982606578E+01 -0.90082608830E+01  0.18726437208E+02  0.00000000000E+00 0.  1.
         11    1    3    3    0    0  0.95566708571E+01 -0.86931085185E+01  0.19324631000E+02  0.23245245904E+02  0.51100000000E-03 0. -1.
        -11    1    3    3    0    0  0.90967633009E+00  0.24614536256E+02  0.46676119457E+01  0.25069693011E+02  0.51100000000E-03 0.  1.
        -12    1    3    3    0    0  0.58164040726E+01 -0.18019688395E+02 -0.14983982063E+02  0.24146623877E+02  0.00000000000E+00 0.  1.
</event>
<event>
 7    1  0.1826069E-013  0.7246156E+02  0.7816164E-02  0.1226708E+00
        -11   -1    0    0    0    0  0.00000000000E+00  0.00000000000E+00  0.45593999997E+02  0.45594000000E+02  0.51100000000E-03 0.  1.
         11   -1    0    0    0    0 -0.00000000000E+00 -0.00000000000E+00 -0.45593999997E+02  0.45594000000E+02  0.51100000000E-03 0. -1.
    9900012    2    1    2    0    0  0.16866287207E+02  0.48589195309E+01 -0.65267625456E+01  0.72461564875E+02  0.69999992941E+02 0.  0.
        -12    1    1    2    0    0 -0.16866287207E+02 -0.48589195309E+01  0.65267625456E+01  0.18726435125E+02  0.00000000000E+00 0.  1.
         11    1    3    3    0    0 -0.10354671782E+02  0.50315468041E+01 -0.16110617868E+02  0.19801204491E+02  0.51100000000E-03 0. -1.
        -11    1    3    3    0    0  0.12756226132E+02 -0.22088466873E+02  0.40955663133E+01  0.25833995773E+02  0.51100000000E-03 0.  1.
         12    1    3    3    0    0  0.14464732857E+02  0.21915839600E+02  0.54882890094E+01  0.26826364611E+02  0.00000000000E+00 0. -1.
</event>
<event>
 7    1  0.1826069E-013  0.7246151E+02  0.7816164E-02  0.1226708E+00
        -11   -1    0    0    0    0  0.00000000000E+00  0.00000000000E+00  0.45593999997E+02  0.45594000000E+02  0.51100000000E-03 0.  1.
         11   -1    0    0    0    0 -0.00000000000E+00 -0.00000000000E+00 -0.45593999997E+02  0.45594000000E+02  0.51100000000E-03 0. -1.
    9900012    2    1    2    0    0 -0.90214689176E+01 -0.25323669586E+01 -0.16213619677E+02  0.72461514829E+02  0.69999927746E+02 0.  0.
        -12    1    1    2    0    0  0.90214689176E+01  0.25323669586E+01  0.16213619677E+02  0.18726485171E+02  0.00000000000E+00 0.  1.
         11    1    3    3    0    0 -0.15155209645E+01  0.22833643026E+02 -0.60711848332E+01  0.23675543144E+02  0.51100000000E-03 0. -1.
        -11    1    3    3    0    0 -0.17311061439E+02 -0.21415442972E+02 -0.20233691327E+02  0.34171571676E+02  0.51100000000E-03 0.  1.
         12    1    3    3    0    0  0.98051134862E+01 -0.39505670121E+01  0.10091256483E+02  0.14614400009E+02  0.00000000000E+00 0. -1.
</event>
<event>
 7    1  0.1826069E-013  0.7246161E+02  0.7816164E-02  0.1226708E+00
        -11   -1    0    0    0    0  0.00000000000E+00  0.00000000000E+00  0.45593999997E+02  0.45594000000E+02  0.51100000000E-03 0. -1.
         11   -1    0    0    0    0 -0.00000000000E+00 -0.00000000000E+00 -0.45593999997E+02  0.45594000000E+02  0.51100000000E-03 0.  1.
    9900012    2    1    2    0    0  0.46574698178E+00 -0.13393021689E+02  0.13080057158E+02  0.72461605646E+02  0.70000046053E+02 0.  0.
        -12    1    1    2    0    0 -0.46574698178E+00  0.13393021689E+02 -0.13080057158E+02  0.18726394354E+02  0.00000000000E+00 0.  1.
         11    1    3    3    0    0  0.15731298945E+02 -0.93296343574E+01 -0.72722257068E+00  0.18304226197E+02  0.51100000000E-03 0. -1.
        -11    1    3    3    0    0 -0.25632321200E+02  0.40148742975E+00 -0.10230461031E+02  0.27601438647E+02  0.51100000000E-03 0.  1.
        -12    1    3    3    0    0  0.10366769236E+02 -0.44648747617E+01  0.24037740760E+02  0.26555940802E+02  0.00000000000E+00 0.  1.
</event>
<event>
 7    1  0.1826069E-013  0.7246156E+02  0.7816164E-02  0.1226708E+00
        -11   -1    0    0    0    0  0.00000000000E+00  0.00000000000E+00  0.45593999997E+02  0.45594000000E+02  0.51100000000E-03 0. -1.
         11   -1    0    0    0    0 -0.00000000000E+00 -0.00000000000E+00 -0.45593999997E+02  0.45594000000E+02  0.51100000000E-03 0.  1.
    9900012    2    1    2    0    0 -0.11847752434E+02  0.90541450964E+01 -0.11328407132E+02  0.72461559086E+02  0.69999985399E+02 0.  0.
        -12    1    1    2    0    0  0.11847752434E+02 -0.90541450964E+01  0.11328407132E+02  0.18726440914E+02  0.00000000000E+00 0.  1.
         11    1    3    3    0    0  0.84760606390E+01 -0.31232333351E+01  0.13887406078E+02  0.16566781168E+02  0.51100000000E-03 0. -1.
        -11    1    3    3    0    0 -0.31785894589E+02  0.14002886572E+02 -0.27204297249E+02  0.44119130955E+02  0.51100000000E-03 0.  1.
        -12    1    3    3    0    0  0.11462081515E+02 -0.18255081402E+01  0.19884840387E+01  0.11775646964E+02  0.00000000000E+00 0.  1.
</event>
<event>
 7    1  0.1826069E-013  0.7246154E+02  0.7816164E-02  0.1226708E+00
        -11   -1    0    0    0    0  0.00000000000E+00  0.00000000000E+00  0.45593999997E+02  0.45594000000E+02  0.51100000000E-03 0.  1.
         11   -1    0    0    0    0 -0.00000000000E+00 -0.00000000000E+00 -0.45593999997E+02  0.45594000000E+02  0.51100000000E-03 0. -1.
    9900012    2    1    2    0    0  0.13826615998E+02 -0.27954028103E+01 -0.12316278822E+02  0.72461539821E+02  0.69999960303E+02 0.  0.
        -12    1    1    2    0    0 -0.13826615998E+02  0.27954028103E+01  0.12316278822E+02  0.18726460179E+02  0.00000000000E+00 0.  1.
         11    1    3    3    0    0 -0.85221107447E+01 -0.33341372165E+01 -0.30468878202E+02  0.31813446554E+02  0.51100000000E-03 0. -1.
        -11    1    3    3    0    0  0.10848879218E+02  0.14598790066E+02  0.97052416220E+01  0.20615881424E+02  0.51100000000E-03 0.  1.
         12    1    3    3    0    0  0.11499847525E+02 -0.14060055660E+02  0.84473577581E+01  0.20032211843E+02  0.00000000000E+00 0. -1.
</event>
<event>
 7    1  0.1826069E-013  0.7246155E+02  0.7816164E-02  0.1226708E+00
        -11   -1    0    0    0    0  0.00000000000E+00  0.00000000000E+00  0.45593999997E+02  0.45594000000E+02  0.51100000000E-03 0.  1.
         11   -1    0    0    0    0 -0.00000000000E+00 -0.00000000000E+00 -0.45593999997E+02  0.45594000000E+02  0.51100000000E-03 0. -1.
    9900012    2    1    2    0    0 -0.12072206828E+01  0.11615665093E+02 -0.14638946229E+02  0.72461553353E+02  0.69999977931E+02 0.  0.
        -12    1    1    2    0    0  0.12072206828E+01 -0.11615665093E+02  0.14638946229E+02  0.18726446647E+02  0.00000000000E+00 0.  1.
         11    1    3    3    0    0 -0.20293936738E+02  0.17852817440E+02 -0.29629281788E+02  0.40105626768E+02  0.51100000000E-03 0. -1.
        -11    1    3    3    0    0  0.18973466380E+01 -0.17261725441E+01  0.14345278400E+02  0.14572803730E+02  0.51100000000E-03 0.  1.
         12    1    3    3    0    0  0.17189369418E+02 -0.45109798030E+01  0.64505715968E+00  0.17783122856E+02  0.00000000000E+00 0. -1.
</event>
<event>
 7    1  0.1826069E-013  0.7246162E+02  0.7816164E-02  0.1226708E+00
        -11   -1    0    0    0    0  0.00000000000E+00  0.00000000000E+00  0.45593999997E+02  0.45594000000E+02  0.51100000000E-03 0.  1.
         11   -1    0    0    0    0 -0.00000000000E+00 -0.00000000000E+00 -0.45593999997E+02  0.45594000000E+02  0.51100000000E-03 0. -1.
    9900012    2    1    2    0    0  0.15059155544E+02 -0.72883635111E+01 -0.84130159324E+01  0.72461621667E+02  0.70000066923E+02 0.  0.
        -12    1    1    2    0    0 -0.15059155544E+02  0.72883635111E+01  0.84130159324E+01  0.18726378333E+02  0.00000000000E+00 0.  1.
         11    1    3    3    0    0 -0.14741794582E+02  0.13542035132E+02 -0.15683635359E+02  0.25429975253E+02  0.51100000000E-03 0. -1.
        -11    1    3    3    0    0  0.16515321578E+02  0.10583059271E+01 -0.67106818819E+01  0.17858026482E+02  0.51100000000E-03 0.  1.
         12    1    3    3    0    0  0.13285628549E+02 -0.21888704571E+02  0.13981301308E+02  0.29173619933E+02  0.00000000000E+00 0. -1.
</event>
<event>
 7    1  0.1826069E-013  0.7246148E+02  0.7816164E-02  0.1226708E+00
        -11   -1    0    0    0    0  0.00000000000E+00  0.00000000000E+00  0.45593999997E+02  0.45594000000E+02  0.51100000000E-03 0.  1.
         11   -1    0    0    0    0 -0.00000000000E+00 -0.00000000000E+00 -0.45593999997E+02  0.45594000000E+02  0.51100000000E-03 0. -1.
    9900012    2    1    2    0    0 -0.14063935278E+02 -0.48180152400E-01 -0.12364709470E+02  0.72461477710E+02  0.69999879391E+02 0.  0.
        -12    1    1    2    0    0  0.14063935278E+02  0.48180152400E-01  0.12364709470E+02  0.18726522290E+02  0.00000000000E+00 0.  1.
         11    1    3    3    0    0  0.20161671961E+02  0.84106589793E+01 -0.81272052668E+01  0.23308446246E+02  0.51100000000E-03 0. -1.
        -11    1    3    3    0    0 -0.23671199542E+02 -0.16118375939E+02  0.95374548163E+01  0.30184280268E+02  0.51100000000E-03 0.  1.
        -12    1    3    3    0    0 -0.10554407696E+02  0.76595368072E+01 -0.13774959019E+02  0.18968751195E+02  0.00000000000E+00 0.  1.
</event>
<event>
 7    1  0.1826069E-013  0.7246159E+02  0.7816164E-02  0.1226708E+00
        -11   -1    0    0    0    0  0.00000000000E+00  0.00000000000E+00  0.45593999997E+02  0.45594000000E+02  0.51100000000E-03 0. -1.
         11   -1    0    0    0    0 -0.00000000000E+00 -0.00000000000E+00 -0.45593999997E+02  0.45594000000E+02  0.51100000000E-03 0.  1.
    9900012    2    1    2    0    0  0.50568399844E+01 -0.10228392048E+02  0.14848803335E+02  0.72461585634E+02  0.70000019983E+02 0.  0.
        -12    1    1    2    0    0 -0.50568399844E+01  0.10228392048E+02 -0.14848803335E+02  0.18726414366E+02  0.00000000000E+00 0.  1.
         11    1    3    3    0    0 -0.15749851801E+01 -0.21249546855E+02  0.22642474200E+02  0.31091887335E+02  0.51100000000E-03 0. -1.
        -11    1    3    3    0    0  0.15653402776E+02  0.14129222510E+02  0.82985385852E+01  0.22661193484E+02  0.51100000000E-03 0.  1.
        -12    1    3    3    0    0 -0.90215776114E+01 -0.31080677029E+01 -0.16092209450E+02  0.18708504816E+02  0.00000000000E+00 0.  1.
</event>
<event>
 7    1  0.1826069E-013  0.7246159E+02  0.7816164E-02  0.1226708E+00
        -11   -1    0    0    0    0  0.00000000000E+00  0.00000000000E+00  0.45593999997E+02  0.45594000000E+02  0.51100000000E-03 0. -1.
         11   -1    0    0    0    0 -0.00000000000E+00 -0.00000000000E+00 -0.45593999997E+02  0.45594000000E+02  0.51100000000E-03 0.  1.
    9900012    2    1    2    0    0 -0.52411887301E+01  0.68041241355E+01  0.16640679038E+02  0.72461591818E+02  0.70000028039E+02 0.  0.
        -12    1    1    2    0    0  0.52411887301E+01 -0.68041241355E+01 -0.16640679038E+02  0.18726408182E+02  0.00000000000E+00 0.  1.
         11    1    3    3    0    0 -0.16571248200E+02  0.26896730874E+02  0.82397241332E+01  0.32648636307E+02  0.51100000000E-03 0. -1.
        -11    1    3    3    0    0  0.11842935169E+02 -0.57747860456E+01  0.18190318286E+02  0.22460875916E+02  0.51100000000E-03 0.  1.
        -12    1    3    3    0    0 -0.51287569839E+00 -0.14317820693E+02 -0.97893633818E+01  0.17352079596E+02  0.00000000000E+00 0.  1.
</event>
<event>
 7    1  0.1826069E-013  0.7246156E+02  0.7816164E-02  0.1226708E+00
        -11   -1    0    0    0    0  0.00000000000E+00  0.00000000000E+00  0.45593999997E+02  0.45594000000E+02  0.51100000000E-03 0.  1.
         11   -1    0    0    0    0 -0.00000000000E+00 -0.00000000000E+00 -0.45593999997E+02  0.45594000000E+02  0.51100000000E-03 0. -1.
    9900012    2    1    2    0    0 -0.87202878075E+01  0.13637592494E+02 -0.94155380593E+01  0.72461555986E+02  0.69999981360E+02 0.  0.
        -12    1    1    2    0    0  0.87202878075E+01 -0.13637592494E+02  0.94155380593E+01  0.18726444014E+02  0.00000000000E+00 0.  1.
         11    1    3    3    0    0  0.96682236443E+01  0.69677620027E+01 -0.36722460137E+02  0.38607814423E+02  0.51100000000E-03 0. -1.
        -11    1    3    3    0    0 -0.16906975602E+02  0.47105343922E+01  0.23762481986E+02  0.29541335594E+02  0.51100000000E-03 0.  1.
         12    1    3    3    0    0 -0.14815358494E+01  0.19592960991E+01  0.35444400911E+01  0.43124059684E+01  0.00000000000E+00 0. -1.
</event>
<event>
 7    1  0.1826069E-013  0.7246144E+02  0.7816164E-02  0.1226708E+00
        -11   -1    0    0    0    0  0.00000000000E+00  0.00000000000E+00  0.45593999997E+02  0.45594000000E+02  0.51100000000E-03 0.  1.
         11   -1    0    0    0    0 -0.00000000000E+00 -0.00000000000E+00 -0.45593999997E+02  0.45594000000E+02  0.51100000000E-03 0. -1.
    9900012    2    1    2    0    0 -0.56166641388E+01 -0.74812174849E+01  0.16222464221E+02  0.72461444618E+02  0.69999836283E+02 0.  0.
        -12    1    1    2    0    0  0.56166641388E+01  0.74812174849E+01 -0.16222464221E+02  0.18726555382E+02  0.00000000000E+00 0.  1.
         11    1    3    3    0    0  0.13962331236E+02 -0.24768399736E+02  0.24826277694E+02  0.37746051230E+02  0.51100000000E-03 0. -1.
        -11    1    3    3    0    0 -0.78925026805E+01  0.11468576142E+02 -0.14753025625E+02  0.20284762819E+02  0.51100000000E-03 0.  1.
        -12    1    3    3    0    0 -0.11686492694E+02  0.58186061086E+01  0.61492121509E+01  0.14430630569E+02  0.00000000000E+00 0.  1.
</event>
<event>
 7    1  0.1826069E-013  0.7246166E+02  0.7816164E-02  0.1226708E+00
        -11   -1    0    0    0    0  0.00000000000E+00  0.00000000000E+00  0.45593999997E+02  0.45594000000E+02  0.51100000000E-03 0. -1.
         11   -1    0    0    0    0 -0.00000000000E+00 -0.00000000000E+00 -0.45593999997E+02  0.45594000000E+02  0.51100000000E-03 0.  1.
    9900012    2    1    2    0    0 -0.16201831735E+02 -0.85240265370E+01 -0.39392129708E+01  0.72461660827E+02  0.70000117936E+02 0.  0.
        -12    1    1    2    0    0  0.16201831735E+02  0.85240265370E+01  0.39392129708E+01  0.18726339173E+02  0.00000000000E+00 0.  1.
         11    1    3    3    0    0 -0.32578376691E+02 -0.13940449822E+01 -0.11729981706E+01  0.32629280013E+02  0.51100000000E-03 0. -1.
        -11    1    3    3    0    0  0.18423471371E+02  0.84818884350E+01  0.68202075724E+01  0.21398176567E+02  0.51100000000E-03 0.  1.
        -12    1    3    3    0    0 -0.20469264158E+01 -0.15611869990E+02 -0.95864223725E+01  0.18434204247E+02  0.00000000000E+00 0.  1.
</event>
<event>
 7    1  0.1826069E-013  0.7246157E+02  0.7816164E-02  0.1226708E+00
        -11   -1    0    0    0    0  0.00000000000E+00  0.00000000000E+00  0.45593999997E+02  0.45594000000E+02  0.51100000000E-03 0.  1.
         11   -1    0    0    0    0 -0.00000000000E+00 -0.00000000000E+00 -0.45593999997E+02  0.45594000000E+02  0.51100000000E-03 0. -1.
    9900012    2    1    2    0    0  0.95290531898E+01  0.12257777054E+01 -0.16074008268E+02  0.72461571417E+02  0.70000001462E+02 0.  0.
        -12    1    1    2    0    0 -0.95290531898E+01 -0.12257777054E+01  0.16074008268E+02  0.18726428583E+02  0.00000000000E+00 0.  1.
         11    1    3    3    0    0  0.56557915555E+01 -0.49994114220E+01  0.45798951283E+00  0.75625291629E+01  0.51100000000E-03 0. -1.
        -11    1    3    3    0    0 -0.15604632929E+02  0.28218420939E+02 -0.25024172869E+01  0.32342633499E+02  0.51100000000E-03 0.  1.
        -12    1    3    3    0    0  0.19477894563E+02 -0.21993231812E+02 -0.14029580494E+02  0.32556408754E+02  0.00000000000E+00 0.  1.
</event>
<event>
 7    1  0.1826069E-013  0.7246155E+02  0.7816164E-02  0.1226708E+00
        -11   -1    0    0    0    0  0.00000000000E+00  0.00000000000E+00  0.45593999997E+02  0.45594000000E+02  0.51100000000E-03 0. -1.
         11   -1    0    0    0    0 -0.00000000000E+00 -0.00000000000E+00 -0.45593999997E+02  0.45594000000E+02  0.51100000000E-03 0.  1.
    9900012    2    1    2    0    0  0.87241839444E+01 -0.15250180563E+02  0.64807711203E+01  0.72461553807E+02  0.69999978522E+02 0.  0.
        -12    1    1    2    0    0 -0.87241839444E+01  0.15250180563E+02 -0.64807711203E+01  0.18726446193E+02  0.00000000000E+00 0.  1.
         11    1    3    3    0    0  0.43621536565E+01  0.11022621641E+02  0.16037024112E+02  0.19942735895E+02  0.51100000000E-03 0. -1.
        -11    1    3    3    0    0 -0.11160471977E+02  0.41904514148E+01 -0.13606033228E+02  0.18089780493E+02  0.51100000000E-03 0.  1.
        -12    1    3    3    0    0  0.15522502265E+02 -0.30463253619E+02  0.40497802361E+01  0.34429037419E+02  0.00000000000E+00 0.  1.
</event>
<event>
 7    1  0.1826069E-013  0.7246158E+02  0.7816164E-02  0.1226708E+00
        -11   -1    0    0    0    0  0.00000000000E+00  0.00000000000E+00  0.45593999997E+02  0.45594000000E+02  0.51100000000E-03 0. -1.
         11   -1    0    0    0    0 -0.00000000000E+00 -0.00000000000E+00 -0.45593999997E+02  0.45594000000E+02  0.51100000000E-03 0.  1.
    9900012    2    1    2    0    0  0.30879746971E+01 -0.29476712136E+01  0.18233330844E+02  0.72461582645E+02  0.70000016088E+02 0.  0.
        -12    1    1    2    0    0 -0.30879746971E+01  0.29476712136E+01 -0.18233330844E+02  0.18726417355E+02  0.00000000000E+00 0.  1.
         11    1    3    3    0    0 -0.19035777480E+02  0.14177323485E+02  0.10315411367E+02  0.25879819115E+02  0.51100000000E-03 0. -1.
        -11    1    3    3    0    0  0.29967285809E+02 -0.87111353580E+01  0.13248993387E+02  0.33903656499E+02  0.51100000000E-03 0.  1.
         12    1    3    3    0    0 -0.78435336314E+01 -0.84138593409E+01 -0.53310739108E+01  0.12678107031E+02  0.00000000000E+00 0. -1.
</event>
<event>
 7    1  0.1826069E-013  0.7246159E+02  0.7816164E-02  0.1226708E+00
        -11   -1    0    0    0    0  0.00000000000E+00  0.00000000000E+00  0.45593999997E+02  0.45594000000E+02  0.51100000000E-03 0.  1.
         11   -1    0    0    0    0 -0.00000000000E+00 -0.00000000000E+00 -0.45593999997E+02  0.45594000000E+02  0.51100000000E-03 0. -1.
    9900012    2    1    2    0    0 -0.17369189978E+02  0.50441903564E+01 -0.48523968370E+01  0.72461591590E+02  0.70000027742E+02 0.  0.
        -12    1    1    2    0    0  0.17369189978E+02 -0.50441903564E+01  0.48523968370E+01  0.18726408410E+02  0.00000000000E+00 0.  1.
         11    1    3    3    0    0 -0.20968625821E+02  0.14738833432E+00  0.13514501501E+02  0.24946878426E+02  0.51100000000E-03 0. -1.
        -11    1    3    3    0    0 -0.51088947976E+01  0.22718212969E+02 -0.14112554971E+02  0.27228334775E+02  0.51100000000E-03 0.  1.
        -12    1    3    3    0    0  0.87083306402E+01 -0.17821410947E+02 -0.42543433674E+01  0.20286378389E+02  0.00000000000E+00 0.  1.
</event>
<event>
 7    1  0.1826069E-013  0.7246145E+02  0.7816164E-02  0.1226708E+00
        -11   -1    0    0    0    0  0.00000000000E+00  0.00000000000E+00  0.45593999997E+02  0.45594000000E+02  0.51100000000E-03 0. -1.
         11   -1    0    0    0    0 -0.00000000000E+00 -0.00000000000E+00 -0.45593999997E+02  0.45594000000E+02  0.51100000000E-03 0.  1.
    9900012    2    1    2    0    0  0.11604514835E+02 -0.10941452930E+02  0.98134407431E+01  0.72461447301E+02  0.69999839778E+02 0.  0.
        -12    1    1    2    0    0 -0.11604514835E+02  0.10941452930E+02 -0.98134407431E+01  0.18726552699E+02  0.00000000000E+00 0.  1.
         11    1    3    3    0    0  0.18911748968E+01 -0.97853147323E+01  0.30114678929E+02  0.31721015340E+02  0.51100000000E-03 0. -1.
        -11    1    3    3    0    0  0.16204961431E+02  0.10657423534E+02 -0.43883261809E+01  0.19885644528E+02  0.51100000000E-03 0.  1.
         12    1    3    3    0    0 -0.64916214927E+01 -0.11813561732E+02 -0.15912912005E+02  0.20854787433E+02  0.00000000000E+00 0. -1.
</event>
<event>
 7    1  0.1826069E-013  0.7246159E+02  0.7816164E-02  0.1226708E+00
        -11   -1    0    0    0    0  0.00000000000E+00  0.00000000000E+00  0.45593999997E+02  0.45594000000E+02  0.51100000000E-03 0. -1.
         11   -1    0    0    0    0 -0.00000000000E+00 -0.00000000000E+00 -0.45593999997E+02  0.45594000000E+02  0.51100000000E-03 0.  1.
    9900012    2    1    2    0    0 -0.73911845537E+01 -0.89034485139E+01  0.14723364016E+02  0.72461589439E+02  0.70000024940E+02 0.  0.
        -12    1    1    2    0    0  0.73911845537E+01  0.89034485139E+01 -0.14723364016E+02  0.18726410561E+02  0.00000000000E+00 0.  1.
         11    1    3    3    0    0 -0.19667586671E+02  0.19535594931E+02  0.25522025380E+02  0.37680594668E+02  0.51100000000E-03 0. -1.
        -11    1    3    3    0    0  0.73462277966E+00 -0.12931093367E+02 -0.80635089061E+01  0.15256900813E+02  0.51100000000E-03 0.  1.
         12    1    3    3    0    0  0.11541779338E+02 -0.15507950078E+02 -0.27351524580E+01  0.19524093958E+02  0.00000000000E+00 0. -1.
</event>
<event>
 7    1  0.1826069E-013  0.7246157E+02  0.7816164E-02  0.1226708E+00
        -11   -1    0    0    0    0  0.00000000000E+00  0.00000000000E+00  0.45593999997E+02  0.45594000000E+02  0.51100000000E-03 0. -1.
         11   -1    0    0    0    0 -0.00000000000E+00 -0.00000000000E+00 -0.45593999997E+02  0.45594000000E+02  0.51100000000E-03 0.  1.
    9900012    2    1    2    0    0 -0.11118215600E+02 -0.40255551706E+01  0.14520997296E+02  0.72461570147E+02  0.69999999808E+02 0.  0.
        -12    1    1    2    0    0  0.11118215600E+02  0.40255551706E+01 -0.14520997296E+02  0.18726429853E+02  0.00000000000E+00 0.  1.
         11    1    3    3    0    0 -0.79796496676E+01  0.10400289187E+02  0.31642302609E+02  0.34250199104E+02  0.51100000000E-03 0. -1.
        -11    1    3    3    0    0 -0.11179087410E+02 -0.64146029763E+01 -0.22283370789E+02  0.25742333628E+02  0.51100000000E-03 0.  1.
        -12    1    3    3    0    0  0.80405214769E+01 -0.80112413812E+01  0.51620654751E+01  0.12469037415E+02  0.00000000000E+00 0.  1.
</event>
<event>
 7    1  0.1826069E-013  0.7246152E+02  0.7816164E-02  0.1226708E+00
        -11   -1    0    0    0    0  0.00000000000E+00  0.00000000000E+00  0.45593999997E+02  0.45594000000E+02  0.51100000000E-03 0.  1.
         11   -1    0    0    0    0 -0.00000000000E+00 -0.00000000000E+00 -0.45593999997E+02  0.45594000000E+02  0.51100000000E-03 0. -1.
    9900012    2    1    2    0    0 -0.24482247681E+01 -0.25087726407E+01 -0.18395472652E+02  0.72461517181E+02  0.69999930810E+02 0.  0.
        -12    1    1    2    0    0  0.24482247681E+01  0.25087726407E+01  0.18395472652E+02  0.18726482819E+02  0.00000000000E+00 0.  1.
         11    1    3    3    0    0  0.12522089189E+02  0.11813654858E+00 -0.24011410462E+02  0.27080703582E+02  0.51100000000E-03 0. -1.
        -11    1    3    3    0    0  0.42307554543E+01 -0.15893125968E+02  0.12932855733E+02  0.20922464062E+02  0.51100000000E-03 0.  1.
        -12    1    3    3    0    0 -0.19201069411E+02  0.13266216778E+02 -0.73169179241E+01  0.24458349536E+02  0.00000000000E+00 0.  1.
</event>
<event>
 7    1  0.1826069E-013  0.7246141E+02  0.7816164E-02  0.1226708E+00
        -11   -1    0    0    0    0  0.00000000000E+00  0.00000000000E+00  0.45593999997E+02  0.45594000000E+02  0.51100000000E-03 0.  1.
         11   -1    0    0    0    0 -0.00000000000E+00 -0.00000000000E+00 -0.45593999997E+02  0.45594000000E+02  0.51100000000E-03 0. -1.
    9900012    2    1    2    0    0 -0.10957117231E+02 -0.12529503664E+02 -0.85812703624E+01  0.72461412454E+02  0.69999794384E+02 0.  0.
        -12    1    1    2    0    0  0.10957117231E+02  0.12529503664E+02  0.85812703624E+01  0.18726587546E+02  0.00000000000E+00 0.  1.
         11    1    3    3    0    0 -0.93433025108E+01 -0.93753863809E+01 -0.23094134529E+02  0.26618306135E+02  0.51100000000E-03 0. -1.
        -11    1    3    3    0    0  0.18768465758E+02  0.48762185163E+01  0.14022631719E+02  0.23930462062E+02  0.51100000000E-03 0.  1.
        -12    1    3    3    0    0 -0.20382280477E+02 -0.80303357994E+01  0.49023244761E+00  0.21912644258E+02  0.00000000000E+00 0.  1.
</event>
<event>
 7    1  0.1826069E-013  0.7246156E+02  0.7816164E-02  0.1226708E+00
        -11   -1    0    0    0    0  0.00000000000E+00  0.00000000000E+00  0.45593999997E+02  0.45594000000E+02  0.51100000000E-03 0.  1.
         11   -1    0    0    0    0 -0.00000000000E+00 -0.00000000000E+00 -0.45593999997E+02  0.45594000000E+02  0.51100000000E-03 0. -1.
    9900012    2    1    2    0    0 -0.18273477080E+02 -0.25066609916E+01 -0.32367138258E+01  0.72461557991E+02  0.69999983972E+02 0.  0.
        -12    1    1    2    0    0  0.18273477080E+02  0.25066609916E+01  0.32367138258E+01  0.18726442009E+02  0.00000000000E+00 0.  1.
         11    1    3    3    0    0 -0.20877869079E+02  0.13747343443E+02 -0.71273074295E+00  0.25007655916E+02  0.51100000000E-03 0. -1.
        -11    1    3    3    0    0  0.96505889695E+01 -0.11104249092E+02  0.19115137302E+02  0.24121083924E+02  0.51100000000E-03 0.  1.
        -12    1    3    3    0    0 -0.70461969706E+01 -0.51497553428E+01 -0.21639120385E+02  0.23332818151E+02  0.00000000000E+00 0.  1.
</event>
<event>
 7    1  0.1826069E-013  0.7246161E+02  0.7816164E-02  0.1226708E+00
        -11   -1    0    0    0    0  0.00000000000E+00  0.00000000000E+00  0.45593999997E+02  0.45594000000E+02  0.51100000000E-03 0.  1.
         11   -1    0    0    0    0 -0.00000000000E+00 -0.00000000000E+00 -0.45593999997E+02  0.45594000000E+02  0.51100000000E-03 0. -1.
    9900012    2    1    2    0    0  0.17125809340E+02  0.70203212743E+01 -0.28459652546E+01  0.72461607540E+02  0.70000048519E+02 0.  0.
        -12    1    1    2    0    0 -0.17125809340E+02 -0.70203212743E+01  0.28459652546E+01  0.18726392460E+02  0.00000000000E+00 0.  1.
         11    1    3    3    0    0  0.13251649427E+00  0.24671502016E+02 -0.16991277391E+02  0.29956703423E+02  0.51100000000E-03 0. -1.
        -11    1    3    3    0    0  0.24522843672E+02 -0.19114849939E+02  0.66815383690E+01  0.31802363202E+02  0.51100000000E-03 0.  1.
        -12    1    3    3    0    0 -0.75295508269E+01  0.14636691975E+01  0.74637737676E+01  0.10702540915E+02  0.00000000000E+00 0.  1.
</event>
<event>
 7    1  0.1826069E-013  0.7246155E+02  0.7816164E-02  0.1226708E+00
        -11   -1    0    0    0    0  0.00000000000E+00  0.00000000000E+00  0.45593999997E+02  0.45594000000E+02  0.51100000000E-03 0.  1.
         11   -1    0    0    0    0 -0.00000000000E+00 -0.00000000000E+00 -0.45593999997E+02  0.45594000000E+02  0.51100000000E-03 0. -1.
    9900012    2    1    2    0    0 -0.13330307737E+02 -0.55418567363E+01 -0.11927728233E+02  0.72461548621E+02  0.69999971766E+02 0.  0.
        -12    1    1    2    0    0  0.13330307737E+02  0.55418567363E+01  0.11927728233E+02  0.18726451379E+02  0.00000000000E+00 0.  1.
         11    1    3    3    0    0 -0.16405750129E+02 -0.84534440887E+01  0.11103529643E+02  0.21538285100E+02  0.51100000000E-03 0. -1.
        -11    1    3    3    0    0 -0.39240245045E+01  0.22745595569E+02 -0.18069081878E+02  0.29312997225E+02  0.51100000000E-03 0.  1.
         12    1    3    3    0    0  0.69994668958E+01 -0.19834008217E+02 -0.49621759978E+01  0.21610266296E+02  0.00000000000E+00 0. -1.
</event>
<event>
 7    1  0.1826069E-013  0.7246152E+02  0.7816164E-02  0.1226708E+00
        -11   -1    0    0    0    0  0.00000000000E+00  0.00000000000E+00  0.45593999997E+02  0.45594000000E+02  0.51100000000E-03 0. -1.
         11   -1    0    0    0    0 -0.00000000000E+00 -0.00000000000E+00 -0.45593999997E+02  0.45594000000E+02  0.51100000000E-03 0.  1.
    9900012    2    1    2    0    0 -0.15558841900E+02  0.43798848491E+01  0.94562246319E+01  0.72461517766E+02  0.69999931573E+02 0.  0.
        -12    1    1    2    0    0  0.15558841900E+02 -0.43798848491E+01 -0.94562246319E+01  0.18726482234E+02  0.00000000000E+00 0.  1.
         11    1    3    3    0    0 -0.22750579767E+02  0.78442085711E+01  0.39170177369E+01  0.24381622506E+02  0.51100000000E-03 0. -1.
        -11    1    3    3    0    0  0.17965606662E+02 -0.15667396840E+02  0.16018718749E+02  0.28719848487E+02  0.51100000000E-03 0.  1.
        -12    1    3    3    0    0 -0.10773868795E+02  0.12203073118E+02 -0.10479511854E+02  0.19360046773E+02  0.00000000000E+00 0.  1.
</event>
<event>
 7    1  0.1826069E-013  0.7246158E+02  0.7816164E-02  0.1226708E+00
        -11   -1    0    0    0    0  0.00000000000E+00  0.00000000000E+00  0.45593999997E+02  0.45594000000E+02  0.51100000000E-03 0.  1.
         11   -1    0    0    0    0 -0.00000000000E+00 -0.00000000000E+00 -0.45593999997E+02  0.45594000000E+02  0.51100000000E-03 0. -1.
    9900012    2    1    2    0    0  0.11797984477E+02  0.10741809729E+02 -0.98030612792E+01  0.72461576839E+02  0.70000008525E+02 0.  0.
        -12    1    1    2    0    0 -0.11797984477E+02 -0.10741809729E+02  0.98030612792E+01  0.18726423161E+02  0.00000000000E+00 0.  1.
         11    1    3    3    0    0 -0.38310852922E+01 -0.20671565400E+02  0.15698215871E+02  0.26237850758E+02  0.51100000000E-03 0.  1.
        -11    1    3    3    0    0  0.17788913288E+02  0.23567153351E+02 -0.15559722994E+02  0.33376056283E+02  0.51100000000E-03 0. -1.
        -12    1    3    3    0    0 -0.21598435185E+01  0.78462217771E+01 -0.99415541561E+01  0.12847669798E+02  0.00000000000E+00 0.  1.
</event>
<event>
 7    1  0.1826069E-013  0.7246161E+02  0.7816164E-02  0.1226708E+00
        -11   -1    0    0    0    0  0.00000000000E+00  0.00000000000E+00  0.45593999997E+02  0.45594000000E+02  0.51100000000E-03 0. -1.
         11   -1    0    0    0    0 -0.00000000000E+00 -0.00000000000E+00 -0.45593999997E+02  0.45594000000E+02  0.51100000000E-03 0.  1.
    9900012    2    1    2    0    0  0.16956445094E+02 -0.70324093206E+01 -0.37015948200E+01  0.72461611793E+02  0.70000054059E+02 0.  0.
        -12    1    1    2    0    0 -0.16956445094E+02  0.70324093206E+01  0.37015948200E+01  0.18726388207E+02  0.00000000000E+00 0.  1.
         11    1    3    3    0    0  0.12353732043E+02 -0.13653347691E+02 -0.17736578418E+01  0.18497958292E+02  0.51100000000E-03 0. -1.
        -11    1    3    3    0    0  0.92492199028E+01  0.29285779591E+02  0.36744367236E+00  0.30713840043E+02  0.51100000000E-03 0.  1.
        -12    1    3    3    0    0 -0.46465068519E+01 -0.22664841221E+02 -0.22953806505E+01  0.23249813458E+02  0.00000000000E+00 0.  1.
</event>
<event>
 7    1  0.1826069E-013  0.7246148E+02  0.7816164E-02  0.1226708E+00
        -11   -1    0    0    0    0  0.00000000000E+00  0.00000000000E+00  0.45593999997E+02  0.45594000000E+02  0.51100000000E-03 0. -1.
         11   -1    0    0    0    0 -0.00000000000E+00 -0.00000000000E+00 -0.45593999997E+02  0.45594000000E+02  0.51100000000E-03 0.  1.
    9900012    2    1    2    0    0 -0.22497869524E+01 -0.18589877520E+02  0.19403731449E+00  0.72461475015E+02  0.69999875880E+02 0.  0.
        -12    1    1    2    0    0  0.22497869524E+01  0.18589877520E+02 -0.19403731449E+00  0.18726524985E+02  0.00000000000E+00 0.  1.
         11    1    3    3    0    0 -0.18814651210E+02  0.11651648451E+02  0.15617634538E+02  0.27086205357E+02  0.51100000000E-03 0. -1.
        -11    1    3    3    0    0  0.72867934477E+01 -0.13406375635E+02 -0.20441609896E+02  0.25508580553E+02  0.51100000000E-03 0.  1.
        -12    1    3    3    0    0  0.92780708102E+01 -0.16835150337E+02  0.50180126727E+01  0.19866689105E+02  0.00000000000E+00 0.  1.
</event>
<event>
 7    1  0.1826069E-013  0.7246168E+02  0.7816164E-02  0.1226708E+00
        -11   -1    0    0    0    0  0.00000000000E+00  0.00000000000E+00  0.45593999997E+02  0.45594000000E+02  0.51100000000E-03 0.  1.
         11   -1    0    0    0    0 -0.00000000000E+00 -0.00000000000E+00 -0.45593999997E+02  0.45594000000E+02  0.51100000000E-03 0. -1.
    9900012    2    1    2    0    0 -0.11088596012E+02 -0.14075497577E+02 -0.54404505376E+01  0.72461679069E+02  0.70000141699E+02 0.  0.
        -12    1    1    2    0    0  0.11088596012E+02  0.14075497577E+02  0.54404505376E+01  0.18726320931E+02  0.00000000000E+00 0.  1.
         11    1    3    3    0    0  0.54783254207E+00  0.55337224322E+01 -0.18072334133E+02  0.18908502472E+02  0.51100000000E-03 0. -1.
        -11    1    3    3    0    0 -0.23850929632E+02 -0.53585021678E+01  0.21718975622E+02  0.32700065629E+02  0.51100000000E-03 0.  1.
        -12    1    3    3    0    0  0.12214501077E+02 -0.14250717841E+02 -0.90870920269E+01  0.20853110968E+02  0.00000000000E+00 0.  1.
</event>
<event>
 7    1  0.1826069E-013  0.7246154E+02  0.7816164E-02  0.1226708E+00
        -11   -1    0    0    0    0  0.00000000000E+00  0.00000000000E+00  0.45593999997E+02  0.45594000000E+02  0.51100000000E-03 0. -1.
         11   -1    0    0    0    0 -0.00000000000E+00 -0.00000000000E+00 -0.45593999997E+02  0.45594000000E+02  0.51100000000E-03 0.  1.
    9900012    2    1    2    0    0 -0.10123130148E+02 -0.85202273667E+01  0.13251723228E+02  0.72461542597E+02  0.69999963919E+02 0.  0.
        -12    1    1    2    0    0  0.10123130148E+02  0.85202273667E+01 -0.13251723228E+02  0.18726457403E+02  0.00000000000E+00 0.  1.
         11    1    3    3    0    0  0.15004807758E+01 -0.19060104799E+02  0.37816414254E+02  0.42374759289E+02  0.51100000000E-03 0. -1.
        -11    1    3    3    0    0 -0.11730152784E+02  0.69824222967E+01 -0.17682487983E+02  0.22338779891E+02  0.51100000000E-03 0.  1.
         12    1    3    3    0    0  0.10654186092E+00  0.35574551360E+01 -0.68822030438E+01  0.77480034169E+01  0.00000000000E+00 0. -1.
</event>
<event>
 7    1  0.1826069E-013  0.7246161E+02  0.7816164E-02  0.1226708E+00
        -11   -1    0    0    0    0  0.00000000000E+00  0.00000000000E+00  0.45593999997E+02  0.45594000000E+02  0.51100000000E-03 0.  1.
         11   -1    0    0    0    0 -0.00000000000E+00 -0.00000000000E+00 -0.45593999997E+02  0.45594000000E+02  0.51100000000E-03 0. -1.
    9900012    2    1    2    0    0 -0.11627967929E+02 -0.13265020934E+02 -0.62854695379E+01  0.72461613647E+02  0.70000056474E+02 0.  0.
        -12    1    1    2    0    0  0.11627967929E+02  0.13265020934E+02  0.62854695379E+01  0.18726386353E+02  0.00000000000E+00 0.  1.
         11    1    3    3    0    0  0.13813517960E+02 -0.25554359098E+02  0.88614054096E+01  0.30370430577E+02  0.51100000000E-03 0. -1.
        -11    1    3    3    0    0 -0.25036417444E+02 -0.13551914856E+01 -0.13096856213E+02  0.28287565914E+02  0.51100000000E-03 0.  1.
        -12    1    3    3    0    0 -0.40506844439E+00  0.13644529649E+02 -0.20500187345E+01  0.13803617156E+02  0.00000000000E+00 0.  1.
</event>
<event>
 7    1  0.1826069E-013  0.7246157E+02  0.7816164E-02  0.1226708E+00
        -11   -1    0    0    0    0  0.00000000000E+00  0.00000000000E+00  0.45593999997E+02  0.45594000000E+02  0.51100000000E-03 0.  1.
         11   -1    0    0    0    0 -0.00000000000E+00 -0.00000000000E+00 -0.45593999997E+02  0.45594000000E+02  0.51100000000E-03 0. -1.
    9900012    2    1    2    0    0 -0.76719189166E+01 -0.16554707056E+02 -0.42145432141E+01  0.72461573750E+02  0.70000004502E+02 0.  0.
        -12    1    1    2    0    0  0.76719189166E+01  0.16554707056E+02  0.42145432141E+01  0.18726426250E+02  0.00000000000E+00 0.  1.
         11    1    3    3    0    0  0.59177680477E+01 -0.11036265534E+02  0.79458032916E+01  0.14830877446E+02  0.51100000000E-03 0. -1.
        -11    1    3    3    0    0 -0.23020496893E+02  0.13489698723E+02  0.85118629394E+01  0.28006553872E+02  0.51100000000E-03 0.  1.
        -12    1    3    3    0    0  0.94308099286E+01 -0.19008140246E+02 -0.20672209445E+02  0.29624142432E+02  0.00000000000E+00 0.  1.
</event>
<event>
 7    1  0.1826069E-013  0.7246160E+02  0.7816164E-02  0.1226708E+00
        -11   -1    0    0    0    0  0.00000000000E+00  0.00000000000E+00  0.45593999997E+02  0.45594000000E+02  0.51100000000E-03 0. -1.
         11   -1    0    0    0    0 -0.00000000000E+00 -0.00000000000E+00 -0.45593999997E+02  0.45594000000E+02  0.51100000000E-03 0.  1.
    9900012    2    1    2    0    0 -0.42791855552E+00 -0.18543262761E+02 -0.25772581809E+01  0.72461602380E+02  0.70000041797E+02 0.  0.
        -12    1    1    2    0    0  0.42791855552E+00  0.18543262761E+02  0.25772581809E+01  0.18726397620E+02  0.00000000000E+00 0.  1.
         11    1    3    3    0    0  0.57467998765E+01 -0.10139646610E+01  0.21262083652E+02  0.22048356734E+02  0.51100000000E-03 0. -1.
        -11    1    3    3    0    0  0.13657676312E+02 -0.28723462879E+01 -0.21512345121E+02  0.25643000766E+02  0.51100000000E-03 0.  1.
        -12    1    3    3    0    0 -0.19832394744E+02 -0.14656951812E+02 -0.23269967125E+01  0.24770244880E+02  0.00000000000E+00 0.  1.
</event>
<event>
 7    1  0.1826069E-013  0.7246156E+02  0.7816164E-02  0.1226708E+00
        -11   -1    0    0    0    0  0.00000000000E+00  0.00000000000E+00  0.45593999997E+02  0.45594000000E+02  0.51100000000E-03 0. -1.
         11   -1    0    0    0    0 -0.00000000000E+00 -0.00000000000E+00 -0.45593999997E+02  0.45594000000E+02  0.51100000000E-03 0.  1.
    9900012    2    1    2    0    0 -0.92845039631E+01 -0.82542652123E+01  0.14012300515E+02  0.72461562171E+02  0.69999989418E+02 0.  0.
        -12    1    1    2    0    0  0.92845039631E+01  0.82542652123E+01 -0.14012300515E+02  0.18726437829E+02  0.00000000000E+00 0.  1.
         11    1    3    3    0    0  0.91763533070E+01 -0.13534729147E+02  0.25624414119E+02  0.30397449766E+02  0.51100000000E-03 0. -1.
        -11    1    3    3    0    0 -0.25578790217E+01  0.19132544329E+02 -0.46526996208E+01  0.19855593962E+02  0.51100000000E-03 0.  1.
         12    1    3    3    0    0 -0.15902978248E+02 -0.13852080394E+02 -0.69594139834E+01  0.22208518443E+02  0.00000000000E+00 0. -1.
</event>
<event>
 7    1  0.1826069E-013  0.7246156E+02  0.7816164E-02  0.1226708E+00
        -11   -1    0    0    0    0  0.00000000000E+00  0.00000000000E+00  0.45593999997E+02  0.45594000000E+02  0.51100000000E-03 0. -1.
         11   -1    0    0    0    0 -0.00000000000E+00 -0.00000000000E+00 -0.45593999997E+02  0.45594000000E+02  0.51100000000E-03 0.  1.
    9900012    2    1    2    0    0 -0.39504698773E+01  0.50299939727E+01  0.17600354201E+02  0.72461560947E+02  0.69999987823E+02 0.  0.
        -12    1    1    2    0    0  0.39504698773E+01 -0.50299939727E+01 -0.17600354201E+02  0.18726439053E+02  0.00000000000E+00 0.  1.
         11    1    3    3    0    0  0.25380385506E+01 -0.27033363055E+02  0.78327361562E+01  0.28259442912E+02  0.51100000000E-03 0. -1.
        -11    1    3    3    0    0  0.10572831578E+02  0.14796211527E+02  0.42056160944E+00  0.18190368755E+02  0.51100000000E-03 0.  1.
        -12    1    3    3    0    0 -0.17061340006E+02  0.17267145501E+02  0.93470564353E+01  0.26011749279E+02  0.00000000000E+00 0.  1.
</event>
<event>
 7    1  0.1826069E-013  0.7246143E+02  0.7816164E-02  0.1226708E+00
        -11   -1    0    0    0    0  0.00000000000E+00  0.00000000000E+00  0.45593999997E+02  0.45594000000E+02  0.51100000000E-03 0.  1.
         11   -1    0    0    0    0 -0.00000000000E+00 -0.00000000000E+00 -0.45593999997E+02  0.45594000000E+02  0.51100000000E-03 0. -1.
    9900012    2    1    2    0    0 -0.18082684210E+02  0.32689500456E+01 -0.36076281607E+01  0.72461428408E+02  0.69999815166E+02 0.  0.
        -12    1    1    2    0    0  0.18082684210E+02 -0.32689500456E+01  0.36076281607E+01  0.18726571592E+02  0.00000000000E+00 0.  1.
         11    1    3    3    0    0  0.96107368671E+00 -0.46330866426E+01  0.31077043557E+01  0.56610053076E+01  0.51100000000E-03 0. -1.
        -11    1    3    3    0    0 -0.31011557221E+02  0.26481155621E+02  0.61312029150E+01  0.41237845891E+02  0.51100000000E-03 0.  1.
        -12    1    3    3    0    0  0.11967799324E+02 -0.18579118933E+02 -0.12846535431E+02  0.25562577209E+02  0.00000000000E+00 0.  1.
</event>
<event>
 7    1  0.1826069E-013  0.7246155E+02  0.7816164E-02  0.1226708E+00
        -11   -1    0    0    0    0  0.00000000000E+00  0.00000000000E+00  0.45593999997E+02  0.45594000000E+02  0.51100000000E-03 0. -1.
         11   -1    0    0    0    0 -0.00000000000E+00 -0.00000000000E+00 -0.45593999997E+02  0.45594000000E+02  0.51100000000E-03 0.  1.
    9900012    2    1    2    0    0 -0.35918599341E+01 -0.17099709604E+02  0.67363435407E+01  0.72461552109E+02  0.69999976310E+02 0.  0.
        -12    1    1    2    0    0  0.35918599341E+01  0.17099709604E+02 -0.67363435407E+01  0.18726447891E+02  0.00000000000E+00 0.  1.
         11    1    3    3    0    0 -0.86483141351E+01 -0.15801386331E+02  0.29035405486E+02  0.34169166208E+02  0.51100000000E-03 0. -1.
        -11    1    3    3    0    0 -0.38135593909E+01  0.13257827517E+02 -0.12582630262E+02  0.18671791833E+02  0.51100000000E-03 0.  1.
         12    1    3    3    0    0  0.88700135919E+01 -0.14556150789E+02 -0.97164316831E+01  0.19620594068E+02  0.00000000000E+00 0. -1.
</event>
<event>
 7    1  0.1826069E-013  0.7246158E+02  0.7816164E-02  0.1226708E+00
        -11   -1    0    0    0    0  0.00000000000E+00  0.00000000000E+00  0.45593999997E+02  0.45594000000E+02  0.51100000000E-03 0.  1.
         11   -1    0    0    0    0 -0.00000000000E+00 -0.00000000000E+00 -0.45593999997E+02  0.45594000000E+02  0.51100000000E-03 0. -1.
    9900012    2    1    2    0    0  0.11914773674E+02 -0.11151085408E+02 -0.91853244444E+01  0.72461582226E+02  0.70000015544E+02 0.  0.
        -12    1    1    2    0    0 -0.11914773674E+02  0.11151085408E+02  0.91853244444E+01  0.18726417774E+02  0.00000000000E+00 0.  1.
         11    1    3    3    0    0 -0.27053223423E+00 -0.92755240947E+01 -0.16405367523E+02  0.18847934071E+02  0.51100000000E-03 0. -1.
        -11    1    3    3    0    0 -0.33134211471E+01 -0.42221083967E+01  0.27479087335E+02  0.27998307093E+02  0.51100000000E-03 0.  1.
        -12    1    3    3    0    0  0.15498727055E+02  0.23465470829E+01 -0.20259044257E+02  0.25615341063E+02  0.00000000000E+00 0.  1.
</event>
<event>
 7    1  0.1826069E-013  0.7246136E+02  0.7816164E-02  0.1226709E+00
        -11   -1    0    0    0    0  0.00000000000E+00  0.00000000000E+00  0.45593999997E+02  0.45594000000E+02  0.51100000000E-03 0.  1.
         11   -1    0    0    0    0 -0.00000000000E+00 -0.00000000000E+00 -0.45593999997E+02  0.45594000000E+02  0.51100000000E-03 0. -1.
    9900012    2    1    2    0    0  0.25574988334E+01  0.13250499310E+01 -0.18503801343E+02  0.72461355299E+02  0.69999719928E+02 0.  0.
        -12    1    1    2    0    0 -0.25574988334E+01 -0.13250499310E+01  0.18503801343E+02  0.18726644701E+02  0.00000000000E+00 0.  1.
         11    1    3    3    0    0 -0.13117164384E+02 -0.32716494036E+01 -0.11944729221E+02  0.18039962519E+02  0.51100000000E-03 0. -1.
        -11    1    3    3    0    0  0.13306659758E+02 -0.92663822194E+01  0.19164651354E+02  0.25104121078E+02  0.51100000000E-03 0.  1.
        -12    1    3    3    0    0  0.23680034594E+01  0.13863081554E+02 -0.25723723476E+02  0.29317271702E+02  0.00000000000E+00 0.  1.
</event>
<event>
 7    1  0.1826069E-013  0.7246163E+02  0.7816164E-02  0.1226708E+00
        -11   -1    0    0    0    0  0.00000000000E+00  0.00000000000E+00  0.45593999997E+02  0.45594000000E+02  0.51100000000E-03 0.  1.
         11   -1    0    0    0    0 -0.00000000000E+00 -0.00000000000E+00 -0.45593999997E+02  0.45594000000E+02  0.51100000000E-03 0. -1.
    9900012    2    1    2    0    0  0.24434948296E+01 -0.79751925110E+01 -0.16766118390E+02  0.72461625860E+02  0.70000072384E+02 0.  0.
        -12    1    1    2    0    0 -0.24434948296E+01  0.79751925110E+01  0.16766118390E+02  0.18726374140E+02  0.00000000000E+00 0.  1.
         11    1    3    3    0    0 -0.88639758188E+01  0.35543791532E+01 -0.19227283597E+02  0.21468398013E+02  0.51100000000E-03 0. -1.
        -11    1    3    3    0    0  0.49438956886E+00 -0.45534871543E+01  0.24796619851E+02  0.25216086584E+02  0.51100000000E-03 0.  1.
         12    1    3    3    0    0  0.10813081080E+02 -0.69760845098E+01 -0.22335454644E+02  0.25777141263E+02  0.00000000000E+00 0. -1.
</event>
<event>
 7    1  0.1826069E-013  0.7246154E+02  0.7816164E-02  0.1226708E+00
        -11   -1    0    0    0    0  0.00000000000E+00  0.00000000000E+00  0.45593999997E+02  0.45594000000E+02  0.51100000000E-03 0.  1.
         11   -1    0    0    0    0 -0.00000000000E+00 -0.00000000000E+00 -0.45593999997E+02  0.45594000000E+02  0.51100000000E-03 0. -1.
    9900012    2    1    2    0    0 -0.18352769362E+02  0.17766121844E+00 -0.37181253880E+01  0.72461543764E+02  0.69999965440E+02 0.  0.
        -12    1    1    2    0    0  0.18352769362E+02 -0.17766121844E+00  0.37181253880E+01  0.18726456236E+02  0.00000000000E+00 0.  1.
         11    1    3    3    0    0 -0.73888089084E+01  0.12191398873E+02 -0.19335135796E+02  0.24022326700E+02  0.51100000000E-03 0. -1.
        -11    1    3    3    0    0 -0.62308697558E+01 -0.61581003199E+01  0.30514495734E+02  0.31747131959E+02  0.51100000000E-03 0.  1.
        -12    1    3    3    0    0 -0.47330906973E+01 -0.58556373350E+01 -0.14897485326E+02  0.16692085106E+02  0.00000000000E+00 0.  1.
</event>
<event>
 7    1  0.1826069E-013  0.7246158E+02  0.7816164E-02  0.1226708E+00
        -11   -1    0    0    0    0  0.00000000000E+00  0.00000000000E+00  0.45593999997E+02  0.45594000000E+02  0.51100000000E-03 0. -1.
         11   -1    0    0    0    0 -0.00000000000E+00 -0.00000000000E+00 -0.45593999997E+02  0.45594000000E+02  0.51100000000E-03 0.  1.
    9900012    2    1    2    0    0 -0.13016039527E+02 -0.11919429692E+02  0.62600918579E+01  0.72461579113E+02  0.70000011488E+02 0.  0.
        -12    1    1    2    0    0  0.13016039527E+02  0.11919429692E+02 -0.62600918579E+01  0.18726420887E+02  0.00000000000E+00 0.  1.
         11    1    3    3    0    0 -0.99863736791E+01  0.53351545627E+01  0.14071324745E+02  0.18060833697E+02  0.51100000000E-03 0. -1.
        -11    1    3    3    0    0  0.72803446457E+01 -0.33654261789E+02 -0.40828142692E+01  0.34673940176E+02  0.51100000000E-03 0.  1.
        -12    1    3    3    0    0 -0.10310010494E+02  0.16399677534E+02 -0.37284186181E+01  0.19726805240E+02  0.00000000000E+00 0.  1.
</event>
<event>
 7    1  0.1826069E-013  0.7246159E+02  0.7816164E-02  0.1226708E+00
        -11   -1    0    0    0    0  0.00000000000E+00  0.00000000000E+00  0.45593999997E+02  0.45594000000E+02  0.51100000000E-03 0. -1.
         11   -1    0    0    0    0 -0.00000000000E+00 -0.00000000000E+00 -0.45593999997E+02  0.45594000000E+02  0.51100000000E-03 0.  1.
    9900012    2    1    2    0    0 -0.14819051107E+02 -0.56452943244E+00  0.11434839752E+02  0.72461587387E+02  0.70000022266E+02 0.  0.
        -12    1    1    2    0    0  0.14819051107E+02  0.56452943244E+00 -0.11434839752E+02  0.18726412613E+02  0.00000000000E+00 0.  1.
         11    1    3    3    0    0 -0.20262427098E+02  0.27714053572E+02  0.21731237486E+02  0.40631039861E+02  0.51100000000E-03 0. -1.
        -11    1    3    3    0    0  0.11784585052E+01 -0.74983394347E+01  0.12277076313E+01  0.76890262723E+01  0.51100000000E-03 0.  1.
         12    1    3    3    0    0  0.42649174852E+01 -0.20780243569E+02 -0.11524105366E+02  0.24141521254E+02  0.00000000000E+00 0. -1.
</event>
<event>
 7    1  0.1826069E-013  0.7246150E+02  0.7816164E-02  0.1226708E+00
        -11   -1    0    0    0    0  0.00000000000E+00  0.00000000000E+00  0.45593999997E+02  0.45594000000E+02  0.51100000000E-03 0. -1.
         11   -1    0    0    0    0 -0.00000000000E+00 -0.00000000000E+00 -0.45593999997E+02  0.45594000000E+02  0.51100000000E-03 0.  1.
    9900012    2    1    2    0    0 -0.29469689129E+01  0.24886404533E+01  0.18324956472E+02  0.72461495073E+02  0.69999902010E+02 0.  0.
        -12    1    1    2    0    0  0.29469689129E+01 -0.24886404533E+01 -0.18324956472E+02  0.18726504927E+02  0.00000000000E+00 0.  1.
         11    1    3    3    0    0 -0.30500090982E+02  0.18378062488E+01  0.19662285025E+02  0.36335086822E+02  0.51100000000E-03 0. -1.
        -11    1    3    3    0    0  0.12347648121E+02  0.64651688125E+01 -0.10495825586E+02  0.17447784297E+02  0.51100000000E-03 0.  1.
         12    1    3    3    0    0  0.15205473948E+02 -0.58143346080E+01  0.91584970322E+01  0.18678623954E+02  0.00000000000E+00 0. -1.
</event>
<event>
 7    1  0.1826069E-013  0.7246156E+02  0.7816164E-02  0.1226708E+00
        -11   -1    0    0    0    0  0.00000000000E+00  0.00000000000E+00  0.45593999997E+02  0.45594000000E+02  0.51100000000E-03 0.  1.
         11   -1    0    0    0    0 -0.00000000000E+00 -0.00000000000E+00 -0.45593999997E+02  0.45594000000E+02  0.51100000000E-03 0. -1.
    9900012    2    1    2    0    0 -0.50489716450E+01 -0.42053563388E+01 -0.17535743440E+02  0.72461563216E+02  0.69999990780E+02 0.  0.
        -12    1    1    2    0    0  0.50489716450E+01  0.42053563388E+01  0.17535743440E+02  0.18726436784E+02  0.00000000000E+00 0.  1.
         11    1    3    3    0    0  0.12309823471E+02  0.15211705009E+02  0.82695855663E+01  0.21244146696E+02  0.51100000000E-03 0.  1.
        -11    1    3    3    0    0 -0.68151080575E+01 -0.16144029074E+02 -0.33468446980E+02  0.37778463654E+02  0.51100000000E-03 0. -1.
        -12    1    3    3    0    0 -0.10543687059E+02 -0.32730322736E+01  0.76631179731E+01  0.13438952866E+02  0.00000000000E+00 0.  1.
</event>
<event>
 7    1  0.1826069E-013  0.7246158E+02  0.7816164E-02  0.1226708E+00
        -11   -1    0    0    0    0  0.00000000000E+00  0.00000000000E+00  0.45593999997E+02  0.45594000000E+02  0.51100000000E-03 0.  1.
         11   -1    0    0    0    0 -0.00000000000E+00 -0.00000000000E+00 -0.45593999997E+02  0.45594000000E+02  0.51100000000E-03 0. -1.
    9900012    2    1    2    0    0  0.11648617172E+02 -0.41472042607E+01 -0.14063749415E+02  0.72461584624E+02  0.70000018667E+02 0.  0.
        -12    1    1    2    0    0 -0.11648617172E+02  0.41472042607E+01  0.14063749415E+02  0.18726415376E+02  0.00000000000E+00 0.  1.
         11    1    3    3    0    0  0.28090872462E+02 -0.66256132907E+01 -0.20097963934E+01  0.28931559739E+02  0.51100000000E-03 0. -1.
        -11    1    3    3    0    0 -0.22581612899E+02 -0.12361890317E+02 -0.81368752665E+01  0.26999153925E+02  0.51100000000E-03 0.  1.
        -12    1    3    3    0    0  0.61393576091E+01  0.14840299347E+02 -0.39170777552E+01  0.16530870960E+02  0.00000000000E+00 0.  1.
</event>
<event>
 7    1  0.1826069E-013  0.7246167E+02  0.7816164E-02  0.1226708E+00
        -11   -1    0    0    0    0  0.00000000000E+00  0.00000000000E+00  0.45593999997E+02  0.45594000000E+02  0.51100000000E-03 0.  1.
         11   -1    0    0    0    0 -0.00000000000E+00 -0.00000000000E+00 -0.45593999997E+02  0.45594000000E+02  0.51100000000E-03 0. -1.
    9900012    2    1    2    0    0  0.54088534867E+01  0.16560241629E+02 -0.68686278895E+01  0.72461672332E+02  0.70000132922E+02 0.  0.
        -12    1    1    2    0    0 -0.54088534867E+01 -0.16560241629E+02  0.68686278895E+01  0.18726327668E+02  0.00000000000E+00 0.  1.
         11    1    3    3    0    0 -0.14647430718E+02  0.15077297266E+02  0.50479354045E+00  0.21026814696E+02  0.51100000000E-03 0. -1.
        -11    1    3    3    0    0 -0.43351988852E+01 -0.17700290088E+02 -0.90728207734E+01  0.20357069917E+02  0.51100000000E-03 0.  1.
        -12    1    3    3    0    0  0.24391483090E+02  0.19183234451E+02  0.16993993434E+01  0.31077787718E+02  0.00000000000E+00 0.  1.
</event>
<event>
 7    1  0.1826069E-013  0.7246154E+02  0.7816164E-02  0.1226708E+00
        -11   -1    0    0    0    0  0.00000000000E+00  0.00000000000E+00  0.45593999997E+02  0.45594000000E+02  0.51100000000E-03 0.  1.
         11   -1    0    0    0    0 -0.00000000000E+00 -0.00000000000E+00 -0.45593999997E+02  0.45594000000E+02  0.51100000000E-03 0. -1.
    9900012    2    1    2    0    0  0.88396620543E+01 -0.49610632094E+01 -0.15745749068E+02  0.72461537784E+02  0.69999957649E+02 0.  0.
        -12    1    1    2    0    0 -0.88396620543E+01  0.49610632094E+01  0.15745749068E+02  0.18726462216E+02  0.00000000000E+00 0.  1.
         11    1    3    3    0    0  0.21850385080E+02 -0.11113351670E+02 -0.54295694436E+01  0.25108288235E+02  0.51100000000E-03 0. -1.
        -11    1    3    3    0    0 -0.18631218155E+02  0.65120230708E+01  0.12824459515E+02  0.23537108924E+02  0.51100000000E-03 0.  1.
        -12    1    3    3    0    0  0.56204951299E+01 -0.35973460972E+00 -0.23140639139E+02  0.23816140625E+02  0.00000000000E+00 0.  1.
</event>
<event>
 7    1  0.1826069E-013  0.7246169E+02  0.7816164E-02  0.1226708E+00
        -11   -1    0    0    0    0  0.00000000000E+00  0.00000000000E+00  0.45593999997E+02  0.45594000000E+02  0.51100000000E-03 0. -1.
         11   -1    0    0    0    0 -0.00000000000E+00 -0.00000000000E+00 -0.45593999997E+02  0.45594000000E+02  0.51100000000E-03 0.  1.
    9900012    2    1    2    0    0 -0.33096650367E+01 -0.15680754826E+02  0.96868248811E+01  0.72461694149E+02  0.70000161343E+02 0.  0.
        -12    1    1    2    0    0  0.33096650367E+01  0.15680754826E+02 -0.96868248811E+01  0.18726305851E+02  0.00000000000E+00 0.  1.
         11    1    3    3    0    0 -0.23561203927E+02 -0.42929330551E+01  0.24670289019E+02  0.34382884772E+02  0.51100000000E-03 0. -1.
        -11    1    3    3    0    0  0.48089710542E+01 -0.94628039856E+01 -0.19214777992E+02  0.21951732401E+02  0.51100000000E-03 0.  1.
        -12    1    3    3    0    0  0.15442567836E+02 -0.19250177852E+01  0.42313138536E+01  0.16127076975E+02  0.00000000000E+00 0.  1.
</event>
<event>
 7    1  0.1826069E-013  0.7246162E+02  0.7816164E-02  0.1226708E+00
        -11   -1    0    0    0    0  0.00000000000E+00  0.00000000000E+00  0.45593999997E+02  0.45594000000E+02  0.51100000000E-03 0. -1.
         11   -1    0    0    0    0 -0.00000000000E+00 -0.00000000000E+00 -0.45593999997E+02  0.45594000000E+02  0.51100000000E-03 0.  1.
    9900012    2    1    2    0    0  0.13838749766E+02  0.53337684587E+01  0.11433169679E+02  0.72461616206E+02  0.70000059809E+02 0.  0.
        -12    1    1    2    0    0 -0.13838749766E+02 -0.53337684587E+01 -0.11433169679E+02  0.18726383794E+02  0.00000000000E+00 0.  1.
         11    1    3    3    0    0 -0.13238272120E+02  0.14641011398E+02  0.11077629008E+02  0.22634595826E+02  0.51100000000E-03 0. -1.
        -11    1    3    3    0    0  0.11566902337E+02 -0.19257953397E+02  0.14377075117E+02  0.26671375816E+02  0.51100000000E-03 0.  1.
        -12    1    3    3    0    0  0.15510119549E+02  0.99507104571E+01 -0.14021534446E+02  0.23155644565E+02  0.00000000000E+00 0.  1.
</event>
<event>
 7    1  0.1826069E-013  0.7246155E+02  0.7816164E-02  0.1226708E+00
        -11   -1    0    0    0    0  0.00000000000E+00  0.00000000000E+00  0.45593999997E+02  0.45594000000E+02  0.51100000000E-03 0.  1.
         11   -1    0    0    0    0 -0.00000000000E+00 -0.00000000000E+00 -0.45593999997E+02  0.45594000000E+02  0.51100000000E-03 0. -1.
    9900012    2    1    2    0    0  0.10708047977E+02 -0.43077054256E+00 -0.15356819309E+02  0.72461554688E+02  0.69999979669E+02 0.  0.
        -12    1    1    2    0    0 -0.10708047977E+02  0.43077054256E+00  0.15356819309E+02  0.18726445312E+02  0.00000000000E+00 0.  1.
         11    1    3    3    0    0  0.21083982647E+02 -0.59469798752E+01 -0.26268206925E+02  0.34204087318E+02  0.51100000000E-03 0. -1.
        -11    1    3    3    0    0 -0.17068794816E+02 -0.98026651825E+01  0.35931692763E+01  0.20008669793E+02  0.51100000000E-03 0.  1.
        -12    1    3    3    0    0  0.66928601463E+01  0.15318874515E+02  0.73182183397E+01  0.18248797577E+02  0.00000000000E+00 0.  1.
</event>
<event>
 7    1  0.1826069E-013  0.7246157E+02  0.7816164E-02  0.1226708E+00
        -11   -1    0    0    0    0  0.00000000000E+00  0.00000000000E+00  0.45593999997E+02  0.45594000000E+02  0.51100000000E-03 0.  1.
         11   -1    0    0    0    0 -0.00000000000E+00 -0.00000000000E+00 -0.45593999997E+02  0.45594000000E+02  0.51100000000E-03 0. -1.
    9900012    2    1    2    0    0 -0.18703717395E+02 -0.53618476313E+00 -0.75009434463E+00  0.72461570014E+02  0.69999999634E+02 0.  0.
        -12    1    1    2    0    0  0.18703717395E+02  0.53618476313E+00  0.75009434463E+00  0.18726429986E+02  0.00000000000E+00 0.  1.
         11    1    3    3    0    0 -0.30247850733E+02  0.20161563107E+02 -0.41895421114E+01  0.36591984973E+02  0.51100000000E-03 0. -1.
        -11    1    3    3    0    0 -0.14788700444E+01 -0.19185860966E+02  0.94605087841E+01  0.21442610483E+02  0.51100000000E-03 0.  1.
         12    1    3    3    0    0  0.13023003382E+02 -0.15118869043E+01 -0.60210610173E+01  0.14426974557E+02  0.00000000000E+00 0. -1.
</event>
<event>
 7    1  0.1826069E-013  0.7246156E+02  0.7816164E-02  0.1226708E+00
        -11   -1    0    0    0    0  0.00000000000E+00  0.00000000000E+00  0.45593999997E+02  0.45594000000E+02  0.51100000000E-03 0. -1.
         11   -1    0    0    0    0 -0.00000000000E+00 -0.00000000000E+00 -0.45593999997E+02  0.45594000000E+02  0.51100000000E-03 0.  1.
    9900012    2    1    2    0    0  0.10076509730E+02  0.12215445942E+02  0.99963238399E+01  0.72461557247E+02  0.69999983003E+02 0.  0.
        -12    1    1    2    0    0 -0.10076509730E+02 -0.12215445942E+02 -0.99963238399E+01  0.18726442753E+02  0.00000000000E+00 0.  1.
         11    1    3    3    0    0 -0.81332498904E+01  0.95276705735E+01 -0.21826776304E+02  0.25166136462E+02  0.51100000000E-03 0.  1.
        -11    1    3    3    0    0  0.17557561218E+02  0.14646215824E+02  0.22901879413E+02  0.32361638939E+02  0.51100000000E-03 0. -1.
         12    1    3    3    0    0  0.65219840177E+00 -0.11958440456E+02  0.89212207311E+01  0.14933781846E+02  0.00000000000E+00 0. -1.
</event>
<event>
 7    1  0.1826069E-013  0.7246173E+02  0.7816164E-02  0.1226708E+00
        -11   -1    0    0    0    0  0.00000000000E+00  0.00000000000E+00  0.45593999997E+02  0.45594000000E+02  0.51100000000E-03 0. -1.
         11   -1    0    0    0    0 -0.00000000000E+00 -0.00000000000E+00 -0.45593999997E+02  0.45594000000E+02  0.51100000000E-03 0.  1.
    9900012    2    1    2    0    0 -0.17218620293E+02  0.73579765767E+01 -0.22876377419E+00  0.72461734036E+02  0.70000213304E+02 0.  0.
        -12    1    1    2    0    0  0.17218620293E+02 -0.73579765767E+01  0.22876377419E+00  0.18726265964E+02  0.00000000000E+00 0.  1.
         11    1    3    3    0    0 -0.10646157150E+02  0.35147425856E+01 -0.19353822759E+02  0.22366594134E+02  0.51100000000E-03 0. -1.
        -11    1    3    3    0    0 -0.19940892809E+02 -0.10552020972E+02  0.20389545998E+02  0.30409175242E+02  0.51100000000E-03 0.  1.
         12    1    3    3    0    0  0.13368429666E+02  0.14395254963E+02 -0.12644870134E+01  0.19685964660E+02  0.00000000000E+00 0. -1.
</event>
<event>
 7    1  0.1826069E-013  0.7246161E+02  0.7816164E-02  0.1226708E+00
        -11   -1    0    0    0    0  0.00000000000E+00  0.00000000000E+00  0.45593999997E+02  0.45594000000E+02  0.51100000000E-03 0. -1.
         11   -1    0    0    0    0 -0.00000000000E+00 -0.00000000000E+00 -0.45593999997E+02  0.45594000000E+02  0.51100000000E-03 0.  1.
    9900012    2    1    2    0    0  0.79913800367E+01 -0.36805863539E+01  0.16530847927E+02  0.72461606755E+02  0.70000047497E+02 0.  0.
        -12    1    1    2    0    0 -0.79913800367E+01  0.36805863539E+01 -0.16530847927E+02  0.18726393245E+02  0.00000000000E+00 0.  1.
         11    1    3    3    0    0  0.91465244513E+01  0.19954028679E+02 -0.53980705710E+01  0.22604453902E+02  0.51100000000E-03 0. -1.
        -11    1    3    3    0    0 -0.17791234555E+02 -0.19923075866E+02  0.81116923708E+01  0.27915166708E+02  0.51100000000E-03 0.  1.
        -12    1    3    3    0    0  0.16636090141E+02 -0.37115391668E+01  0.13817226127E+02  0.21941986145E+02  0.00000000000E+00 0.  1.
</event>
<event>
 7    1  0.1826069E-013  0.7246156E+02  0.7816164E-02  0.1226708E+00
        -11   -1    0    0    0    0  0.00000000000E+00  0.00000000000E+00  0.45593999997E+02  0.45594000000E+02  0.51100000000E-03 0. -1.
         11   -1    0    0    0    0 -0.00000000000E+00 -0.00000000000E+00 -0.45593999997E+02  0.45594000000E+02  0.51100000000E-03 0.  1.
    9900012    2    1    2    0    0  0.10317891842E+02  0.11450922536E+02  0.10634714790E+02  0.72461556727E+02  0.69999982326E+02 0.  0.
        -12    1    1    2    0    0 -0.10317891842E+02 -0.11450922536E+02 -0.10634714790E+02  0.18726443273E+02  0.00000000000E+00 0.  1.
         11    1    3    3    0    0  0.30408942425E+02 -0.13666763177E+02  0.31572222575E+01  0.33488091134E+02  0.51100000000E-03 0. -1.
        -11    1    3    3    0    0  0.14920013586E+01  0.10443709840E+02 -0.28142051076E+01  0.10918648906E+02  0.51100000000E-03 0.  1.
         12    1    3    3    0    0 -0.21583051942E+02  0.14673975873E+02  0.10291697640E+02  0.28054816687E+02  0.00000000000E+00 0. -1.
</event>
<event>
 7    1  0.1826069E-013  0.7246162E+02  0.7816164E-02  0.1226708E+00
        -11   -1    0    0    0    0  0.00000000000E+00  0.00000000000E+00  0.45593999997E+02  0.45594000000E+02  0.51100000000E-03 0. -1.
         11   -1    0    0    0    0 -0.00000000000E+00 -0.00000000000E+00 -0.45593999997E+02  0.45594000000E+02  0.51100000000E-03 0.  1.
    9900012    2    1    2    0    0  0.70223707540E+01  0.15823197596E+02 -0.71407391564E+01  0.72461616770E+02  0.70000060544E+02 0.  0.
        -12    1    1    2    0    0 -0.70223707540E+01 -0.15823197596E+02  0.71407391564E+01  0.18726383230E+02  0.00000000000E+00 0.  1.
         11    1    3    3    0    0  0.60713333664E+01  0.17585562750E+02  0.29233112237E+02  0.34650944538E+02  0.51100000000E-03 0. -1.
        -11    1    3    3    0    0  0.19669794485E+01  0.20118373279E+01 -0.31199058168E+02  0.31325672035E+02  0.51100000000E-03 0.  1.
         12    1    3    3    0    0 -0.10159420609E+01 -0.37742024817E+01 -0.51747932248E+01  0.64850001977E+01  0.00000000000E+00 0. -1.
</event>
<event>
 7    1  0.1826069E-013  0.7246156E+02  0.7816164E-02  0.1226708E+00
        -11   -1    0    0    0    0  0.00000000000E+00  0.00000000000E+00  0.45593999997E+02  0.45594000000E+02  0.51100000000E-03 0. -1.
         11   -1    0    0    0    0 -0.00000000000E+00 -0.00000000000E+00 -0.45593999997E+02  0.45594000000E+02  0.51100000000E-03 0.  1.
    9900012    2    1    2    0    0  0.29773327085E+01 -0.13471212886E+02  0.12662605935E+02  0.72461556778E+02  0.69999982393E+02 0.  0.
        -12    1    1    2    0    0 -0.29773327085E+01  0.13471212886E+02 -0.12662605935E+02  0.18726443222E+02  0.00000000000E+00 0.  1.
         11    1    3    3    0    0  0.14136673952E+02  0.79097817016E-01 -0.43767540512E+00  0.14143668793E+02  0.51100000000E-03 0. -1.
        -11    1    3    3    0    0  0.14155896920E+01 -0.95449589035E+01  0.33032237290E+02  0.34412771398E+02  0.51100000000E-03 0.  1.
        -12    1    3    3    0    0 -0.12574930936E+02 -0.40053517997E+01 -0.19931955950E+02  0.23905116588E+02  0.00000000000E+00 0.  1.
</event>
<event>
 7    1  0.1826069E-013  0.7246158E+02  0.7816164E-02  0.1226708E+00
        -11   -1    0    0    0    0  0.00000000000E+00  0.00000000000E+00  0.45593999997E+02  0.45594000000E+02  0.51100000000E-03 0.  1.
         11   -1    0    0    0    0 -0.00000000000E+00 -0.00000000000E+00 -0.45593999997E+02  0.45594000000E+02  0.51100000000E-03 0. -1.
    9900012    2    1    2    0    0  0.29186145631E+01 -0.17047833459E+02  0.71785801702E+01  0.72461576159E+02  0.70000007640E+02 0.  0.
        -12    1    1    2    0    0 -0.29186145631E+01  0.17047833459E+02 -0.71785801702E+01  0.18726423841E+02  0.00000000000E+00 0.  1.
         11    1    3    3    0    0 -0.10827977870E+02 -0.28752544319E+02 -0.17607440895E+02  0.35411521921E+02  0.51100000000E-03 0. -1.
        -11    1    3    3    0    0  0.14803835408E+02  0.42110110458E+00  0.19654071162E+02  0.24609213365E+02  0.51100000000E-03 0.  1.
        -12    1    3    3    0    0 -0.10572429748E+01  0.11283609756E+02  0.51319499034E+01  0.12440840873E+02  0.00000000000E+00 0.  1.
</event>
<event>
 7    1  0.1826069E-013  0.7246142E+02  0.7816164E-02  0.1226708E+00
        -11   -1    0    0    0    0  0.00000000000E+00  0.00000000000E+00  0.45593999997E+02  0.45594000000E+02  0.51100000000E-03 0.  1.
         11   -1    0    0    0    0 -0.00000000000E+00 -0.00000000000E+00 -0.45593999997E+02  0.45594000000E+02  0.51100000000E-03 0. -1.
    9900012    2    1    2    0    0 -0.98186692839E+01 -0.77773907996E+01 -0.13920868060E+02  0.72461424187E+02  0.69999809668E+02 0.  0.
        -12    1    1    2    0    0  0.98186692839E+01  0.77773907996E+01  0.13920868060E+02  0.18726575813E+02  0.00000000000E+00 0.  1.
         11    1    3    3    0    0  0.21666857863E+02 -0.19813625024E+02  0.68354505225E+01  0.30145577625E+02  0.51100000000E-03 0. -1.
        -11    1    3    3    0    0 -0.84506105279E+01 -0.33188044581E+01 -0.65868284235E+01  0.11216665738E+02  0.51100000000E-03 0.  1.
         12    1    3    3    0    0 -0.23034916619E+02  0.15355038683E+02 -0.14169490159E+02  0.31099180824E+02  0.00000000000E+00 0. -1.
</event>
<event>
 7    1  0.1826069E-013  0.7246156E+02  0.7816164E-02  0.1226708E+00
        -11   -1    0    0    0    0  0.00000000000E+00  0.00000000000E+00  0.45593999997E+02  0.45594000000E+02  0.51100000000E-03 0. -1.
         11   -1    0    0    0    0 -0.00000000000E+00 -0.00000000000E+00 -0.45593999997E+02  0.45594000000E+02  0.51100000000E-03 0.  1.
    9900012    2    1    2    0    0 -0.94621033522E+01  0.12947248260E+02 -0.96704125180E+01  0.72461561053E+02  0.69999987961E+02 0.  0.
        -12    1    1    2    0    0  0.94621033522E+01 -0.12947248260E+02  0.96704125180E+01  0.18726438947E+02  0.00000000000E+00 0.  1.
         11    1    3    3    0    0 -0.24251646078E+02  0.25114549311E+02  0.11980424885E+02  0.36910886000E+02  0.51100000000E-03 0. -1.
        -11    1    3    3    0    0  0.22333268251E+01 -0.99560998359E+01 -0.20312439076E+02  0.22731186817E+02  0.51100000000E-03 0.  1.
         12    1    3    3    0    0  0.12556215901E+02 -0.22112012146E+01 -0.13383983271E+01  0.12819488236E+02  0.00000000000E+00 0. -1.
</event>
<event>
 7    1  0.1826069E-013  0.7246157E+02  0.7816164E-02  0.1226708E+00
        -11   -1    0    0    0    0  0.00000000000E+00  0.00000000000E+00  0.45593999997E+02  0.45594000000E+02  0.51100000000E-03 0. -1.
         11   -1    0    0    0    0 -0.00000000000E+00 -0.00000000000E+00 -0.45593999997E+02  0.45594000000E+02  0.51100000000E-03 0.  1.
    9900012    2    1    2    0    0 -0.72665546358E+01 -0.15066124092E+02 -0.84195114183E+01  0.72461572579E+02  0.70000002977E+02 0.  0.
        -12    1    1    2    0    0  0.72665546358E+01  0.15066124092E+02  0.84195114183E+01  0.18726427421E+02  0.00000000000E+00 0.  1.
         11    1    3    3    0    0 -0.10098050799E+01 -0.36021104575E+02 -0.14040883944E+02  0.38674101196E+02  0.51100000000E-03 0. -1.
        -11    1    3    3    0    0  0.77554620254E+01  0.16527159998E+02  0.55875519192E+01  0.19092274499E+02  0.51100000000E-03 0.  1.
         12    1    3    3    0    0 -0.14012211581E+02  0.44278204854E+01  0.33820606706E-01  0.14695196885E+02  0.00000000000E+00 0. -1.
</event>
<event>
 7    1  0.1826069E-013  0.7246156E+02  0.7816164E-02  0.1226708E+00
        -11   -1    0    0    0    0  0.00000000000E+00  0.00000000000E+00  0.45593999997E+02  0.45594000000E+02  0.51100000000E-03 0.  1.
         11   -1    0    0    0    0 -0.00000000000E+00 -0.00000000000E+00 -0.45593999997E+02  0.45594000000E+02  0.51100000000E-03 0. -1.
    9900012    2    1    2    0    0  0.14461370025E+02  0.35805160922E+01 -0.11345854764E+02  0.72461555094E+02  0.69999980199E+02 0.  0.
        -12    1    1    2    0    0 -0.14461370025E+02 -0.35805160922E+01  0.11345854764E+02  0.18726444906E+02  0.00000000000E+00 0.  1.
         11    1    3    3    0    0  0.11520136735E+02 -0.15921909717E+02 -0.59601712639E+01  0.20536416464E+02  0.51100000000E-03 0. -1.
        -11    1    3    3    0    0  0.12563498328E+02  0.31855429157E+02 -0.98697513237E+01  0.35637365903E+02  0.51100000000E-03 0.  1.
        -12    1    3    3    0    0 -0.96222650378E+01 -0.12353003348E+02  0.44840678238E+01  0.16287772728E+02  0.00000000000E+00 0.  1.
</event>
<event>
 7    1  0.1826069E-013  0.7246158E+02  0.7816164E-02  0.1226708E+00
        -11   -1    0    0    0    0  0.00000000000E+00  0.00000000000E+00  0.45593999997E+02  0.45594000000E+02  0.51100000000E-03 0.  1.
         11   -1    0    0    0    0 -0.00000000000E+00 -0.00000000000E+00 -0.45593999997E+02  0.45594000000E+02  0.51100000000E-03 0. -1.
    9900012    2    1    2    0    0  0.47136426725E+01  0.17212013324E+02 -0.56751195019E+01  0.72461579860E+02  0.70000012461E+02 0.  0.
        -12    1    1    2    0    0 -0.47136426725E+01 -0.17212013324E+02  0.56751195019E+01  0.18726420140E+02  0.00000000000E+00 0.  1.
         11    1    3    3    0    0  0.48575760821E+01 -0.63684947048E+00 -0.13986507836E+01  0.50948843871E+01  0.51100000000E-03 0. -1.
        -11    1    3    3    0    0 -0.74066764358E+01  0.15801586099E+02  0.28671925149E+02  0.33565283719E+02  0.51100000000E-03 0.  1.
        -12    1    3    3    0    0  0.72627430262E+01  0.20472766949E+01 -0.32948393868E+02  0.33801411754E+02  0.00000000000E+00 0.  1.
</event>
<event>
 7    1  0.1826069E-013  0.7246197E+02  0.7816164E-02  0.1226707E+00
        -11   -1    0    0    0    0  0.00000000000E+00  0.00000000000E+00  0.45593999997E+02  0.45594000000E+02  0.51100000000E-03 0.  1.
         11   -1    0    0    0    0 -0.00000000000E+00 -0.00000000000E+00 -0.45593999997E+02  0.45594000000E+02  0.51100000000E-03 0. -1.
    9900012    2    1    2    0    0 -0.11459507958E+02  0.39406274778E+01 -0.14276389241E+02  0.72461971128E+02  0.70000522158E+02 0.  0.
        -12    1    1    2    0    0  0.11459507958E+02 -0.39406274778E+01  0.14276389241E+02  0.18726028872E+02  0.00000000000E+00 0.  1.
         11    1    3    3    0    0 -0.68235468977E+01  0.12219767679E+02  0.16356981812E+02  0.21527525837E+02  0.51100000000E-03 0.  1.
        -11    1    3    3    0    0 -0.21535284832E+02 -0.10214110116E+01 -0.21312226080E+02  0.30315388073E+02  0.51100000000E-03 0. -1.
         12    1    3    3    0    0  0.16899323771E+02 -0.72577291900E+01 -0.93211449734E+01  0.20619057218E+02  0.00000000000E+00 0. -1.
</event>
<event>
 7    1  0.1826069E-013  0.7246155E+02  0.7816164E-02  0.1226708E+00
        -11   -1    0    0    0    0  0.00000000000E+00  0.00000000000E+00  0.45593999997E+02  0.45594000000E+02  0.51100000000E-03 0.  1.
         11   -1    0    0    0    0 -0.00000000000E+00 -0.00000000000E+00 -0.45593999997E+02  0.45594000000E+02  0.51100000000E-03 0. -1.
    9900012    2    1    2    0    0 -0.15420033285E+02 -0.10536662866E+02  0.13715831773E+01  0.72461549956E+02  0.69999973505E+02 0.  0.
        -12    1    1    2    0    0  0.15420033285E+02  0.10536662866E+02 -0.13715831773E+01  0.18726450044E+02  0.00000000000E+00 0.  1.
         11    1    3    3    0    0 -0.13685137226E+02  0.13158657207E+01 -0.28839593136E+02  0.31948968935E+02  0.51100000000E-03 0. -1.
        -11    1    3    3    0    0 -0.11130363275E+02 -0.12907372944E+02  0.15574443120E+02  0.23087844025E+02  0.51100000000E-03 0.  1.
         12    1    3    3    0    0  0.93954672158E+01  0.10548443579E+01  0.14636733193E+02  0.17424736996E+02  0.00000000000E+00 0. -1.
</event>
<event>
 7    1  0.1826069E-013  0.7246158E+02  0.7816164E-02  0.1226708E+00
        -11   -1    0    0    0    0  0.00000000000E+00  0.00000000000E+00  0.45593999997E+02  0.45594000000E+02  0.51100000000E-03 0. -1.
         11   -1    0    0    0    0 -0.00000000000E+00 -0.00000000000E+00 -0.45593999997E+02  0.45594000000E+02  0.51100000000E-03 0.  1.
    9900012    2    1    2    0    0  0.56464177752E+01  0.17331603196E+02  0.42909734197E+01  0.72461575997E+02  0.70000007429E+02 0.  0.
        -12    1    1    2    0    0 -0.56464177752E+01 -0.17331603196E+02 -0.42909734197E+01  0.18726424003E+02  0.00000000000E+00 0.  1.
         11    1    3    3    0    0  0.11093745139E+02 -0.11621268252E+02  0.22158259926E+01  0.16218352015E+02  0.51100000000E-03 0. -1.
        -11    1    3    3    0    0 -0.13355947455E+02  0.15975542972E+02  0.22583144033E+02  0.30718035425E+02  0.51100000000E-03 0.  1.
        -12    1    3    3    0    0  0.79086200910E+01  0.12977328476E+02 -0.20507996606E+02  0.25525188558E+02  0.00000000000E+00 0.  1.
</event>
<event>
 7    1  0.1826069E-013  0.7246157E+02  0.7816164E-02  0.1226708E+00
        -11   -1    0    0    0    0  0.00000000000E+00  0.00000000000E+00  0.45593999997E+02  0.45594000000E+02  0.51100000000E-03 0. -1.
         11   -1    0    0    0    0 -0.00000000000E+00 -0.00000000000E+00 -0.45593999997E+02  0.45594000000E+02  0.51100000000E-03 0.  1.
    9900012    2    1    2    0    0  0.16398175260E+02  0.53796678333E+01  0.72689850342E+01  0.72461571582E+02  0.70000001678E+02 0.  0.
        -12    1    1    2    0    0 -0.16398175260E+02 -0.53796678333E+01 -0.72689850342E+01  0.18726428418E+02  0.00000000000E+00 0.  1.
         11    1    3    3    0    0  0.91648454821E+01  0.33296204993E+02  0.16238851979E+02  0.38161917843E+02  0.51100000000E-03 0. -1.
        -11    1    3    3    0    0  0.23915964457E+01 -0.91799827111E+00 -0.62273159274E+01  0.67336407912E+01  0.51100000000E-03 0.  1.
         12    1    3    3    0    0  0.48417333323E+01 -0.26998538888E+02 -0.27425510172E+01  0.27566012948E+02  0.00000000000E+00 0. -1.
</event>
<event>
 7    1  0.1826069E-013  0.7246156E+02  0.7816164E-02  0.1226708E+00
        -11   -1    0    0    0    0  0.00000000000E+00  0.00000000000E+00  0.45593999997E+02  0.45594000000E+02  0.51100000000E-03 0. -1.
         11   -1    0    0    0    0 -0.00000000000E+00 -0.00000000000E+00 -0.45593999997E+02  0.45594000000E+02  0.51100000000E-03 0.  1.
    9900012    2    1    2    0    0  0.21794763019E+01  0.17265432254E+02 -0.69162262394E+01  0.72461562718E+02  0.69999990131E+02 0.  0.
        -12    1    1    2    0    0 -0.21794763019E+01 -0.17265432254E+02  0.69162262394E+01  0.18726437282E+02  0.00000000000E+00 0.  1.
         11    1    3    3    0    0  0.16013717427E+02  0.72146466356E+01  0.14898933647E+02  0.23031901702E+02  0.51100000000E-03 0. -1.
        -11    1    3    3    0    0 -0.26146064794E+02 -0.17280572154E+01 -0.77207628910E+01  0.27316900736E+02  0.51100000000E-03 0.  1.
         12    1    3    3    0    0  0.12311823669E+02  0.11778842834E+02 -0.14094396996E+02  0.22112760281E+02  0.00000000000E+00 0. -1.
</event>
<event>
 7    1  0.1826069E-013  0.7246157E+02  0.7816164E-02  0.1226708E+00
        -11   -1    0    0    0    0  0.00000000000E+00  0.00000000000E+00  0.45593999997E+02  0.45594000000E+02  0.51100000000E-03 0. -1.
         11   -1    0    0    0    0 -0.00000000000E+00 -0.00000000000E+00 -0.45593999997E+02  0.45594000000E+02  0.51100000000E-03 0.  1.
    9900012    2    1    2    0    0  0.12298545701E+02 -0.10748350252E+01  0.14080828509E+02  0.72461568728E+02  0.69999997960E+02 0.  0.
        -12    1    1    2    0    0 -0.12298545701E+02  0.10748350252E+01 -0.14080828509E+02  0.18726431272E+02  0.00000000000E+00 0.  1.
         11    1    3    3    0    0  0.12598821821E+02  0.71403097063E+01  0.15423943913E+02  0.21156851847E+02  0.51100000000E-03 0. -1.
        -11    1    3    3    0    0  0.27782954557E+01  0.10869518203E+02 -0.20953562264E+02  0.23767985262E+02  0.51100000000E-03 0.  1.
        -12    1    3    3    0    0 -0.30785715758E+01 -0.19084662935E+02  0.19610446859E+02  0.27536731620E+02  0.00000000000E+00 0.  1.
</event>
<event>
 7    1  0.1826069E-013  0.7246151E+02  0.7816164E-02  0.1226708E+00
        -11   -1    0    0    0    0  0.00000000000E+00  0.00000000000E+00  0.45593999997E+02  0.45594000000E+02  0.51100000000E-03 0. -1.
         11   -1    0    0    0    0 -0.00000000000E+00 -0.00000000000E+00 -0.45593999997E+02  0.45594000000E+02  0.51100000000E-03 0.  1.
    9900012    2    1    2    0    0  0.20385473181E+01 -0.21714662723E+01  0.18488112871E+02  0.72461514519E+02  0.69999927343E+02 0.  0.
        -12    1    1    2    0    0 -0.20385473181E+01  0.21714662723E+01 -0.18488112871E+02  0.18726485481E+02  0.00000000000E+00 0.  1.
         11    1    3    3    0    0 -0.10137256897E+02 -0.19186086337E+02  0.16319077940E+02  0.27151099267E+02  0.51100000000E-03 0. -1.
        -11    1    3    3    0    0 -0.32288131561E+01  0.20229647354E+02  0.14683408894E+02  0.25204490939E+02  0.51100000000E-03 0.  1.
        -12    1    3    3    0    0  0.15404617371E+02 -0.32150272896E+01 -0.12514373963E+02  0.20105924314E+02  0.00000000000E+00 0.  1.
</event>
<event>
 7    1  0.1826069E-013  0.7246160E+02  0.7816164E-02  0.1226708E+00
        -11   -1    0    0    0    0  0.00000000000E+00  0.00000000000E+00  0.45593999997E+02  0.45594000000E+02  0.51100000000E-03 0.  1.
         11   -1    0    0    0    0 -0.00000000000E+00 -0.00000000000E+00 -0.45593999997E+02  0.45594000000E+02  0.51100000000E-03 0. -1.
    9900012    2    1    2    0    0  0.10644864914E+02 -0.46245539849E+01 -0.14696206165E+02  0.72461598204E+02  0.70000036357E+02 0.  0.
        -12    1    1    2    0    0 -0.10644864914E+02  0.46245539849E+01  0.14696206165E+02  0.18726401796E+02  0.00000000000E+00 0.  1.
         11    1    3    3    0    0 -0.89318856980E+01  0.18472158956E+02 -0.18151781996E+02  0.27395007365E+02  0.51100000000E-03 0. -1.
        -11    1    3    3    0    0  0.17497386187E+02 -0.30750046317E+02  0.74972218261E+01  0.36165345391E+02  0.51100000000E-03 0.  1.
        -12    1    3    3    0    0  0.20793644243E+01  0.76533333757E+01 -0.40416459948E+01  0.89012454475E+01  0.00000000000E+00 0.  1.
</event>
<event>
 7    1  0.1826069E-013  0.7246140E+02  0.7816164E-02  0.1226708E+00
        -11   -1    0    0    0    0  0.00000000000E+00  0.00000000000E+00  0.45593999997E+02  0.45594000000E+02  0.51100000000E-03 0. -1.
         11   -1    0    0    0    0 -0.00000000000E+00 -0.00000000000E+00 -0.45593999997E+02  0.45594000000E+02  0.51100000000E-03 0.  1.
    9900012    2    1    2    0    0 -0.67616990619E+01  0.97869222652E+01  0.14463092517E+02  0.72461402157E+02  0.69999780969E+02 0.  0.
        -12    1    1    2    0    0  0.67616990619E+01 -0.97869222652E+01 -0.14463092517E+02  0.18726597843E+02  0.00000000000E+00 0.  1.
         11    1    3    3    0    0  0.15460506458E+02  0.28991918670E+02  0.94173301409E+01  0.34179595014E+02  0.51100000000E-03 0. -1.
        -11    1    3    3    0    0 -0.15265131457E+02 -0.14455376483E+02 -0.82152400957E+01  0.22571493476E+02  0.51100000000E-03 0.  1.
        -12    1    3    3    0    0 -0.69570740632E+01 -0.47496199215E+01  0.13261002472E+02  0.15710313666E+02  0.00000000000E+00 0.  1.
</event>
<event>
 7    1  0.1826069E-013  0.7246161E+02  0.7816164E-02  0.1226708E+00
        -11   -1    0    0    0    0  0.00000000000E+00  0.00000000000E+00  0.45593999997E+02  0.45594000000E+02  0.51100000000E-03 0.  1.
         11   -1    0    0    0    0 -0.00000000000E+00 -0.00000000000E+00 -0.45593999997E+02  0.45594000000E+02  0.51100000000E-03 0. -1.
    9900012    2    1    2    0    0 -0.21802264915E+01  0.18253189890E+02  0.35700803306E+01  0.72461606800E+02  0.70000047556E+02 0.  0.
        -12    1    1    2    0    0  0.21802264915E+01 -0.18253189890E+02 -0.35700803306E+01  0.18726393200E+02  0.00000000000E+00 0.  1.
         11    1    3    3    0    0  0.67192478416E+01 -0.22811813456E+01  0.33879065226E+01  0.78632048654E+01  0.51100000000E-03 0. -1.
        -11    1    3    3    0    0 -0.16748777369E+02  0.76102226815E+01  0.27669146665E+02  0.33226777004E+02  0.51100000000E-03 0.  1.
        -12    1    3    3    0    0  0.78493030359E+01  0.12924148554E+02 -0.27486972857E+02  0.31371624931E+02  0.00000000000E+00 0.  1.
</event>
<event>
 7    1  0.1826069E-013  0.7246153E+02  0.7816164E-02  0.1226708E+00
        -11   -1    0    0    0    0  0.00000000000E+00  0.00000000000E+00  0.45593999997E+02  0.45594000000E+02  0.51100000000E-03 0.  1.
         11   -1    0    0    0    0 -0.00000000000E+00 -0.00000000000E+00 -0.45593999997E+02  0.45594000000E+02  0.51100000000E-03 0. -1.
    9900012    2    1    2    0    0 -0.11008032458E+02  0.15711748670E-01 -0.15149376140E+02  0.72461531489E+02  0.69999949449E+02 0.  0.
        -12    1    1    2    0    0  0.11008032458E+02 -0.15711748670E-01  0.15149376140E+02  0.18726468511E+02  0.00000000000E+00 0.  1.
         11    1    3    3    0    0  0.14600608311E+02  0.18034006474E+02 -0.32973834150E+01  0.23436635642E+02  0.51100000000E-03 0.  1.
        -11    1    3    3    0    0 -0.14615019662E+02 -0.28660505710E+02 -0.65525463111E+01  0.32832289757E+02  0.51100000000E-03 0. -1.
         12    1    3    3    0    0 -0.10993621107E+02  0.10642210984E+02 -0.52994464138E+01  0.16192606090E+02  0.00000000000E+00 0. -1.
</event>
<event>
 7    1  0.1826069E-013  0.7246159E+02  0.7816164E-02  0.1226708E+00
        -11   -1    0    0    0    0  0.00000000000E+00  0.00000000000E+00  0.45593999997E+02  0.45594000000E+02  0.51100000000E-03 0.  1.
         11   -1    0    0    0    0 -0.00000000000E+00 -0.00000000000E+00 -0.45593999997E+02  0.45594000000E+02  0.51100000000E-03 0. -1.
    9900012    2    1    2    0    0 -0.11552267550E+02  0.82045504854E+01 -0.12243729661E+02  0.72461589500E+02  0.70000025018E+02 0.  0.
        -12    1    1    2    0    0  0.11552267550E+02 -0.82045504854E+01  0.12243729661E+02  0.18726410500E+02  0.00000000000E+00 0.  1.
         11    1    3    3    0    0  0.19839490103E+02 -0.13999852931E+02  0.10069729359E+02  0.26286892157E+02  0.51100000000E-03 0. -1.
        -11    1    3    3    0    0 -0.66107069156E+01  0.48626737934E+01  0.60110227335E+00  0.82285093759E+01  0.51100000000E-03 0.  1.
         12    1    3    3    0    0 -0.24781050737E+02  0.17341729623E+02 -0.22914561293E+02  0.37946187967E+02  0.00000000000E+00 0. -1.
</event>
<event>
 7    1  0.1826069E-013  0.7246160E+02  0.7816164E-02  0.1226708E+00
        -11   -1    0    0    0    0  0.00000000000E+00  0.00000000000E+00  0.45593999997E+02  0.45594000000E+02  0.51100000000E-03 0.  1.
         11   -1    0    0    0    0 -0.00000000000E+00 -0.00000000000E+00 -0.45593999997E+02  0.45594000000E+02  0.51100000000E-03 0. -1.
    9900012    2    1    2    0    0 -0.12799255776E+02  0.33240409125E+01 -0.13259257214E+02  0.72461598897E+02  0.70000037260E+02 0.  0.
        -12    1    1    2    0    0  0.12799255776E+02 -0.33240409125E+01  0.13259257214E+02  0.18726401103E+02  0.00000000000E+00 0.  1.
         11    1    3    3    0    0 -0.16637282215E+02  0.25710318532E+02  0.10120491633E+02  0.32252813671E+02  0.51100000000E-03 0. -1.
        -11    1    3    3    0    0  0.40750074619E+01 -0.16888036793E+02 -0.12640643954E+01  0.17418648960E+02  0.51100000000E-03 0.  1.
         12    1    3    3    0    0 -0.23698102269E+00 -0.54982408265E+01 -0.22115684452E+02  0.22790136265E+02  0.00000000000E+00 0. -1.
</event>
<event>
 7    1  0.1826069E-013  0.7246158E+02  0.7816164E-02  0.1226708E+00
        -11   -1    0    0    0    0  0.00000000000E+00  0.00000000000E+00  0.45593999997E+02  0.45594000000E+02  0.51100000000E-03 0. -1.
         11   -1    0    0    0    0 -0.00000000000E+00 -0.00000000000E+00 -0.45593999997E+02  0.45594000000E+02  0.51100000000E-03 0.  1.
    9900012    2    1    2    0    0  0.42667867351E+01 -0.18232846273E+02 -0.19100537552E+00  0.72461584558E+02  0.70000018580E+02 0.  0.
        -12    1    1    2    0    0 -0.42667867351E+01  0.18232846273E+02  0.19100537552E+00  0.18726415442E+02  0.00000000000E+00 0.  1.
         11    1    3    3    0    0 -0.25092727753E+02 -0.14203009776E+02  0.16911372155E+02  0.33427009755E+02  0.51100000000E-03 0. -1.
        -11    1    3    3    0    0  0.13398335767E+02  0.28063156431E+01 -0.16796627052E+02  0.21668352254E+02  0.51100000000E-03 0.  1.
        -12    1    3    3    0    0  0.15961178721E+02 -0.68361521407E+01 -0.30575047823E+00  0.17366222548E+02  0.00000000000E+00 0.  1.
</event>
<event>
 7    1  0.1826069E-013  0.7246153E+02  0.7816164E-02  0.1226708E+00
        -11   -1    0    0    0    0  0.00000000000E+00  0.00000000000E+00  0.45593999997E+02  0.45594000000E+02  0.51100000000E-03 0. -1.
         11   -1    0    0    0    0 -0.00000000000E+00 -0.00000000000E+00 -0.45593999997E+02  0.45594000000E+02  0.51100000000E-03 0.  1.
    9900012    2    1    2    0    0 -0.12727028627E+02  0.12835921104E+02 -0.48930954623E+01  0.72461534464E+02  0.69999953325E+02 0.  0.
        -12    1    1    2    0    0  0.12727028627E+02 -0.12835921104E+02  0.48930954623E+01  0.18726465536E+02  0.00000000000E+00 0.  1.
         11    1    3    3    0    0 -0.53562507755E+01  0.28632395354E+02 -0.87201659308E+01  0.30406327963E+02  0.51100000000E-03 0. -1.
        -11    1    3    3    0    0 -0.10596748843E+02 -0.10525714525E+02  0.19873279670E+02  0.24860189006E+02  0.51100000000E-03 0.  1.
         12    1    3    3    0    0  0.32259709918E+01 -0.52707597248E+01 -0.16046209202E+02  0.17195017495E+02  0.00000000000E+00 0. -1.
</event>
<event>
 7    1  0.1826069E-013  0.7246156E+02  0.7816164E-02  0.1226708E+00
        -11   -1    0    0    0    0  0.00000000000E+00  0.00000000000E+00  0.45593999997E+02  0.45594000000E+02  0.51100000000E-03 0.  1.
         11   -1    0    0    0    0 -0.00000000000E+00 -0.00000000000E+00 -0.45593999997E+02  0.45594000000E+02  0.51100000000E-03 0. -1.
    9900012    2    1    2    0    0 -0.95781073173E+01  0.86452794067E+01 -0.13571979016E+02  0.72461558528E+02  0.69999984672E+02 0.  0.
        -12    1    1    2    0    0  0.95781073173E+01 -0.86452794067E+01  0.13571979016E+02  0.18726441472E+02  0.00000000000E+00 0.  1.
         11    1    3    3    0    0 -0.20815830053E+02  0.12985847724E+02 -0.19469236527E+02  0.31320635260E+02  0.51100000000E-03 0. -1.
        -11    1    3    3    0    0  0.26053706416E+01 -0.18233935068E+02 -0.76087133880E+01  0.19928794844E+02  0.51100000000E-03 0.  1.
         12    1    3    3    0    0  0.86323520943E+01  0.13893366751E+02  0.13505970899E+02  0.21212128424E+02  0.00000000000E+00 0. -1.
</event>
<event>
 7    1  0.2485029E-013  0.7246159E+02  0.7816164E-02  0.1226708E+00
        -11   -1    0    0    0    0  0.00000000000E+00  0.00000000000E+00  0.45593999997E+02  0.45594000000E+02  0.51100000000E-03 0. -1.
         11   -1    0    0    0    0 -0.00000000000E+00 -0.00000000000E+00 -0.45593999997E+02  0.45594000000E+02  0.51100000000E-03 0.  1.
    9900012    2    1    2    0    0 -0.13094580310E+02 -0.65184974868E+01  0.11692710994E+02  0.72461592619E+02  0.70000029083E+02 0.  0.
        -12    1    1    2    0    0  0.13094580310E+02  0.65184974868E+01 -0.11692710994E+02  0.18726407381E+02  0.00000000000E+00 0.  1.
         11    1    3    3    0    0  0.93366164646E+01  0.59281204522E+01  0.25533196959E+02  0.27825512867E+02  0.51100000000E-03 0. -1.
        -11    1    3    3    0    0 -0.63302894855E+01 -0.22499718739E+02 -0.62630824060E+01  0.24197853412E+02  0.51100000000E-03 0.  1.
        -12    1    3    3    0    0 -0.16100907289E+02  0.10053100800E+02 -0.75774035590E+01  0.20438226340E+02  0.00000000000E+00 0.  1.
</event>
<event>
 7    1  0.1826069E-013  0.7246160E+02  0.7816164E-02  0.1226708E+00
        -11   -1    0    0    0    0  0.00000000000E+00  0.00000000000E+00  0.45593999997E+02  0.45594000000E+02  0.51100000000E-03 0. -1.
         11   -1    0    0    0    0 -0.00000000000E+00 -0.00000000000E+00 -0.45593999997E+02  0.45594000000E+02  0.51100000000E-03 0.  1.
    9900012    2    1    2    0    0 -0.12280551570E+02  0.14135868791E+02  0.20846052976E+00  0.72461596471E+02  0.70000034100E+02 0.  0.
        -12    1    1    2    0    0  0.12280551570E+02 -0.14135868791E+02 -0.20846052976E+00  0.18726403529E+02  0.00000000000E+00 0.  1.
         11    1    3    3    0    0 -0.59056826717E+01  0.13428949022E+02  0.14749558390E+02  0.20802962111E+02  0.51100000000E-03 0. -1.
        -11    1    3    3    0    0  0.20715293510E+02 -0.30531009804E+01 -0.12139448628E+02  0.24203533297E+02  0.51100000000E-03 0.  1.
        -12    1    3    3    0    0 -0.27090162408E+02  0.37600207499E+01 -0.24016492321E+01  0.27455101063E+02  0.00000000000E+00 0.  1.
</event>
<event>
 7    1  0.1826069E-013  0.7246165E+02  0.7816164E-02  0.1226708E+00
        -11   -1    0    0    0    0  0.00000000000E+00  0.00000000000E+00  0.45593999997E+02  0.45594000000E+02  0.51100000000E-03 0. -1.
         11   -1    0    0    0    0 -0.00000000000E+00 -0.00000000000E+00 -0.45593999997E+02  0.45594000000E+02  0.51100000000E-03 0.  1.
    9900012    2    1    2    0    0 -0.18619720193E+02  0.17868321713E+01 -0.88841219089E+00  0.72461654241E+02  0.70000109356E+02 0.  0.
        -12    1    1    2    0    0  0.18619720193E+02 -0.17868321713E+01  0.88841219089E+00  0.18726345759E+02  0.00000000000E+00 0.  1.
         11    1    3    3    0    0 -0.63380480707E+01  0.20259652831E+02  0.12829652704E+02  0.24803716958E+02  0.51100000000E-03 0. -1.
        -11    1    3    3    0    0 -0.19604330589E+02 -0.63623237605E+01 -0.22883407723E+02  0.30797066269E+02  0.51100000000E-03 0.  1.
        -12    1    3    3    0    0  0.73226584670E+01 -0.12110496899E+02  0.91653428287E+01  0.16860871014E+02  0.00000000000E+00 0.  1.
</event>
<event>
 7    1  0.1826069E-013  0.7246154E+02  0.7816164E-02  0.1226708E+00
        -11   -1    0    0    0    0  0.00000000000E+00  0.00000000000E+00  0.45593999997E+02  0.45594000000E+02  0.51100000000E-03 0. -1.
         11   -1    0    0    0    0 -0.00000000000E+00 -0.00000000000E+00 -0.45593999997E+02  0.45594000000E+02  0.51100000000E-03 0.  1.
    9900012    2    1    2    0    0 -0.11500632213E+02 -0.14623579204E+02  0.21369796610E+01  0.72461540321E+02  0.69999960954E+02 0.  0.
        -12    1    1    2    0    0  0.11500632213E+02  0.14623579204E+02 -0.21369796610E+01  0.18726459679E+02  0.00000000000E+00 0.  1.
         11    1    3    3    0    0 -0.10062731229E+02  0.17139346955E+02 -0.69206399459E+01  0.21045451560E+02  0.51100000000E-03 0. -1.
        -11    1    3    3    0    0 -0.19848736130E+02 -0.19197759251E+02  0.92602117509E+01  0.29125209152E+02  0.51100000000E-03 0.  1.
        -12    1    3    3    0    0  0.18410835146E+02 -0.12565166908E+02 -0.20259214393E+00  0.22290879610E+02  0.00000000000E+00 0.  1.
</event>
<event>
 7    1  0.1826069E-013  0.7246160E+02  0.7816164E-02  0.1226708E+00
        -11   -1    0    0    0    0  0.00000000000E+00  0.00000000000E+00  0.45593999997E+02  0.45594000000E+02  0.51100000000E-03 0.  1.
         11   -1    0    0    0    0 -0.00000000000E+00 -0.00000000000E+00 -0.45593999997E+02  0.45594000000E+02  0.51100000000E-03 0. -1.
    9900012    2    1    2    0    0 -0.21022282769E+01 -0.11008770237E+02 -0.15002194820E+02  0.72461595239E+02  0.70000032495E+02 0.  0.
        -12    1    1    2    0    0  0.21022282769E+01  0.11008770237E+02  0.15002194820E+02  0.18726404761E+02  0.00000000000E+00 0.  1.
         11    1    3    3    0    0 -0.23035857257E+02  0.12439401179E+02 -0.98700510598E+01  0.27978694206E+02  0.51100000000E-03 0. -1.
        -11    1    3    3    0    0 -0.51361460536E+01 -0.16374977870E+02 -0.14890591613E+01  0.17226061476E+02  0.51100000000E-03 0.  1.
         12    1    3    3    0    0  0.26069775034E+02 -0.70731935465E+01 -0.36430845985E+01  0.27256839558E+02  0.00000000000E+00 0. -1.
</event>
<event>
 7    1  0.1826069E-013  0.7246157E+02  0.7816164E-02  0.1226708E+00
        -11   -1    0    0    0    0  0.00000000000E+00  0.00000000000E+00  0.45593999997E+02  0.45594000000E+02  0.51100000000E-03 0.  1.
         11   -1    0    0    0    0 -0.00000000000E+00 -0.00000000000E+00 -0.45593999997E+02  0.45594000000E+02  0.51100000000E-03 0. -1.
    9900012    2    1    2    0    0 -0.22184701004E+01  0.55230904196E+01 -0.17755363822E+02  0.72461572636E+02  0.70000003051E+02 0.  0.
        -12    1    1    2    0    0  0.22184701004E+01 -0.55230904196E+01  0.17755363822E+02  0.18726427364E+02  0.00000000000E+00 0.  1.
         11    1    3    3    0    0  0.20880612900E+02  0.48777864018E+01 -0.13005000256E+02  0.25078333820E+02  0.51100000000E-03 0. -1.
        -11    1    3    3    0    0 -0.20783540001E+02  0.14344458044E+02 -0.15663307083E+02  0.29716295203E+02  0.51100000000E-03 0.  1.
         12    1    3    3    0    0 -0.23155429991E+01 -0.13699154027E+02  0.10912943517E+02  0.17666943613E+02  0.00000000000E+00 0. -1.
</event>
<event>
 7    1  0.1826069E-013  0.7246129E+02  0.7816164E-02  0.1226709E+00
        -11   -1    0    0    0    0  0.00000000000E+00  0.00000000000E+00  0.45593999997E+02  0.45594000000E+02  0.51100000000E-03 0.  1.
         11   -1    0    0    0    0 -0.00000000000E+00 -0.00000000000E+00 -0.45593999997E+02  0.45594000000E+02  0.51100000000E-03 0. -1.
    9900012    2    1    2    0    0  0.14818504988E+02  0.40993029746E+01 -0.10690988295E+02  0.72461291649E+02  0.69999637011E+02 0.  0.
        -12    1    1    2    0    0 -0.14818504988E+02 -0.40993029746E+01  0.10690988295E+02  0.18726708351E+02  0.00000000000E+00 0.  1.
         11    1    3    3    0    0  0.80334579485E+01  0.12269069788E+01 -0.33979225134E+02  0.34937508330E+02  0.51100000000E-03 0. -1.
        -11    1    3    3    0    0 -0.45872162186E+00  0.15044368849E+02  0.97724481952E+01  0.17945590087E+02  0.51100000000E-03 0.  1.
        -12    1    3    3    0    0  0.72437686612E+01 -0.12171972853E+02  0.13515788644E+02  0.19578193232E+02  0.00000000000E+00 0.  1.
</event>
<event>
 7    1  0.1826069E-013  0.7246158E+02  0.7816164E-02  0.1226708E+00
        -11   -1    0    0    0    0  0.00000000000E+00  0.00000000000E+00  0.45593999997E+02  0.45594000000E+02  0.51100000000E-03 0.  1.
         11   -1    0    0    0    0 -0.00000000000E+00 -0.00000000000E+00 -0.45593999997E+02  0.45594000000E+02  0.51100000000E-03 0. -1.
    9900012    2    1    2    0    0  0.27582537825E+01 -0.17317317161E+02 -0.65712670047E+01  0.72461575151E+02  0.70000006327E+02 0.  0.
        -12    1    1    2    0    0 -0.27582537825E+01  0.17317317161E+02  0.65712670047E+01  0.18726424849E+02  0.00000000000E+00 0.  1.
         11    1    3    3    0    0 -0.23436050691E+02 -0.44787804284E+00 -0.19703710796E+02  0.30621647345E+02  0.51100000000E-03 0. -1.
        -11    1    3    3    0    0  0.84755014739E+00 -0.52291420904E+01  0.12901955439E+02  0.13947140304E+02  0.51100000000E-03 0.  1.
         12    1    3    3    0    0  0.25346754326E+02 -0.11640297028E+02  0.23048835248E+00  0.27892787502E+02  0.00000000000E+00 0. -1.
</event>
<event>
 7    1  0.1826069E-013  0.7246156E+02  0.7816164E-02  0.1226708E+00
        -11   -1    0    0    0    0  0.00000000000E+00  0.00000000000E+00  0.45593999997E+02  0.45594000000E+02  0.51100000000E-03 0. -1.
         11   -1    0    0    0    0 -0.00000000000E+00 -0.00000000000E+00 -0.45593999997E+02  0.45594000000E+02  0.51100000000E-03 0.  1.
    9900012    2    1    2    0    0 -0.84804806029E+01  0.70895609476E+01  0.15116188599E+02  0.72461559242E+02  0.69999985603E+02 0.  0.
        -12    1    1    2    0    0  0.84804806029E+01 -0.70895609476E+01 -0.15116188599E+02  0.18726440758E+02  0.00000000000E+00 0.  1.
         11    1    3    3    0    0  0.12275999105E+01  0.39467170418E+01  0.99807588662E+01  0.10802736910E+02  0.51100000000E-03 0. -1.
        -11    1    3    3    0    0  0.64087503141E+01 -0.26549503186E+02  0.55575654349E+01  0.27871755127E+02  0.51100000000E-03 0.  1.
        -12    1    3    3    0    0 -0.16116830828E+02  0.29692347092E+02 -0.42213570195E+00  0.33787067205E+02  0.00000000000E+00 0.  1.
</event>
<event>
 7    1  0.1826069E-013  0.7246152E+02  0.7816164E-02  0.1226708E+00
        -11   -1    0    0    0    0  0.00000000000E+00  0.00000000000E+00  0.45593999997E+02  0.45594000000E+02  0.51100000000E-03 0.  1.
         11   -1    0    0    0    0 -0.00000000000E+00 -0.00000000000E+00 -0.45593999997E+02  0.45594000000E+02  0.51100000000E-03 0. -1.
    9900012    2    1    2    0    0 -0.10169260939E+01 -0.14660892896E+02 -0.11606252381E+02  0.72461521059E+02  0.69999935862E+02 0.  0.
        -12    1    1    2    0    0  0.10169260939E+01  0.14660892896E+02  0.11606252381E+02  0.18726478941E+02  0.00000000000E+00 0.  1.
         11    1    3    3    0    0 -0.14295707345E+00 -0.33098888686E+02 -0.21138728330E+02  0.39273435101E+02  0.51100000000E-03 0. -1.
        -11    1    3    3    0    0 -0.36252203204E+01  0.17724119454E+02  0.17229607667E+02  0.24982914429E+02  0.51100000000E-03 0.  1.
         12    1    3    3    0    0  0.27512512999E+01  0.71387633658E+00 -0.76971317175E+01  0.82051715287E+01  0.00000000000E+00 0. -1.
</event>
<event>
 7    1  0.1826069E-013  0.7246153E+02  0.7816164E-02  0.1226708E+00
        -11   -1    0    0    0    0  0.00000000000E+00  0.00000000000E+00  0.45593999997E+02  0.45594000000E+02  0.51100000000E-03 0.  1.
         11   -1    0    0    0    0 -0.00000000000E+00 -0.00000000000E+00 -0.45593999997E+02  0.45594000000E+02  0.51100000000E-03 0. -1.
    9900012    2    1    2    0    0 -0.78429181909E+01  0.97233264594E+01 -0.13950848589E+02  0.72461531579E+02  0.69999949566E+02 0.  0.
        -12    1    1    2    0    0  0.78429181909E+01 -0.97233264594E+01  0.13950848589E+02  0.18726468421E+02  0.00000000000E+00 0.  1.
         11    1    3    3    0    0  0.98159840901E+01  0.13169221744E+02  0.62971512118E+01  0.17590794713E+02  0.51100000000E-03 0.  1.
        -11    1    3    3    0    0 -0.17215426602E+02  0.37797677436E+01 -0.34580768490E+02  0.38813491300E+02  0.51100000000E-03 0. -1.
        -12    1    3    3    0    0 -0.44347567944E+00 -0.72256630281E+01  0.14332768689E+02  0.16057245566E+02  0.00000000000E+00 0.  1.
</event>
<event>
 7    1  0.1826069E-013  0.7246159E+02  0.7816164E-02  0.1226708E+00
        -11   -1    0    0    0    0  0.00000000000E+00  0.00000000000E+00  0.45593999997E+02  0.45594000000E+02  0.51100000000E-03 0. -1.
         11   -1    0    0    0    0 -0.00000000000E+00 -0.00000000000E+00 -0.45593999997E+02  0.45594000000E+02  0.51100000000E-03 0.  1.
    9900012    2    1    2    0    0  0.48625886581E-01  0.17085776941E+02  0.76650111846E+01  0.72461587246E+02  0.70000022083E+02 0.  0.
        -12    1    1    2    0    0 -0.48625886581E-01 -0.17085776941E+02 -0.76650111846E+01  0.18726412754E+02  0.00000000000E+00 0.  1.
         11    1    3    3    0    0 -0.14523183283E+02 -0.11493404702E+02  0.25371324540E+02  0.31412184156E+02  0.51100000000E-03 0. -1.
        -11    1    3    3    0    0  0.35503349493E+01  0.24575746842E+02 -0.88731831000E+01  0.26368647855E+02  0.51100000000E-03 0.  1.
        -12    1    3    3    0    0  0.11021474220E+02  0.40034348011E+01 -0.88331302552E+01  0.14680755236E+02  0.00000000000E+00 0.  1.
</event>
<event>
 7    1  0.1826069E-013  0.7246156E+02  0.7816164E-02  0.1226708E+00
        -11   -1    0    0    0    0  0.00000000000E+00  0.00000000000E+00  0.45593999997E+02  0.45594000000E+02  0.51100000000E-03 0. -1.
         11   -1    0    0    0    0 -0.00000000000E+00 -0.00000000000E+00 -0.45593999997E+02  0.45594000000E+02  0.51100000000E-03 0.  1.
    9900012    2    1    2    0    0  0.33680095740E+01  0.20351233795E+01  0.18308309323E+02  0.72461563982E+02  0.69999991777E+02 0.  0.
        -12    1    1    2    0    0 -0.33680095740E+01 -0.20351233795E+01 -0.18308309323E+02  0.18726436018E+02  0.00000000000E+00 0.  1.
         11    1    3    3    0    0 -0.79220715580E+01  0.30055087418E+02  0.12078704792E+02  0.33346103328E+02  0.51100000000E-03 0. -1.
        -11    1    3    3    0    0 -0.34523529373E+01 -0.22481636861E+02  0.52089707400E+01  0.23334011939E+02  0.51100000000E-03 0.  1.
         12    1    3    3    0    0  0.14742434069E+02 -0.55383271770E+01  0.10206337907E+01  0.15781448715E+02  0.00000000000E+00 0. -1.
</event>
<event>
 7    1  0.1826069E-013  0.7246169E+02  0.7816164E-02  0.1226708E+00
        -11   -1    0    0    0    0  0.00000000000E+00  0.00000000000E+00  0.45593999997E+02  0.45594000000E+02  0.51100000000E-03 0. -1.
         11   -1    0    0    0    0 -0.00000000000E+00 -0.00000000000E+00 -0.45593999997E+02  0.45594000000E+02  0.51100000000E-03 0.  1.
    9900012    2    1    2    0    0  0.11831692628E+02  0.11840811336E+02  0.83952942811E+01  0.72461688841E+02  0.70000154429E+02 0.  0.
        -12    1    1    2    0    0 -0.11831692628E+02 -0.11840811336E+02 -0.83952942811E+01  0.18726311159E+02  0.00000000000E+00 0.  1.
         11    1    3    3    0    0  0.10539205400E+02 -0.31358742035E+01  0.72045914559E+01  0.13145900342E+02  0.51100000000E-03 0. -1.
        -11    1    3    3    0    0  0.81521297188E+01  0.35765776082E+02 -0.37479946202E+01  0.36874048078E+02  0.51100000000E-03 0.  1.
        -12    1    3    3    0    0 -0.68596424903E+01 -0.20789090543E+02  0.49386974454E+01  0.22441740421E+02  0.00000000000E+00 0.  1.
</event>
<event>
 7    1  0.1826069E-013  0.7246172E+02  0.7816164E-02  0.1226708E+00
        -11   -1    0    0    0    0  0.00000000000E+00  0.00000000000E+00  0.45593999997E+02  0.45594000000E+02  0.51100000000E-03 0. -1.
         11   -1    0    0    0    0 -0.00000000000E+00 -0.00000000000E+00 -0.45593999997E+02  0.45594000000E+02  0.51100000000E-03 0.  1.
    9900012    2    1    2    0    0  0.35489301900E+01  0.37289638205E+01  0.18004820581E+02  0.72461717913E+02  0.70000192300E+02 0.  0.
        -12    1    1    2    0    0 -0.35489301900E+01 -0.37289638205E+01 -0.18004820581E+02  0.18726282087E+02  0.00000000000E+00 0.  1.
         11    1    3    3    0    0  0.15929710697E+02  0.95204852379E+01 -0.16448125212E+02  0.24797906067E+02  0.51100000000E-03 0. -1.
        -11    1    3    3    0    0 -0.79315323824E+01  0.10417720594E+02  0.25390298622E+02  0.28567558046E+02  0.51100000000E-03 0.  1.
         12    1    3    3    0    0 -0.44492481248E+01 -0.16209242011E+02  0.90626471704E+01  0.19096253800E+02  0.00000000000E+00 0. -1.
</event>
<event>
 7    1  0.1826069E-013  0.7246160E+02  0.7816164E-02  0.1226708E+00
        -11   -1    0    0    0    0  0.00000000000E+00  0.00000000000E+00  0.45593999997E+02  0.45594000000E+02  0.51100000000E-03 0.  1.
         11   -1    0    0    0    0 -0.00000000000E+00 -0.00000000000E+00 -0.45593999997E+02  0.45594000000E+02  0.51100000000E-03 0. -1.
    9900012    2    1    2    0    0  0.16358450059E+02 -0.89131459847E+01 -0.19065648077E+01  0.72461600211E+02  0.70000038973E+02 0.  0.
        -12    1    1    2    0    0 -0.16358450059E+02  0.89131459847E+01  0.19065648077E+01  0.18726399789E+02  0.00000000000E+00 0.  1.
         11    1    3    3    0    0 -0.18051477949E+02  0.43540751382E+01 -0.10773338880E+02  0.21468084622E+02  0.51100000000E-03 0. -1.
        -11    1    3    3    0    0  0.14929777345E+02 -0.85213643395E+01  0.21322914014E+02  0.27389387800E+02  0.51100000000E-03 0.  1.
        -12    1    3    3    0    0  0.19480150663E+02 -0.47458567834E+01 -0.12456139942E+02  0.23604127790E+02  0.00000000000E+00 0.  1.
</event>
<event>
 7    1  0.1826069E-013  0.7246155E+02  0.7816164E-02  0.1226708E+00
        -11   -1    0    0    0    0  0.00000000000E+00  0.00000000000E+00  0.45593999997E+02  0.45594000000E+02  0.51100000000E-03 0.  1.
         11   -1    0    0    0    0 -0.00000000000E+00 -0.00000000000E+00 -0.45593999997E+02  0.45594000000E+02  0.51100000000E-03 0. -1.
    9900012    2    1    2    0    0 -0.87536458144E+01  0.16448899637E+02  0.18674095425E+01  0.72461552587E+02  0.69999976933E+02 0.  0.
        -12    1    1    2    0    0  0.87536458144E+01 -0.16448899637E+02 -0.18674095425E+01  0.18726447413E+02  0.00000000000E+00 0.  1.
         11    1    3    3    0    0  0.83340895987E+01  0.29759160413E+01 -0.16578370559E+02  0.18792431891E+02  0.51100000000E-03 0. -1.
        -11    1    3    3    0    0 -0.19219639645E+02  0.28711595867E+02  0.16050307451E+02  0.38096753862E+02  0.51100000000E-03 0.  1.
         12    1    3    3    0    0  0.21319042320E+01 -0.15238612271E+02  0.23954726506E+01  0.15572366835E+02  0.00000000000E+00 0. -1.
</event>
<event>
 7    1  0.1826069E-013  0.7246163E+02  0.7816164E-02  0.1226708E+00
        -11   -1    0    0    0    0  0.00000000000E+00  0.00000000000E+00  0.45593999997E+02  0.45594000000E+02  0.51100000000E-03 0. -1.
         11   -1    0    0    0    0 -0.00000000000E+00 -0.00000000000E+00 -0.45593999997E+02  0.45594000000E+02  0.51100000000E-03 0.  1.
    9900012    2    1    2    0    0  0.10615978292E+02 -0.63060897822E+00  0.15413641512E+02  0.72461628022E+02  0.70000075201E+02 0.  0.
        -12    1    1    2    0    0 -0.10615978292E+02  0.63060897822E+00 -0.15413641512E+02  0.18726371978E+02  0.00000000000E+00 0.  1.
         11    1    3    3    0    0  0.58301997098E+01  0.27645674436E+02  0.37644603383E+01  0.28503433224E+02  0.51100000000E-03 0.  1.
        -11    1    3    3    0    0  0.10962857512E+02 -0.32126372834E+02  0.13362203216E+02  0.36480632551E+02  0.51100000000E-03 0. -1.
        -12    1    3    3    0    0 -0.61770789293E+01  0.38500894199E+01 -0.17130220421E+01  0.74775622469E+01  0.00000000000E+00 0.  1.
</event>
<event>
 7    1  0.1826069E-013  0.7246171E+02  0.7816164E-02  0.1226708E+00
        -11   -1    0    0    0    0  0.00000000000E+00  0.00000000000E+00  0.45593999997E+02  0.45594000000E+02  0.51100000000E-03 0.  1.
         11   -1    0    0    0    0 -0.00000000000E+00 -0.00000000000E+00 -0.45593999997E+02  0.45594000000E+02  0.51100000000E-03 0. -1.
    9900012    2    1    2    0    0  0.25438796338E+01  0.11903681191E+01 -0.18514472575E+02  0.72461708467E+02  0.70000179995E+02 0.  0.
        -12    1    1    2    0    0 -0.25438796338E+01 -0.11903681191E+01  0.18514472575E+02  0.18726291533E+02  0.00000000000E+00 0.  1.
         11    1    3    3    0    0  0.30100356101E+02 -0.95482222855E+01 -0.25296398534E+02  0.40461188382E+02  0.51100000000E-03 0. -1.
        -11    1    3    3    0    0 -0.12655661356E+02  0.17621342286E+01 -0.12525614662E+01  0.12838994971E+02  0.51100000000E-03 0.  1.
         12    1    3    3    0    0 -0.14900815112E+02  0.89764561760E+01  0.80344874252E+01  0.19161525113E+02  0.00000000000E+00 0. -1.
</event>
<event>
 7    1  0.1826069E-013  0.7246157E+02  0.7816164E-02  0.1226708E+00
        -11   -1    0    0    0    0  0.00000000000E+00  0.00000000000E+00  0.45593999997E+02  0.45594000000E+02  0.51100000000E-03 0.  1.
         11   -1    0    0    0    0 -0.00000000000E+00 -0.00000000000E+00 -0.45593999997E+02  0.45594000000E+02  0.51100000000E-03 0. -1.
    9900012    2    1    2    0    0 -0.68244347965E+01  0.10417557869E+02 -0.13985016445E+02  0.72461571958E+02  0.70000002167E+02 0.  0.
        -12    1    1    2    0    0  0.68244347965E+01 -0.10417557869E+02  0.13985016445E+02  0.18726428042E+02  0.00000000000E+00 0.  1.
         11    1    3    3    0    0  0.43182654472E+01  0.14158030551E+02 -0.32181563567E+02  0.35422454453E+02  0.51100000000E-03 0. -1.
        -11    1    3    3    0    0  0.22140677898E+01 -0.12420532435E+02  0.16854290535E+02  0.21053238037E+02  0.51100000000E-03 0.  1.
        -12    1    3    3    0    0 -0.13356768033E+02  0.86800597527E+01  0.13422565870E+01  0.15985879468E+02  0.00000000000E+00 0.  1.
</event>
<event>
 7    1  0.1826069E-013  0.7246153E+02  0.7816164E-02  0.1226708E+00
        -11   -1    0    0    0    0  0.00000000000E+00  0.00000000000E+00  0.45593999997E+02  0.45594000000E+02  0.51100000000E-03 0.  1.
         11   -1    0    0    0    0 -0.00000000000E+00 -0.00000000000E+00 -0.45593999997E+02  0.45594000000E+02  0.51100000000E-03 0. -1.
    9900012    2    1    2    0    0 -0.11668714795E+02 -0.10181361721E+01 -0.14611128706E+02  0.72461532413E+02  0.69999950653E+02 0.  0.
        -12    1    1    2    0    0  0.11668714795E+02  0.10181361721E+01  0.14611128706E+02  0.18726467587E+02  0.00000000000E+00 0.  1.
         11    1    3    3    0    0  0.13104678914E+02  0.52734735446E+00 -0.20991661514E+01  0.13282213801E+02  0.51100000000E-03 0. -1.
        -11    1    3    3    0    0 -0.32175320314E+02 -0.16751286074E+02 -0.19140715377E+02  0.41014921771E+02  0.51100000000E-03 0.  1.
        -12    1    3    3    0    0  0.74019266059E+01  0.15205802548E+02  0.66287528228E+01  0.18164396841E+02  0.00000000000E+00 0.  1.
</event>
<event>
 7    1  0.1826069E-013  0.7246130E+02  0.7816164E-02  0.1226709E+00
        -11   -1    0    0    0    0  0.00000000000E+00  0.00000000000E+00  0.45593999997E+02  0.45594000000E+02  0.51100000000E-03 0. -1.
         11   -1    0    0    0    0 -0.00000000000E+00 -0.00000000000E+00 -0.45593999997E+02  0.45594000000E+02  0.51100000000E-03 0.  1.
    9900012    2    1    2    0    0 -0.26847740438E+01  0.18515433965E+02  0.81231197928E+00  0.72461303619E+02  0.69999652605E+02 0.  0.
        -12    1    1    2    0    0  0.26847740438E+01 -0.18515433965E+02 -0.81231197928E+00  0.18726696381E+02  0.00000000000E+00 0.  1.
         11    1    3    3    0    0  0.30466802664E+01  0.16992032788E+00 -0.60495981580E+01  0.67756012056E+01  0.51100000000E-03 0. -1.
        -11    1    3    3    0    0 -0.33525088059E+02  0.53262304855E+01  0.83513454052E+01  0.34957763528E+02  0.51100000000E-03 0.  1.
        -12    1    3    3    0    0  0.27793633749E+02  0.13019283152E+02 -0.14894352679E+01  0.30727938886E+02  0.00000000000E+00 0.  1.
</event>
<event>
 7    1  0.1826069E-013  0.7246228E+02  0.7816164E-02  0.1226706E+00
        -11   -1    0    0    0    0  0.00000000000E+00  0.00000000000E+00  0.45593999997E+02  0.45594000000E+02  0.51100000000E-03 0. -1.
         11   -1    0    0    0    0 -0.00000000000E+00 -0.00000000000E+00 -0.45593999997E+02  0.45594000000E+02  0.51100000000E-03 0.  1.
    9900012    2    1    2    0    0  0.61386747101E+01 -0.71205654559E+01  0.16194650537E+02  0.72462282775E+02  0.70000928132E+02 0.  0.
        -12    1    1    2    0    0 -0.61386747101E+01  0.71205654559E+01 -0.16194650537E+02  0.18725717225E+02  0.00000000000E+00 0.  1.
         11    1    3    3    0    0  0.11314311142E+02 -0.32625630637E+02  0.15049857717E+02  0.37668868163E+02  0.51100000000E-03 0. -1.
        -11    1    3    3    0    0 -0.13081778166E+02  0.10816250966E+02 -0.38004195937E+01  0.17394464472E+02  0.51100000000E-03 0.  1.
        -12    1    3    3    0    0  0.79061417334E+01  0.14688814215E+02  0.49452124131E+01  0.17398950140E+02  0.00000000000E+00 0.  1.
</event>
<event>
 7    1  0.1826069E-013  0.7246190E+02  0.7816164E-02  0.1226707E+00
        -11   -1    0    0    0    0  0.00000000000E+00  0.00000000000E+00  0.45593999997E+02  0.45594000000E+02  0.51100000000E-03 0. -1.
         11   -1    0    0    0    0 -0.00000000000E+00 -0.00000000000E+00 -0.45593999997E+02  0.45594000000E+02  0.51100000000E-03 0.  1.
    9900012    2    1    2    0    0 -0.11558525087E+02  0.64744835114E+01  0.13234364523E+02  0.72461899412E+02  0.70000428735E+02 0.  0.
        -12    1    1    2    0    0  0.11558525087E+02 -0.64744835114E+01 -0.13234364523E+02  0.18726100588E+02  0.00000000000E+00 0.  1.
         11    1    3    3    0    0  0.17144756950E+02  0.27488565052E+01  0.12396682066E+02  0.21334868864E+02  0.51100000000E-03 0. -1.
        -11    1    3    3    0    0 -0.14523296106E+02  0.15006730097E+02 -0.16064514346E+02  0.26347612784E+02  0.51100000000E-03 0.  1.
        -12    1    3    3    0    0 -0.14179985931E+02 -0.11281103091E+02  0.16902196802E+02  0.24779417763E+02  0.00000000000E+00 0.  1.
</event>
<event>
 7    1  0.1826069E-013  0.7246156E+02  0.7816164E-02  0.1226708E+00
        -11   -1    0    0    0    0  0.00000000000E+00  0.00000000000E+00  0.45593999997E+02  0.45594000000E+02  0.51100000000E-03 0. -1.
         11   -1    0    0    0    0 -0.00000000000E+00 -0.00000000000E+00 -0.45593999997E+02  0.45594000000E+02  0.51100000000E-03 0.  1.
    9900012    2    1    2    0    0 -0.17615062036E+02 -0.60926174682E+01 -0.18081079861E+01  0.72461557395E+02  0.69999983196E+02 0.  0.
        -12    1    1    2    0    0  0.17615062036E+02  0.60926174682E+01  0.18081079861E+01  0.18726442605E+02  0.00000000000E+00 0.  1.
         11    1    3    3    0    0 -0.24603338115E+02  0.88386757930E+01 -0.18032746099E+02  0.31758878574E+02  0.51100000000E-03 0. -1.
        -11    1    3    3    0    0  0.98474870978E+01 -0.16697402421E+02 -0.43403379295E+01  0.19864913374E+02  0.51100000000E-03 0.  1.
         12    1    3    3    0    0 -0.28592110194E+01  0.17661091597E+01  0.20564976042E+02  0.20837765447E+02  0.00000000000E+00 0. -1.
</event>
<event>
 7    1  0.1826069E-013  0.7246157E+02  0.7816164E-02  0.1226708E+00
        -11   -1    0    0    0    0  0.00000000000E+00  0.00000000000E+00  0.45593999997E+02  0.45594000000E+02  0.51100000000E-03 0.  1.
         11   -1    0    0    0    0 -0.00000000000E+00 -0.00000000000E+00 -0.45593999997E+02  0.45594000000E+02  0.51100000000E-03 0. -1.
    9900012    2    1    2    0    0  0.61607951033E+01  0.68211109201E+01 -0.16315515664E+02  0.72461574771E+02  0.70000005831E+02 0.  0.
        -12    1    1    2    0    0 -0.61607951033E+01 -0.68211109201E+01  0.16315515664E+02  0.18726425229E+02  0.00000000000E+00 0.  1.
         11    1    3    3    0    0  0.27121080211E+02 -0.67347502063E+01 -0.17913159943E+00  0.27945338440E+02  0.51100000000E-03 0. -1.
        -11    1    3    3    0    0 -0.15183762532E+02  0.21895646042E+02 -0.14734794113E+01  0.26685897063E+02  0.51100000000E-03 0.  1.
        -12    1    3    3    0    0 -0.57765225757E+01 -0.83397849158E+01 -0.14662904653E+02  0.17830339267E+02  0.00000000000E+00 0.  1.
</event>
<event>
 7    1  0.1826069E-013  0.7246149E+02  0.7816164E-02  0.1226708E+00
        -11   -1    0    0    0    0  0.00000000000E+00  0.00000000000E+00  0.45593999997E+02  0.45594000000E+02  0.51100000000E-03 0.  1.
         11   -1    0    0    0    0 -0.00000000000E+00 -0.00000000000E+00 -0.45593999997E+02  0.45594000000E+02  0.51100000000E-03 0. -1.
    9900012    2    1    2    0    0 -0.49076831801E+01  0.94846346452E+01 -0.15383065129E+02  0.72461485607E+02  0.69999889679E+02 0.  0.
        -12    1    1    2    0    0  0.49076831801E+01 -0.94846346452E+01  0.15383065129E+02  0.18726514393E+02  0.00000000000E+00 0.  1.
         11    1    3    3    0    0 -0.12304269189E+02 -0.88585444722E+01 -0.36089894660E+01  0.15585045899E+02  0.51100000000E-03 0. -1.
        -11    1    3    3    0    0  0.25070764177E+02  0.20953923880E+02  0.41589115304E+01  0.32937921728E+02  0.51100000000E-03 0.  1.
        -12    1    3    3    0    0 -0.17674178168E+02 -0.26107447624E+01 -0.15932987194E+02  0.23938517980E+02  0.00000000000E+00 0.  1.
</event>
<event>
 7    1  0.1826069E-013  0.7246155E+02  0.7816164E-02  0.1226708E+00
        -11   -1    0    0    0    0  0.00000000000E+00  0.00000000000E+00  0.45593999997E+02  0.45594000000E+02  0.51100000000E-03 0.  1.
         11   -1    0    0    0    0 -0.00000000000E+00 -0.00000000000E+00 -0.45593999997E+02  0.45594000000E+02  0.51100000000E-03 0. -1.
    9900012    2    1    2    0    0  0.12901392494E+02  0.75131494397E+01 -0.11304267962E+02  0.72461553008E+02  0.69999977481E+02 0.  0.
        -12    1    1    2    0    0 -0.12901392494E+02 -0.75131494397E+01  0.11304267962E+02  0.18726446992E+02  0.00000000000E+00 0.  1.
         11    1    3    3    0    0  0.91584145255E+00 -0.25598981710E+02  0.31045773251E+01  0.25802810521E+02  0.51100000000E-03 0. -1.
        -11    1    3    3    0    0  0.15488826487E+02  0.16559995456E+02  0.24102514686E+01  0.22802335579E+02  0.51100000000E-03 0.  1.
         12    1    3    3    0    0 -0.35032754451E+01  0.16552135694E+02 -0.16819096756E+02  0.23856406908E+02  0.00000000000E+00 0. -1.
</event>
<event>
 7    1  0.1826069E-013  0.7246148E+02  0.7816164E-02  0.1226708E+00
        -11   -1    0    0    0    0  0.00000000000E+00  0.00000000000E+00  0.45593999997E+02  0.45594000000E+02  0.51100000000E-03 0. -1.
         11   -1    0    0    0    0 -0.00000000000E+00 -0.00000000000E+00 -0.45593999997E+02  0.45594000000E+02  0.51100000000E-03 0.  1.
    9900012    2    1    2    0    0  0.54984336631E+01 -0.85096396374E+01 -0.15749146944E+02  0.72461484869E+02  0.69999888717E+02 0.  0.
        -12    1    1    2    0    0 -0.54984336631E+01  0.85096396374E+01  0.15749146944E+02  0.18726515131E+02  0.00000000000E+00 0.  1.
         11    1    3    3    0    0 -0.26863465745E+01 -0.10092827153E+02  0.10152505557E+02  0.14565541089E+02  0.51100000000E-03 0. -1.
        -11    1    3    3    0    0 -0.96694586093E+01  0.14294843870E+02 -0.30921248408E+02  0.35411362504E+02  0.51100000000E-03 0.  1.
        -12    1    3    3    0    0  0.17854238847E+02 -0.12711656354E+02  0.50195959067E+01  0.22484581276E+02  0.00000000000E+00 0.  1.
</event>
<event>
 7    1  0.1826069E-013  0.7246158E+02  0.7816164E-02  0.1226708E+00
        -11   -1    0    0    0    0  0.00000000000E+00  0.00000000000E+00  0.45593999997E+02  0.45594000000E+02  0.51100000000E-03 0.  1.
         11   -1    0    0    0    0 -0.00000000000E+00 -0.00000000000E+00 -0.45593999997E+02  0.45594000000E+02  0.51100000000E-03 0. -1.
    9900012    2    1    2    0    0 -0.10118085518E+02 -0.14539915257E+02 -0.60740523161E+01  0.72461577443E+02  0.70000009313E+02 0.  0.
        -12    1    1    2    0    0  0.10118085518E+02  0.14539915257E+02  0.60740523161E+01  0.18726422557E+02  0.00000000000E+00 0.  1.
         11    1    3    3    0    0 -0.22039915931E+02 -0.16803939516E+02 -0.17935508441E+02  0.33012311957E+02  0.51100000000E-03 0. -1.
        -11    1    3    3    0    0  0.22780452792E+02  0.91223651494E+01  0.56415270151E+01  0.25179225617E+02  0.51100000000E-03 0.  1.
        -12    1    3    3    0    0 -0.10858622379E+02 -0.68583408912E+01  0.62199291093E+01  0.14270039869E+02  0.00000000000E+00 0.  1.
</event>
<event>
 7    1  0.1826069E-013  0.7246156E+02  0.7816164E-02  0.1226708E+00
        -11   -1    0    0    0    0  0.00000000000E+00  0.00000000000E+00  0.45593999997E+02  0.45594000000E+02  0.51100000000E-03 0.  1.
         11   -1    0    0    0    0 -0.00000000000E+00 -0.00000000000E+00 -0.45593999997E+02  0.45594000000E+02  0.51100000000E-03 0. -1.
    9900012    2    1    2    0    0  0.51990300370E+00  0.84723723652E+01 -0.16692155220E+02  0.72461563112E+02  0.69999990643E+02 0.  0.
        -12    1    1    2    0    0 -0.51990300370E+00 -0.84723723652E+01  0.16692155220E+02  0.18726436888E+02  0.00000000000E+00 0.  1.
         11    1    3    3    0    0 -0.21172531269E+02 -0.13324015939E+02 -0.14000881762E+02  0.28667580495E+02  0.51100000000E-03 0. -1.
        -11    1    3    3    0    0  0.27798607184E+01  0.24163948178E+02 -0.41632201154E+01  0.24677042350E+02  0.51100000000E-03 0.  1.
         12    1    3    3    0    0  0.18912573554E+02 -0.23675598740E+01  0.14719466575E+01  0.19116940267E+02  0.00000000000E+00 0. -1.
</event>
<event>
 7    1  0.1826069E-013  0.7246150E+02  0.7816164E-02  0.1226708E+00
        -11   -1    0    0    0    0  0.00000000000E+00  0.00000000000E+00  0.45593999997E+02  0.45594000000E+02  0.51100000000E-03 0. -1.
         11   -1    0    0    0    0 -0.00000000000E+00 -0.00000000000E+00 -0.45593999997E+02  0.45594000000E+02  0.51100000000E-03 0.  1.
    9900012    2    1    2    0    0  0.77925235917E+01  0.12723014709E+02  0.11317381124E+02  0.72461504259E+02  0.69999913977E+02 0.  0.
        -12    1    1    2    0    0 -0.77925235917E+01 -0.12723014709E+02 -0.11317381124E+02  0.18726495741E+02  0.00000000000E+00 0.  1.
         11    1    3    3    0    0  0.12782931977E+02  0.35879542392E+02  0.46765585323E+01  0.38374667584E+02  0.51100000000E-03 0. -1.
        -11    1    3    3    0    0  0.80206828407E+01 -0.15800329457E+02 -0.28944070288E-01  0.17719554233E+02  0.51100000000E-03 0.  1.
        -12    1    3    3    0    0 -0.13011091226E+02 -0.73561982259E+01  0.66697666622E+01  0.16367282443E+02  0.00000000000E+00 0.  1.
</event>
<event>
 7    1  0.1826069E-013  0.7246161E+02  0.7816164E-02  0.1226708E+00
        -11   -1    0    0    0    0  0.00000000000E+00  0.00000000000E+00  0.45593999997E+02  0.45594000000E+02  0.51100000000E-03 0.  1.
         11   -1    0    0    0    0 -0.00000000000E+00 -0.00000000000E+00 -0.45593999997E+02  0.45594000000E+02  0.51100000000E-03 0. -1.
    9900012    2    1    2    0    0  0.12959769442E+02 -0.46066207627E+00 -0.13509625218E+02  0.72461606672E+02  0.70000047389E+02 0.  0.
        -12    1    1    2    0    0 -0.12959769442E+02  0.46066207627E+00  0.13509625218E+02  0.18726393328E+02  0.00000000000E+00 0.  1.
         11    1    3    3    0    0 -0.10405347188E+02 -0.18742641376E+02 -0.25902211846E+02  0.33622647644E+02  0.51100000000E-03 0. -1.
        -11    1    3    3    0    0  0.23859085612E+02  0.66035362058E+01  0.58278888755E+01  0.25432792722E+02  0.51100000000E-03 0.  1.
        -12    1    3    3    0    0 -0.49396898187E+00  0.11678443093E+02  0.65646977522E+01  0.13406166306E+02  0.00000000000E+00 0.  1.
</event>
<event>
 7    1  0.1826069E-013  0.7246158E+02  0.7816164E-02  0.1226708E+00
        -11   -1    0    0    0    0  0.00000000000E+00  0.00000000000E+00  0.45593999997E+02  0.45594000000E+02  0.51100000000E-03 0.  1.
         11   -1    0    0    0    0 -0.00000000000E+00 -0.00000000000E+00 -0.45593999997E+02  0.45594000000E+02  0.51100000000E-03 0. -1.
    9900012    2    1    2    0    0 -0.51297699639E+01  0.92464256418E+01 -0.15455353812E+02  0.72461577798E+02  0.70000009775E+02 0.  0.
        -12    1    1    2    0    0  0.51297699639E+01 -0.92464256418E+01  0.15455353812E+02  0.18726422202E+02  0.00000000000E+00 0.  1.
         11    1    3    3    0    0 -0.15361975155E+02 -0.43565401729E+01 -0.81964704036E+01  0.17948589088E+02  0.51100000000E-03 0. -1.
        -11    1    3    3    0    0  0.21369337454E+02  0.97178726647E+01 -0.24300446668E+02  0.33787532329E+02  0.51100000000E-03 0.  1.
        -12    1    3    3    0    0 -0.11137132264E+02  0.38850931500E+01  0.17041563260E+02  0.20725456380E+02  0.00000000000E+00 0.  1.
</event>
<event>
 7    1  0.1826069E-013  0.7246180E+02  0.7816164E-02  0.1226707E+00
        -11   -1    0    0    0    0  0.00000000000E+00  0.00000000000E+00  0.45593999997E+02  0.45594000000E+02  0.51100000000E-03 0.  1.
         11   -1    0    0    0    0 -0.00000000000E+00 -0.00000000000E+00 -0.45593999997E+02  0.45594000000E+02  0.51100000000E-03 0. -1.
    9900012    2    1    2    0    0  0.71880134401E+01  0.16672415780E+02  0.45862301162E+01  0.72461801992E+02  0.70000301828E+02 0.  0.
        -12    1    1    2    0    0 -0.71880134401E+01 -0.16672415780E+02 -0.45862301162E+01  0.18726198008E+02  0.00000000000E+00 0.  1.
         11    1    3    3    0    0 -0.95422180854E+01  0.18727039725E+02 -0.64731871794E+01  0.21992228068E+02  0.51100000000E-03 0. -1.
        -11    1    3    3    0    0  0.19242402208E+02 -0.13170996091E+02 -0.10891423216E+02  0.25736516483E+02  0.51100000000E-03 0.  1.
        -12    1    3    3    0    0 -0.25121706827E+01  0.11116372145E+02  0.21950840511E+02  0.24733057441E+02  0.00000000000E+00 0.  1.
</event>
<event>
 7    1  0.1826069E-013  0.7246160E+02  0.7816164E-02  0.1226708E+00
        -11   -1    0    0    0    0  0.00000000000E+00  0.00000000000E+00  0.45593999997E+02  0.45594000000E+02  0.51100000000E-03 0.  1.
         11   -1    0    0    0    0 -0.00000000000E+00 -0.00000000000E+00 -0.45593999997E+02  0.45594000000E+02  0.51100000000E-03 0. -1.
    9900012    2    1    2    0    0 -0.58389429987E-01  0.29678307663E+00 -0.18723962020E+02  0.72461595026E+02  0.70000032217E+02 0.  0.
        -12    1    1    2    0    0  0.58389429987E-01 -0.29678307663E+00  0.18723962020E+02  0.18726404974E+02  0.00000000000E+00 0.  1.
         11    1    3    3    0    0  0.89575892868E+01  0.13549651879E+01  0.19306353733E+02  0.21326266228E+02  0.51100000000E-03 0. -1.
        -11    1    3    3    0    0 -0.12388258443E+02  0.14011005152E+02 -0.22047300112E+02  0.28911254817E+02  0.51100000000E-03 0.  1.
         12    1    3    3    0    0  0.33722797260E+01 -0.15069187263E+02 -0.15983015641E+02  0.22224073981E+02  0.00000000000E+00 0. -1.
</event>
<event>
 7    1  0.1826069E-013  0.7246146E+02  0.7816164E-02  0.1226708E+00
        -11   -1    0    0    0    0  0.00000000000E+00  0.00000000000E+00  0.45593999997E+02  0.45594000000E+02  0.51100000000E-03 0. -1.
         11   -1    0    0    0    0 -0.00000000000E+00 -0.00000000000E+00 -0.45593999997E+02  0.45594000000E+02  0.51100000000E-03 0.  1.
    9900012    2    1    2    0    0  0.52150039291E+01  0.55834217570E+01  0.17097142866E+02  0.72461463783E+02  0.69999861249E+02 0.  0.
        -12    1    1    2    0    0 -0.52150039291E+01 -0.55834217570E+01 -0.17097142866E+02  0.18726536217E+02  0.00000000000E+00 0.  1.
         11    1    3    3    0    0  0.16530928987E+02  0.11542373289E+02  0.91852386596E+01  0.22155509559E+02  0.51100000000E-03 0. -1.
        -11    1    3    3    0    0 -0.15050090708E+02  0.95451704435E+01 -0.14378071144E+02  0.22898568496E+02  0.51100000000E-03 0.  1.
        -12    1    3    3    0    0  0.37341656499E+01 -0.15504121976E+02  0.22289975350E+02  0.27407385728E+02  0.00000000000E+00 0.  1.
</event>
<event>
 7    1  0.1826069E-013  0.7246169E+02  0.7816164E-02  0.1226708E+00
        -11   -1    0    0    0    0  0.00000000000E+00  0.00000000000E+00  0.45593999997E+02  0.45594000000E+02  0.51100000000E-03 0. -1.
         11   -1    0    0    0    0 -0.00000000000E+00 -0.00000000000E+00 -0.45593999997E+02  0.45594000000E+02  0.51100000000E-03 0.  1.
    9900012    2    1    2    0    0 -0.76296134737E+01 -0.84714202021E+00  0.17080579324E+02  0.72461685856E+02  0.70000150540E+02 0.  0.
        -12    1    1    2    0    0  0.76296134737E+01  0.84714202021E+00 -0.17080579324E+02  0.18726314144E+02  0.00000000000E+00 0.  1.
         11    1    3    3    0    0 -0.11795655073E+02 -0.44478224495E+01  0.19898186144E+02  0.23555432818E+02  0.51100000000E-03 0. -1.
        -11    1    3    3    0    0 -0.55570561552E+01 -0.66115677586E+01 -0.22839173354E+02  0.24417648148E+02  0.51100000000E-03 0.  1.
        -12    1    3    3    0    0  0.97230977548E+01  0.10212248188E+02  0.20021566534E+02  0.24488604891E+02  0.00000000000E+00 0.  1.
</event>
<event>
 7    1  0.1826069E-013  0.7246150E+02  0.7816164E-02  0.1226708E+00
        -11   -1    0    0    0    0  0.00000000000E+00  0.00000000000E+00  0.45593999997E+02  0.45594000000E+02  0.51100000000E-03 0. -1.
         11   -1    0    0    0    0 -0.00000000000E+00 -0.00000000000E+00 -0.45593999997E+02  0.45594000000E+02  0.51100000000E-03 0.  1.
    9900012    2    1    2    0    0  0.17512192744E+02 -0.52075621385E+01  0.41092911167E+01  0.72461498148E+02  0.69999906016E+02 0.  0.
        -12    1    1    2    0    0 -0.17512192744E+02  0.52075621385E+01 -0.41092911167E+01  0.18726501852E+02  0.00000000000E+00 0.  1.
         11    1    3    3    0    0 -0.14016386743E+02 -0.10785190709E+02  0.12479372618E+02  0.21645188315E+02  0.51100000000E-03 0. -1.
        -11    1    3    3    0    0  0.32869220769E+02 -0.92337826505E+01 -0.85235012766E+00  0.34152231508E+02  0.51100000000E-03 0.  1.
        -12    1    3    3    0    0 -0.13406412813E+01  0.14811411221E+02 -0.75177313741E+01  0.16664078325E+02  0.00000000000E+00 0.  1.
</event>
<event>
 7    1  0.1826069E-013  0.7246156E+02  0.7816164E-02  0.1226708E+00
        -11   -1    0    0    0    0  0.00000000000E+00  0.00000000000E+00  0.45593999997E+02  0.45594000000E+02  0.51100000000E-03 0.  1.
         11   -1    0    0    0    0 -0.00000000000E+00 -0.00000000000E+00 -0.45593999997E+02  0.45594000000E+02  0.51100000000E-03 0. -1.
    9900012    2    1    2    0    0 -0.60758575325E+00 -0.13748395988E+02 -0.12700071744E+02  0.72461564808E+02  0.69999992853E+02 0.  0.
        -12    1    1    2    0    0  0.60758575325E+00  0.13748395988E+02  0.12700071744E+02  0.18726435192E+02  0.00000000000E+00 0.  1.
         11    1    3    3    0    0 -0.23483853467E+02  0.10292781168E+02 -0.60011980637E+01  0.26333383684E+02  0.51100000000E-03 0. -1.
        -11    1    3    3    0    0  0.34787681371E+01 -0.20467828982E+02  0.72273618925E+01  0.21983371242E+02  0.51100000000E-03 0.  1.
        -12    1    3    3    0    0  0.19397499576E+02 -0.35733481732E+01 -0.13926235573E+02  0.24144809882E+02  0.00000000000E+00 0.  1.
</event>
<event>
 7    1  0.1826069E-013  0.7246164E+02  0.7816164E-02  0.1226708E+00
        -11   -1    0    0    0    0  0.00000000000E+00  0.00000000000E+00  0.45593999997E+02  0.45594000000E+02  0.51100000000E-03 0. -1.
         11   -1    0    0    0    0 -0.00000000000E+00 -0.00000000000E+00 -0.45593999997E+02  0.45594000000E+02  0.51100000000E-03 0.  1.
    9900012    2    1    2    0    0  0.16622688238E+02  0.74831047881E+01  0.42855576963E+01  0.72461638200E+02  0.70000088459E+02 0.  0.
        -12    1    1    2    0    0 -0.16622688238E+02 -0.74831047881E+01 -0.42855576963E+01  0.18726361800E+02  0.00000000000E+00 0.  1.
         11    1    3    3    0    0  0.34506702658E+02  0.71425822022E+01  0.71176873072E+01  0.35949832847E+02  0.51100000000E-03 0. -1.
        -11    1    3    3    0    0 -0.20324422666E+02 -0.12136096881E+02 -0.23690998469E+01  0.23790326575E+02  0.51100000000E-03 0.  1.
        -12    1    3    3    0    0  0.24404082454E+01  0.12476619467E+02 -0.46302976409E+00  0.12721478777E+02  0.00000000000E+00 0.  1.
</event>
<event>
 7    1  0.1826069E-013  0.7246154E+02  0.7816164E-02  0.1226708E+00
        -11   -1    0    0    0    0  0.00000000000E+00  0.00000000000E+00  0.45593999997E+02  0.45594000000E+02  0.51100000000E-03 0.  1.
         11   -1    0    0    0    0 -0.00000000000E+00 -0.00000000000E+00 -0.45593999997E+02  0.45594000000E+02  0.51100000000E-03 0. -1.
    9900012    2    1    2    0    0 -0.62528535857E+01 -0.17649525947E+02  0.27663495929E+00  0.72461535545E+02  0.69999954732E+02 0.  0.
        -12    1    1    2    0    0  0.62528535857E+01  0.17649525947E+02 -0.27663495929E+00  0.18726464455E+02  0.00000000000E+00 0.  1.
         11    1    3    3    0    0  0.17772697728E+02 -0.15352296155E+02 -0.21584995692E+02  0.31897865462E+02  0.51100000000E-03 0. -1.
        -11    1    3    3    0    0 -0.25424804491E+02 -0.76336831340E+01  0.11718991883E+02  0.29017728591E+02  0.51100000000E-03 0.  1.
        -12    1    3    3    0    0  0.13992531770E+01  0.53364533430E+01  0.10142638768E+02  0.11545941491E+02  0.00000000000E+00 0.  1.
</event>
<event>
 7    1  0.1826069E-013  0.7246154E+02  0.7816164E-02  0.1226708E+00
        -11   -1    0    0    0    0  0.00000000000E+00  0.00000000000E+00  0.45593999997E+02  0.45594000000E+02  0.51100000000E-03 0.  1.
         11   -1    0    0    0    0 -0.00000000000E+00 -0.00000000000E+00 -0.45593999997E+02  0.45594000000E+02  0.51100000000E-03 0. -1.
    9900012    2    1    2    0    0 -0.94018414928E+00  0.11617982011E+02 -0.14656694925E+02  0.72461543892E+02  0.69999965606E+02 0.  0.
        -12    1    1    2    0    0  0.94018414928E+00 -0.11617982011E+02  0.14656694925E+02  0.18726456108E+02  0.00000000000E+00 0.  1.
         11    1    3    3    0    0  0.12377000762E+02  0.13400284816E+01 -0.42024633266E+01  0.13139502367E+02  0.51100000000E-03 0. -1.
        -11    1    3    3    0    0 -0.12170811785E+02  0.24518837378E+02  0.14192449018E+02  0.30833871882E+02  0.51100000000E-03 0.  1.
        -12    1    3    3    0    0 -0.11463731258E+01 -0.14240883848E+02 -0.24646680617E+02  0.28488169642E+02  0.00000000000E+00 0.  1.
</event>
<event>
 7    1  0.1826069E-013  0.7246160E+02  0.7816164E-02  0.1226708E+00
        -11   -1    0    0    0    0  0.00000000000E+00  0.00000000000E+00  0.45593999997E+02  0.45594000000E+02  0.51100000000E-03 0. -1.
         11   -1    0    0    0    0 -0.00000000000E+00 -0.00000000000E+00 -0.45593999997E+02  0.45594000000E+02  0.51100000000E-03 0.  1.
    9900012    2    1    2    0    0  0.15272707165E+01 -0.11319762141E+02  0.14839421156E+02  0.72461601760E+02  0.70000040990E+02 0.  0.
        -12    1    1    2    0    0 -0.15272707165E+01  0.11319762141E+02 -0.14839421156E+02  0.18726398240E+02  0.00000000000E+00 0.  1.
         11    1    3    3    0    0  0.13050721989E+02 -0.37106188832E+01  0.37919878798E+02  0.40274151081E+02  0.51100000000E-03 0. -1.
        -11    1    3    3    0    0 -0.44376469579E+01  0.23912509095E+00 -0.20930826888E+02  0.21397415868E+02  0.51100000000E-03 0.  1.
         12    1    3    3    0    0 -0.70858043151E+01 -0.78482683490E+01 -0.21496307536E+01  0.10790034812E+02  0.00000000000E+00 0. -1.
</event>
<event>
 7    1  0.1826069E-013  0.7246157E+02  0.7816164E-02  0.1226708E+00
        -11   -1    0    0    0    0  0.00000000000E+00  0.00000000000E+00  0.45593999997E+02  0.45594000000E+02  0.51100000000E-03 0.  1.
         11   -1    0    0    0    0 -0.00000000000E+00 -0.00000000000E+00 -0.45593999997E+02  0.45594000000E+02  0.51100000000E-03 0. -1.
    9900012    2    1    2    0    0  0.14204029187E+02  0.93780213637E+01 -0.78088091295E+01  0.72461568684E+02  0.69999997902E+02 0.  0.
        -12    1    1    2    0    0 -0.14204029187E+02 -0.93780213637E+01  0.78088091295E+01  0.18726431316E+02  0.00000000000E+00 0.  1.
         11    1    3    3    0    0  0.18521643710E+02 -0.44721101202E-01  0.22549675199E+02  0.29181177796E+02  0.51100000000E-03 0. -1.
        -11    1    3    3    0    0  0.71855567802E+01  0.15138802937E+02 -0.23062698380E+02  0.28507957440E+02  0.51100000000E-03 0.  1.
        -12    1    3    3    0    0 -0.11503171304E+02 -0.57160604719E+01 -0.72957859488E+01  0.14772433448E+02  0.00000000000E+00 0.  1.
</event>
<event>
 7    1  0.1826069E-013  0.7246155E+02  0.7816164E-02  0.1226708E+00
        -11   -1    0    0    0    0  0.00000000000E+00  0.00000000000E+00  0.45593999997E+02  0.45594000000E+02  0.51100000000E-03 0. -1.
         11   -1    0    0    0    0 -0.00000000000E+00 -0.00000000000E+00 -0.45593999997E+02  0.45594000000E+02  0.51100000000E-03 0.  1.
    9900012    2    1    2    0    0  0.11318843720E+02 -0.14519003836E+02  0.34295897900E+01  0.72461553950E+02  0.69999978708E+02 0.  0.
        -12    1    1    2    0    0 -0.11318843720E+02  0.14519003836E+02 -0.34295897900E+01  0.18726446050E+02  0.00000000000E+00 0.  1.
         11    1    3    3    0    0  0.27479438837E+02 -0.33569768182E+01  0.19419258566E+02  0.33815624431E+02  0.51100000000E-03 0. -1.
        -11    1    3    3    0    0 -0.14252735946E+02 -0.20662065726E+02 -0.14044189052E+02  0.28762835194E+02  0.51100000000E-03 0.  1.
        -12    1    3    3    0    0 -0.19078591712E+01  0.95000387078E+01 -0.19454797242E+01  0.98830943244E+01  0.00000000000E+00 0.  1.
</event>
<event>
 7    1  0.1826069E-013  0.7246153E+02  0.7816164E-02  0.1226708E+00
        -11   -1    0    0    0    0  0.00000000000E+00  0.00000000000E+00  0.45593999997E+02  0.45594000000E+02  0.51100000000E-03 0. -1.
         11   -1    0    0    0    0 -0.00000000000E+00 -0.00000000000E+00 -0.45593999997E+02  0.45594000000E+02  0.51100000000E-03 0.  1.
    9900012    2    1    2    0    0 -0.12070325678E+01  0.14782565311E+02  0.11432393729E+02  0.72461526996E+02  0.69999943596E+02 0.  0.
        -12    1    1    2    0    0  0.12070325678E+01 -0.14782565311E+02 -0.11432393729E+02  0.18726473004E+02  0.00000000000E+00 0.  1.
         11    1    3    3    0    0 -0.22380109235E+02  0.17878444536E+02  0.98675367458E-01  0.28644681975E+02  0.51100000000E-03 0. -1.
        -11    1    3    3    0    0  0.20576849258E+02  0.47455592825E+01 -0.82823524458E+01  0.22683130749E+02  0.51100000000E-03 0.  1.
         12    1    3    3    0    0  0.59622740919E+00 -0.78414385077E+01  0.19616070807E+02  0.21133714272E+02  0.00000000000E+00 0. -1.
</event>
<event>
 7    1  0.1826069E-013  0.7246154E+02  0.7816164E-02  0.1226708E+00
        -11   -1    0    0    0    0  0.00000000000E+00  0.00000000000E+00  0.45593999997E+02  0.45594000000E+02  0.51100000000E-03 0.  1.
         11   -1    0    0    0    0 -0.00000000000E+00 -0.00000000000E+00 -0.45593999997E+02  0.45594000000E+02  0.51100000000E-03 0. -1.
    9900012    2    1    2    0    0  0.15174398602E+02  0.71713060608E+01 -0.83060467378E+01  0.72461537014E+02  0.69999956646E+02 0.  0.
        -12    1    1    2    0    0 -0.15174398602E+02 -0.71713060608E+01  0.83060467378E+01  0.18726462986E+02  0.00000000000E+00 0.  1.
         11    1    3    3    0    0 -0.13066377981E+02 -0.37499280996E+01 -0.13188807830E+02  0.18940349694E+02  0.51100000000E-03 0. -1.
        -11    1    3    3    0    0  0.12536983057E+02 -0.81924782943E+01  0.19653543197E+02  0.24709399127E+02  0.51100000000E-03 0.  1.
        -12    1    3    3    0    0  0.15703793526E+02  0.19113712455E+02 -0.14770782105E+02  0.28811788193E+02  0.00000000000E+00 0.  1.
</event>
<event>
 7    1  0.1826069E-013  0.7246152E+02  0.7816164E-02  0.1226708E+00
        -11   -1    0    0    0    0  0.00000000000E+00  0.00000000000E+00  0.45593999997E+02  0.45594000000E+02  0.51100000000E-03 0.  1.
         11   -1    0    0    0    0 -0.00000000000E+00 -0.00000000000E+00 -0.45593999997E+02  0.45594000000E+02  0.51100000000E-03 0. -1.
    9900012    2    1    2    0    0  0.11347173642E+02 -0.11340710948E+02  0.96597524339E+01  0.72461524316E+02  0.69999940104E+02 0.  0.
        -12    1    1    2    0    0 -0.11347173642E+02  0.11340710948E+02 -0.96597524339E+01  0.18726475684E+02  0.00000000000E+00 0.  1.
         11    1    3    3    0    0  0.96470224891E+01  0.23504784417E+02 -0.79936592846E+01  0.26635287166E+02  0.51100000000E-03 0. -1.
        -11    1    3    3    0    0 -0.43224615850E+01 -0.18891805415E+02 -0.23712769831E+01  0.19524521525E+02  0.51100000000E-03 0.  1.
         12    1    3    3    0    0  0.60226127382E+01 -0.15953689949E+02  0.20024688702E+02  0.26301715624E+02  0.00000000000E+00 0. -1.
</event>
<event>
 7    1  0.1826069E-013  0.7246155E+02  0.7816164E-02  0.1226708E+00
        -11   -1    0    0    0    0  0.00000000000E+00  0.00000000000E+00  0.45593999997E+02  0.45594000000E+02  0.51100000000E-03 0.  1.
         11   -1    0    0    0    0 -0.00000000000E+00 -0.00000000000E+00 -0.45593999997E+02  0.45594000000E+02  0.51100000000E-03 0. -1.
    9900012    2    1    2    0    0 -0.10327424231E+02  0.10715776687E+02 -0.11366459186E+02  0.72461549304E+02  0.69999972656E+02 0.  0.
        -12    1    1    2    0    0  0.10327424231E+02 -0.10715776687E+02  0.11366459186E+02  0.18726450696E+02  0.00000000000E+00 0.  1.
         11    1    3    3    0    0  0.27360329389E+01  0.93391058992E+01 -0.73972568540E+01  0.12223918540E+02  0.51100000000E-03 0. -1.
        -11    1    3    3    0    0 -0.34538390400E+02 -0.30120388301E+01 -0.12303384474E+02  0.36787852059E+02  0.51100000000E-03 0.  1.
        -12    1    3    3    0    0  0.21474933230E+02  0.43887096181E+01  0.83341821416E+01  0.23449778705E+02  0.00000000000E+00 0.  1.
</event>
<event>
 7    1  0.1826069E-013  0.7246157E+02  0.7816164E-02  0.1226708E+00
        -11   -1    0    0    0    0  0.00000000000E+00  0.00000000000E+00  0.45593999997E+02  0.45594000000E+02  0.51100000000E-03 0. -1.
         11   -1    0    0    0    0 -0.00000000000E+00 -0.00000000000E+00 -0.45593999997E+02  0.45594000000E+02  0.51100000000E-03 0.  1.
    9900012    2    1    2    0    0 -0.86251367395E+01  0.64006723548E+01 -0.15340070126E+02  0.72461565693E+02  0.69999994006E+02 0.  0.
        -12    1    1    2    0    0  0.86251367395E+01 -0.64006723548E+01  0.15340070126E+02  0.18726434307E+02  0.00000000000E+00 0.  1.
         11    1    3    3    0    0  0.12254261623E+02  0.19668486392E+02  0.10827538994E+02  0.25578347988E+02  0.51100000000E-03 0. -1.
        -11    1    3    3    0    0 -0.92404657672E+01 -0.16734990922E+01 -0.28757461026E+02  0.30251915175E+02  0.51100000000E-03 0.  1.
        -12    1    3    3    0    0 -0.11638932595E+02 -0.11594314945E+02  0.25898519060E+01  0.16631302531E+02  0.00000000000E+00 0.  1.
</event>
<event>
 7    1  0.1826069E-013  0.7246159E+02  0.7816164E-02  0.1226708E+00
        -11   -1    0    0    0    0  0.00000000000E+00  0.00000000000E+00  0.45593999997E+02  0.45594000000E+02  0.51100000000E-03 0.  1.
         11   -1    0    0    0    0 -0.00000000000E+00 -0.00000000000E+00 -0.45593999997E+02  0.45594000000E+02  0.51100000000E-03 0. -1.
    9900012    2    1    2    0    0  0.31299031139E+01 -0.46237267987E+01 -0.17874655366E+02  0.72461589574E+02  0.70000025115E+02 0.  0.
        -12    1    1    2    0    0 -0.31299031139E+01  0.46237267987E+01  0.17874655366E+02  0.18726410426E+02  0.00000000000E+00 0.  1.
         11    1    3    3    0    0  0.98909964965E+01  0.10815008834E+02 -0.26834147789E+02  0.30575606545E+02  0.51100000000E-03 0. -1.
        -11    1    3    3    0    0  0.12999236145E+01 -0.23604821234E+02  0.15886583434E+02  0.28482642440E+02  0.51100000000E-03 0.  1.
         12    1    3    3    0    0 -0.80610169971E+01  0.81660856013E+01 -0.69270910102E+01  0.13403340589E+02  0.00000000000E+00 0. -1.
</event>
<event>
 7    1  0.1826069E-013  0.7246162E+02  0.7816164E-02  0.1226708E+00
        -11   -1    0    0    0    0  0.00000000000E+00  0.00000000000E+00  0.45593999997E+02  0.45594000000E+02  0.51100000000E-03 0.  1.
         11   -1    0    0    0    0 -0.00000000000E+00 -0.00000000000E+00 -0.45593999997E+02  0.45594000000E+02  0.51100000000E-03 0. -1.
    9900012    2    1    2    0    0  0.52635781068E+01 -0.87297193133E+01 -0.15708730750E+02  0.72461615524E+02  0.70000058919E+02 0.  0.
        -12    1    1    2    0    0 -0.52635781068E+01  0.87297193133E+01  0.15708730750E+02  0.18726384476E+02  0.00000000000E+00 0.  1.
         11    1    3    3    0    0  0.15019652982E+02  0.18019618626E+01 -0.70675133393E+01  0.16696909514E+02  0.51100000000E-03 0. -1.
        -11    1    3    3    0    0  0.56305218537E+01 -0.22839349973E+02 -0.21799832142E+02  0.32071348042E+02  0.51100000000E-03 0.  1.
        -12    1    3    3    0    0 -0.15386596729E+02  0.12307668797E+02  0.13158614731E+02  0.23693357967E+02  0.00000000000E+00 0.  1.
</event>
<event>
 7    1  0.1826069E-013  0.7246161E+02  0.7816164E-02  0.1226708E+00
        -11   -1    0    0    0    0  0.00000000000E+00  0.00000000000E+00  0.45593999997E+02  0.45594000000E+02  0.51100000000E-03 0.  1.
         11   -1    0    0    0    0 -0.00000000000E+00 -0.00000000000E+00 -0.45593999997E+02  0.45594000000E+02  0.51100000000E-03 0. -1.
    9900012    2    1    2    0    0  0.27364354666E+01 -0.18444914531E+02 -0.17247214514E+01  0.72461611795E+02  0.70000054062E+02 0.  0.
        -12    1    1    2    0    0 -0.27364354666E+01  0.18444914531E+02  0.17247214514E+01  0.18726388205E+02  0.00000000000E+00 0.  1.
         11    1    3    3    0    0  0.25618701508E+02  0.14948606132E+02  0.20877310145E+01  0.29734446578E+02  0.51100000000E-03 0.  1.
        -11    1    3    3    0    0 -0.23591874240E+02 -0.26440180353E+02 -0.44269540361E+01  0.35710748935E+02  0.51100000000E-03 0. -1.
        -12    1    3    3    0    0  0.70960819813E+00 -0.69533403098E+01  0.61450157013E+00  0.70164162818E+01  0.00000000000E+00 0.  1.
</event>
<event>
 7    1  0.1826069E-013  0.7246155E+02  0.7816164E-02  0.1226708E+00
        -11   -1    0    0    0    0  0.00000000000E+00  0.00000000000E+00  0.45593999997E+02  0.45594000000E+02  0.51100000000E-03 0. -1.
         11   -1    0    0    0    0 -0.00000000000E+00 -0.00000000000E+00 -0.45593999997E+02  0.45594000000E+02  0.51100000000E-03 0.  1.
    9900012    2    1    2    0    0 -0.13131193128E+02  0.13152072153E+02 -0.22966830222E+01  0.72461548447E+02  0.69999971540E+02 0.  0.
        -12    1    1    2    0    0  0.13131193128E+02 -0.13152072153E+02  0.22966830222E+01  0.18726451553E+02  0.00000000000E+00 0.  1.
         11    1    3    3    0    0 -0.26150085474E+02  0.21488285144E+02  0.16506045223E+02  0.37656644805E+02  0.51100000000E-03 0. -1.
        -11    1    3    3    0    0  0.17301831250E+01 -0.14901997036E+02 -0.50245633753E+01  0.15821165781E+02  0.51100000000E-03 0.  1.
         12    1    3    3    0    0  0.11288709221E+02  0.65657840439E+01 -0.13778164870E+02  0.18983737862E+02  0.00000000000E+00 0. -1.
</event>
<event>
 7    1  0.1826069E-013  0.7246158E+02  0.7816164E-02  0.1226708E+00
        -11   -1    0    0    0    0  0.00000000000E+00  0.00000000000E+00  0.45593999997E+02  0.45594000000E+02  0.51100000000E-03 0. -1.
         11   -1    0    0    0    0 -0.00000000000E+00 -0.00000000000E+00 -0.45593999997E+02  0.45594000000E+02  0.51100000000E-03 0.  1.
    9900012    2    1    2    0    0  0.11893284709E+02  0.11662485477E+01  0.14417647930E+02  0.72461576725E+02  0.70000008377E+02 0.  0.
        -12    1    1    2    0    0 -0.11893284709E+02 -0.11662485477E+01 -0.14417647930E+02  0.18726423275E+02  0.00000000000E+00 0.  1.
         11    1    3    3    0    0  0.25584378583E+02 -0.18532282370E+02  0.89239125583E+00  0.31603833307E+02  0.51100000000E-03 0. -1.
        -11    1    3    3    0    0 -0.19616555266E+02  0.37105004935E+01  0.12951291220E+02  0.23797331761E+02  0.51100000000E-03 0.  1.
        -12    1    3    3    0    0  0.59254613921E+01  0.15988030424E+02  0.57396545469E+00  0.17060411657E+02  0.00000000000E+00 0.  1.
</event>
<event>
 7    1  0.1826069E-013  0.7246156E+02  0.7816164E-02  0.1226708E+00
        -11   -1    0    0    0    0  0.00000000000E+00  0.00000000000E+00  0.45593999997E+02  0.45594000000E+02  0.51100000000E-03 0. -1.
         11   -1    0    0    0    0 -0.00000000000E+00 -0.00000000000E+00 -0.45593999997E+02  0.45594000000E+02  0.51100000000E-03 0.  1.
    9900012    2    1    2    0    0  0.13956177757E+02 -0.15285367342E+01  0.12392265104E+02  0.72461559961E+02  0.69999986538E+02 0.  0.
        -12    1    1    2    0    0 -0.13956177757E+02  0.15285367342E+01 -0.12392265104E+02  0.18726440039E+02  0.00000000000E+00 0.  1.
         11    1    3    3    0    0 -0.12039272161E+02  0.60998192679E+01 -0.67089997477E+01  0.15071912524E+02  0.51100000000E-03 0. -1.
        -11    1    3    3    0    0  0.86828924039E+00 -0.22371132611E+02 -0.29606129050E+00  0.22389934190E+02  0.51100000000E-03 0.  1.
         12    1    3    3    0    0  0.25127160677E+02  0.14742776609E+02  0.19397326143E+02  0.34999713246E+02  0.00000000000E+00 0. -1.
</event>
<event>
 7    1  0.1826069E-013  0.7246160E+02  0.7816164E-02  0.1226708E+00
        -11   -1    0    0    0    0  0.00000000000E+00  0.00000000000E+00  0.45593999997E+02  0.45594000000E+02  0.51100000000E-03 0.  1.
         11   -1    0    0    0    0 -0.00000000000E+00 -0.00000000000E+00 -0.45593999997E+02  0.45594000000E+02  0.51100000000E-03 0. -1.
    9900012    2    1    2    0    0  0.18137028584E+02 -0.96402078120E+00 -0.45603773121E+01  0.72461596631E+02  0.70000034308E+02 0.  0.
        -12    1    1    2    0    0 -0.18137028584E+02  0.96402078120E+00  0.45603773121E+01  0.18726403369E+02  0.00000000000E+00 0.  1.
         11    1    3    3    0    0  0.20831674018E+02  0.21542485813E+02 -0.23109276657E+02  0.37842780094E+02  0.51100000000E-03 0. -1.
        -11    1    3    3    0    0  0.27040301382E+01 -0.20473848432E+02  0.71694739190E+01  0.21860732035E+02  0.51100000000E-03 0.  1.
         12    1    3    3    0    0 -0.53986755720E+01 -0.20326581623E+01  0.11379425426E+02  0.12758084502E+02  0.00000000000E+00 0. -1.
</event>
<event>
 7    1  0.1826069E-013  0.7246134E+02  0.7816164E-02  0.1226709E+00
        -11   -1    0    0    0    0  0.00000000000E+00  0.00000000000E+00  0.45593999997E+02  0.45594000000E+02  0.51100000000E-03 0.  1.
         11   -1    0    0    0    0 -0.00000000000E+00 -0.00000000000E+00 -0.45593999997E+02  0.45594000000E+02  0.51100000000E-03 0. -1.
    9900012    2    1    2    0    0 -0.14512877595E+02 -0.87290490840E-01 -0.11834547791E+02  0.72461341005E+02  0.69999701307E+02 0.  0.
        -12    1    1    2    0    0  0.14512877595E+02  0.87290490840E-01  0.11834547791E+02  0.18726658995E+02  0.00000000000E+00 0.  1.
         11    1    3    3    0    0 -0.11646882187E+02  0.73135397233E+00 -0.14671869359E+02  0.18746959595E+02  0.51100000000E-03 0. -1.
        -11    1    3    3    0    0  0.24019201183E+01 -0.44126910857E+01  0.27646195420E+02  0.28098989027E+02  0.51100000000E-03 0.  1.
        -12    1    3    3    0    0 -0.52679155259E+01  0.35940466225E+01 -0.24808873852E+02  0.25615392382E+02  0.00000000000E+00 0.  1.
</event>
<event>
 7    1  0.1826069E-013  0.7246155E+02  0.7816164E-02  0.1226708E+00
        -11   -1    0    0    0    0  0.00000000000E+00  0.00000000000E+00  0.45593999997E+02  0.45594000000E+02  0.51100000000E-03 0.  1.
         11   -1    0    0    0    0 -0.00000000000E+00 -0.00000000000E+00 -0.45593999997E+02  0.45594000000E+02  0.51100000000E-03 0. -1.
    9900012    2    1    2    0    0  0.95649823826E+01 -0.15521669935E+02 -0.42741911207E+01  0.72461552519E+02  0.69999976844E+02 0.  0.
        -12    1    1    2    0    0 -0.95649823826E+01  0.15521669935E+02  0.42741911207E+01  0.18726447481E+02  0.00000000000E+00 0.  1.
         11    1    3    3    0    0 -0.59694068509E+01 -0.26181507793E+02  0.23191881463E+02  0.35481946600E+02  0.51100000000E-03 0.  1.
        -11    1    3    3    0    0  0.10476887677E+02  0.14732483684E+02 -0.18090374455E+02  0.25574848955E+02  0.51100000000E-03 0. -1.
        -12    1    3    3    0    0  0.50575015562E+01 -0.40726458249E+01 -0.93756981278E+01  0.11404756963E+02  0.00000000000E+00 0.  1.
</event>
<event>
 7    1  0.1826069E-013  0.7246166E+02  0.7816164E-02  0.1226708E+00
        -11   -1    0    0    0    0  0.00000000000E+00  0.00000000000E+00  0.45593999997E+02  0.45594000000E+02  0.51100000000E-03 0. -1.
         11   -1    0    0    0    0 -0.00000000000E+00 -0.00000000000E+00 -0.45593999997E+02  0.45594000000E+02  0.51100000000E-03 0.  1.
    9900012    2    1    2    0    0  0.67304738991E+01 -0.61758522866E+01  0.16347338975E+02  0.72461657006E+02  0.70000112958E+02 0.  0.
        -12    1    1    2    0    0 -0.67304738991E+01  0.61758522866E+01 -0.16347338975E+02  0.18726342994E+02  0.00000000000E+00 0.  1.
         11    1    3    3    0    0  0.78041569109E+01 -0.23049680634E+02 -0.15534155287E+02  0.28870445497E+02  0.51100000000E-03 0. -1.
        -11    1    3    3    0    0  0.79565496072E+01  0.88674737999E+01  0.29941959188E+01  0.12284298218E+02  0.51100000000E-03 0.  1.
         12    1    3    3    0    0 -0.90302326190E+01  0.80063545477E+01  0.28887298343E+02  0.31306913292E+02  0.00000000000E+00 0. -1.
</event>
<event>
 7    1  0.1826069E-013  0.7246167E+02  0.7816164E-02  0.1226708E+00
        -11   -1    0    0    0    0  0.00000000000E+00  0.00000000000E+00  0.45593999997E+02  0.45594000000E+02  0.51100000000E-03 0. -1.
         11   -1    0    0    0    0 -0.00000000000E+00 -0.00000000000E+00 -0.45593999997E+02  0.45594000000E+02  0.51100000000E-03 0.  1.
    9900012    2    1    2    0    0 -0.17771977314E+02  0.53238126509E+01 -0.25473715783E+01  0.72461674660E+02  0.70000135956E+02 0.  0.
        -12    1    1    2    0    0  0.17771977314E+02 -0.53238126509E+01  0.25473715783E+01  0.18726325340E+02  0.00000000000E+00 0.  1.
         11    1    3    3    0    0 -0.23144046414E+02  0.59412312309E+01  0.22886549778E+02  0.33086844425E+02  0.51100000000E-03 0. -1.
        -11    1    3    3    0    0 -0.62824331355E+01  0.29003622572E+01 -0.26276059742E+02  0.27171904298E+02  0.51100000000E-03 0.  1.
        -12    1    3    3    0    0  0.11654502236E+02 -0.35177808372E+01  0.84213838558E+00  0.12202925938E+02  0.00000000000E+00 0.  1.
</event>
<event>
 7    1  0.1826069E-013  0.7246158E+02  0.7816164E-02  0.1226708E+00
        -11   -1    0    0    0    0  0.00000000000E+00  0.00000000000E+00  0.45593999997E+02  0.45594000000E+02  0.51100000000E-03 0. -1.
         11   -1    0    0    0    0 -0.00000000000E+00 -0.00000000000E+00 -0.45593999997E+02  0.45594000000E+02  0.51100000000E-03 0.  1.
    9900012    2    1    2    0    0  0.54779153136E+01 -0.38627480920E+01  0.17485725280E+02  0.72461575687E+02  0.70000007025E+02 0.  0.
        -12    1    1    2    0    0 -0.54779153136E+01  0.38627480920E+01 -0.17485725280E+02  0.18726424313E+02  0.00000000000E+00 0.  1.
         11    1    3    3    0    0  0.16273190295E+02 -0.73056360077E+01  0.32153944034E+02  0.36770438631E+02  0.51100000000E-03 0. -1.
        -11    1    3    3    0    0 -0.90317709624E+01 -0.13025487735E+02 -0.87348382678E+01  0.18097889857E+02  0.51100000000E-03 0.  1.
        -12    1    3    3    0    0 -0.17635040189E+01  0.16468375651E+02 -0.59333804870E+01  0.17593247199E+02  0.00000000000E+00 0.  1.
</event>
<event>
 7    1  0.1826069E-013  0.7246167E+02  0.7816164E-02  0.1226708E+00
        -11   -1    0    0    0    0  0.00000000000E+00  0.00000000000E+00  0.45593999997E+02  0.45594000000E+02  0.51100000000E-03 0.  1.
         11   -1    0    0    0    0 -0.00000000000E+00 -0.00000000000E+00 -0.45593999997E+02  0.45594000000E+02  0.51100000000E-03 0. -1.
    9900012    2    1    2    0    0  0.16418777354E+02 -0.65678375246E+01 -0.61613861870E+01  0.72461670426E+02  0.70000130441E+02 0.  0.
        -12    1    1    2    0    0 -0.16418777354E+02  0.65678375246E+01  0.61613861870E+01  0.18726329574E+02  0.00000000000E+00 0.  1.
         11    1    3    3    0    0  0.60422073332E+01 -0.30227149958E+02 -0.20454378771E+02  0.36994195156E+02  0.51100000000E-03 0. -1.
        -11    1    3    3    0    0  0.61719633814E+01  0.11314624181E+02  0.17787702362E+02  0.21966251568E+02  0.51100000000E-03 0.  1.
         12    1    3    3    0    0  0.42046066394E+01  0.12344688252E+02 -0.34947097778E+01  0.13501223703E+02  0.00000000000E+00 0. -1.
</event>
<event>
 7    1  0.1826069E-013  0.7246156E+02  0.7816164E-02  0.1226708E+00
        -11   -1    0    0    0    0  0.00000000000E+00  0.00000000000E+00  0.45593999997E+02  0.45594000000E+02  0.51100000000E-03 0.  1.
         11   -1    0    0    0    0 -0.00000000000E+00 -0.00000000000E+00 -0.45593999997E+02  0.45594000000E+02  0.51100000000E-03 0. -1.
    9900012    2    1    2    0    0 -0.15091780487E+02 -0.78986032115E+00  0.11058650480E+02  0.72461562324E+02  0.69999989617E+02 0.  0.
        -12    1    1    2    0    0  0.15091780487E+02  0.78986032115E+00 -0.11058650480E+02  0.18726437676E+02  0.00000000000E+00 0.  1.
         11    1    3    3    0    0 -0.11925828621E+02 -0.11392184566E+02  0.39522627244E+01  0.16959588391E+02  0.51100000000E-03 0. -1.
        -11    1    3    3    0    0 -0.24292708348E+02  0.17294569277E+02  0.13060359319E+02  0.32554735311E+02  0.51100000000E-03 0.  1.
        -12    1    3    3    0    0  0.21126756481E+02 -0.66922450318E+01 -0.59539715637E+01  0.22947238622E+02  0.00000000000E+00 0.  1.
</event>
<event>
 7    1  0.1826069E-013  0.7246157E+02  0.7816164E-02  0.1226708E+00
        -11   -1    0    0    0    0  0.00000000000E+00  0.00000000000E+00  0.45593999997E+02  0.45594000000E+02  0.51100000000E-03 0.  1.
         11   -1    0    0    0    0 -0.00000000000E+00 -0.00000000000E+00 -0.45593999997E+02  0.45594000000E+02  0.51100000000E-03 0. -1.
    9900012    2    1    2    0    0 -0.11271347682E+02 -0.56544591524E+01 -0.13844244399E+02  0.72461567081E+02  0.69999995815E+02 0.  0.
        -12    1    1    2    0    0  0.11271347682E+02  0.56544591524E+01  0.13844244399E+02  0.18726432919E+02  0.00000000000E+00 0.  1.
         11    1    3    3    0    0 -0.14256599723E+02  0.19683054546E+02 -0.64709793828E+01  0.25150484018E+02  0.51100000000E-03 0. -1.
        -11    1    3    3    0    0  0.77405934665E+01 -0.15958477819E+02 -0.22647964539E+02  0.28766649084E+02  0.51100000000E-03 0.  1.
        -12    1    3    3    0    0 -0.47553414260E+01 -0.93790358788E+01  0.15274699523E+02  0.18544433979E+02  0.00000000000E+00 0.  1.
</event>
<event>
 7    1  0.1826069E-013  0.7246151E+02  0.7816164E-02  0.1226708E+00
        -11   -1    0    0    0    0  0.00000000000E+00  0.00000000000E+00  0.45593999997E+02  0.45594000000E+02  0.51100000000E-03 0. -1.
         11   -1    0    0    0    0 -0.00000000000E+00 -0.00000000000E+00 -0.45593999997E+02  0.45594000000E+02  0.51100000000E-03 0.  1.
    9900012    2    1    2    0    0 -0.16198736627E+01  0.91697369852E+01  0.16247262723E+02  0.72461505052E+02  0.69999915009E+02 0.  0.
        -12    1    1    2    0    0  0.16198736627E+01 -0.91697369852E+01 -0.16247262723E+02  0.18726494948E+02  0.00000000000E+00 0.  1.
         11    1    3    3    0    0 -0.24035095162E+02 -0.12204703638E+01  0.28400852973E+02  0.37226117138E+02  0.51100000000E-03 0. -1.
        -11    1    3    3    0    0  0.21792946649E+02  0.15833795092E+02 -0.72841045669E+01  0.27905192533E+02  0.51100000000E-03 0.  1.
         12    1    3    3    0    0  0.62227484987E+00 -0.54435877431E+01 -0.48694856832E+01  0.73301953811E+01  0.00000000000E+00 0. -1.
</event>
<event>
 7    1  0.1826069E-013  0.7246155E+02  0.7816164E-02  0.1226708E+00
        -11   -1    0    0    0    0  0.00000000000E+00  0.00000000000E+00  0.45593999997E+02  0.45594000000E+02  0.51100000000E-03 0.  1.
         11   -1    0    0    0    0 -0.00000000000E+00 -0.00000000000E+00 -0.45593999997E+02  0.45594000000E+02  0.51100000000E-03 0. -1.
    9900012    2    1    2    0    0 -0.13147779619E+02 -0.65835129542E+01 -0.11596255148E+02  0.72461551186E+02  0.69999975108E+02 0.  0.
        -12    1    1    2    0    0  0.13147779619E+02  0.65835129542E+01  0.11596255148E+02  0.18726448814E+02  0.00000000000E+00 0.  1.
         11    1    3    3    0    0  0.23192000016E+02  0.76057896423E+01  0.21378464037E+01  0.24500760974E+02  0.51100000000E-03 0. -1.
        -11    1    3    3    0    0 -0.31203131573E+02 -0.83259874540E+01 -0.14558764832E+00  0.32295180493E+02  0.51100000000E-03 0.  1.
         12    1    3    3    0    0 -0.51366480611E+01 -0.58633151425E+01 -0.13588513903E+02  0.15665609719E+02  0.00000000000E+00 0. -1.
</event>
<event>
 7    1  0.1826069E-013  0.7246155E+02  0.7816164E-02  0.1226708E+00
        -11   -1    0    0    0    0  0.00000000000E+00  0.00000000000E+00  0.45593999997E+02  0.45594000000E+02  0.51100000000E-03 0. -1.
         11   -1    0    0    0    0 -0.00000000000E+00 -0.00000000000E+00 -0.45593999997E+02  0.45594000000E+02  0.51100000000E-03 0.  1.
    9900012    2    1    2    0    0 -0.15615128893E+01 -0.17960223479E+02  0.50667376553E+01  0.72461553984E+02  0.69999978752E+02 0.  0.
        -12    1    1    2    0    0  0.15615128893E+01  0.17960223479E+02 -0.50667376553E+01  0.18726446016E+02  0.00000000000E+00 0.  1.
         11    1    3    3    0    0  0.72368552276E+01  0.36243034246E+01  0.32456595746E+02  0.33450534474E+02  0.51100000000E-03 0. -1.
        -11    1    3    3    0    0 -0.57943492616E+01 -0.82563002673E+01 -0.22221427277E+02  0.24403540890E+02  0.51100000000E-03 0.  1.
        -12    1    3    3    0    0 -0.30040188553E+01 -0.13328226637E+02 -0.51684308136E+01  0.14607478620E+02  0.00000000000E+00 0.  1.
</event>
<event>
 7    1  0.1826069E-013  0.7246181E+02  0.7816164E-02  0.1226707E+00
        -11   -1    0    0    0    0  0.00000000000E+00  0.00000000000E+00  0.45593999997E+02  0.45594000000E+02  0.51100000000E-03 0.  1.
         11   -1    0    0    0    0 -0.00000000000E+00 -0.00000000000E+00 -0.45593999997E+02  0.45594000000E+02  0.51100000000E-03 0. -1.
    9900012    2    1    2    0    0  0.16567538426E+02  0.76753826593E+01 -0.41563457019E+01  0.72461814108E+02  0.70000317612E+02 0.  0.
        -12    1    1    2    0    0 -0.16567538426E+02 -0.76753826593E+01  0.41563457019E+01  0.18726185892E+02  0.00000000000E+00 0.  1.
         11    1    3    3    0    0  0.20910561939E+02 -0.92396389253E+01  0.19914624757E+02  0.30318555499E+02  0.51100000000E-03 0. -1.
        -11    1    3    3    0    0  0.23755149718E+01  0.21103843185E+02 -0.26408131825E+02  0.33888120268E+02  0.51100000000E-03 0.  1.
         12    1    3    3    0    0 -0.67185384852E+01 -0.41888216006E+01  0.23371613657E+01  0.82551383409E+01  0.00000000000E+00 0. -1.
</event>
<event>
 7    1  0.1826069E-013  0.7246156E+02  0.7816164E-02  0.1226708E+00
        -11   -1    0    0    0    0  0.00000000000E+00  0.00000000000E+00  0.45593999997E+02  0.45594000000E+02  0.51100000000E-03 0.  1.
         11   -1    0    0    0    0 -0.00000000000E+00 -0.00000000000E+00 -0.45593999997E+02  0.45594000000E+02  0.51100000000E-03 0. -1.
    9900012    2    1    2    0    0  0.18036911735E+01  0.87916797875E+01  0.16435707274E+02  0.72461563902E+02  0.69999991673E+02 0.  0.
        -12    1    1    2    0    0 -0.18036911735E+01 -0.87916797875E+01 -0.16435707274E+02  0.18726436098E+02  0.00000000000E+00 0.  1.
         11    1    3    3    0    0  0.19492696843E+02 -0.15049676800E+02 -0.12885908632E+02  0.27793967754E+02  0.51100000000E-03 0. -1.
        -11    1    3    3    0    0 -0.13997432907E+00  0.70740305431E+01  0.14746373963E+02  0.16355948344E+02  0.51100000000E-03 0.  1.
         12    1    3    3    0    0 -0.17549031340E+02  0.16767326044E+02  0.14575241943E+02  0.28311647804E+02  0.00000000000E+00 0. -1.
</event>
<event>
 8    1  0.1826069E-013  0.7246155E+02  0.7816164E-02  0.1226708E+00
        -11   -1    0    0    0    0  0.00000000000E+00  0.00000000000E+00  0.45593999997E+02  0.45594000000E+02  0.51100000000E-03 0.  1.
         11   -1    0    0    0    0 -0.00000000000E+00 -0.00000000000E+00 -0.45593999997E+02  0.45594000000E+02  0.51100000000E-03 0. -1.
    9900012    2    1    2    0    0  0.61246811564E+01  0.16473776569E+02  0.64639694983E+01  0.72461549846E+02  0.69999973362E+02 0.  0.
        -24    2    3    3    0    0  0.14285089410E+00  0.28591112854E+02  0.18404597434E+00  0.57560221997E+02  0.49956712690E+02 0.  0.
        -12    1    1    2    0    0 -0.61246811564E+01 -0.16473776569E+02 -0.64639694983E+01  0.18726450154E+02  0.00000000000E+00 0.  1.
         11    1    4    4    0    0 -0.18494661233E+02  0.30225530577E+02  0.94627436148E+01  0.36676678009E+02  0.51100000000E-03 0. -1.
        -11    1    3    3    0    0  0.59818302623E+01 -0.12117336285E+02  0.62799235239E+01  0.14901327849E+02  0.51100000000E-03 0.  1.
        -12    1    4    4    0    0  0.18637512127E+02 -0.16344177226E+01 -0.92786976404E+01  0.20883543988E+02  0.00000000000E+00 0.  1.
</event>
<event>
 7    1  0.1826069E-013  0.7246138E+02  0.7816164E-02  0.1226709E+00
        -11   -1    0    0    0    0  0.00000000000E+00  0.00000000000E+00  0.45593999997E+02  0.45594000000E+02  0.51100000000E-03 0.  1.
         11   -1    0    0    0    0 -0.00000000000E+00 -0.00000000000E+00 -0.45593999997E+02  0.45594000000E+02  0.51100000000E-03 0. -1.
    9900012    2    1    2    0    0  0.43244230511E+01  0.17130413962E+02 -0.62076370966E+01  0.72461375222E+02  0.69999745882E+02 0.  0.
        -12    1    1    2    0    0 -0.43244230511E+01 -0.17130413962E+02  0.62076370966E+01  0.18726624778E+02  0.00000000000E+00 0.  1.
         11    1    3    3    0    0 -0.22370214815E+02 -0.14252426009E+02 -0.66702935624E+01  0.27350520552E+02  0.51100000000E-03 0. -1.
        -11    1    3    3    0    0  0.22010582787E+02  0.13831191795E+02 -0.42571334738E+01  0.26341807204E+02  0.51100000000E-03 0.  1.
        -12    1    3    3    0    0  0.46840550796E+01  0.17551648177E+02  0.47197899397E+01  0.18769047466E+02  0.00000000000E+00 0.  1.
</event>
<event>
 7    1  0.1826069E-013  0.7246158E+02  0.7816164E-02  0.1226708E+00
        -11   -1    0    0    0    0  0.00000000000E+00  0.00000000000E+00  0.45593999997E+02  0.45594000000E+02  0.51100000000E-03 0.  1.
         11   -1    0    0    0    0 -0.00000000000E+00 -0.00000000000E+00 -0.45593999997E+02  0.45594000000E+02  0.51100000000E-03 0. -1.
    9900012    2    1    2    0    0  0.29839517627E+01 -0.34981309780E+01 -0.18153183335E+02  0.72461576058E+02  0.70000007508E+02 0.  0.
        -12    1    1    2    0    0 -0.29839517627E+01  0.34981309780E+01  0.18153183335E+02  0.18726423942E+02  0.00000000000E+00 0.  1.
         11    1    3    3    0    0 -0.17905640334E+02 -0.23841945459E+02 -0.81060645464E+01  0.30899168302E+02  0.51100000000E-03 0.  1.
        -11    1    3    3    0    0  0.19157246391E+02  0.21300299113E+00 -0.37644586851E+00  0.19162128569E+02  0.51100000000E-03 0. -1.
         12    1    3    3    0    0  0.17323457060E+01  0.20130811490E+02 -0.96706729204E+01  0.22400279186E+02  0.00000000000E+00 0. -1.
</event>
<event>
 7    1  0.1826069E-013  0.7246142E+02  0.7816164E-02  0.1226708E+00
        -11   -1    0    0    0    0  0.00000000000E+00  0.00000000000E+00  0.45593999997E+02  0.45594000000E+02  0.51100000000E-03 0.  1.
         11   -1    0    0    0    0 -0.00000000000E+00 -0.00000000000E+00 -0.45593999997E+02  0.45594000000E+02  0.51100000000E-03 0. -1.
    9900012    2    1    2    0    0 -0.10040759987E+02 -0.11997021601E+02 -0.10292695036E+02  0.72461415701E+02  0.69999798613E+02 0.  0.
        -12    1    1    2    0    0  0.10040759987E+02  0.11997021601E+02  0.10292695036E+02  0.18726584299E+02  0.00000000000E+00 0.  1.
         11    1    3    3    0    0 -0.15751451745E+02 -0.29850450849E+02 -0.10221565261E+02  0.35265252652E+02  0.51100000000E-03 0. -1.
        -11    1    3    3    0    0  0.15078129733E+02 -0.23665099808E+00 -0.56024073236E+01  0.16087043483E+02  0.51100000000E-03 0.  1.
         12    1    3    3    0    0 -0.93674379752E+01  0.18090080247E+02  0.55312775484E+01  0.21109119567E+02  0.00000000000E+00 0. -1.
</event>
<event>
 7    1  0.1826069E-013  0.7246157E+02  0.7816164E-02  0.1226708E+00
        -11   -1    0    0    0    0  0.00000000000E+00  0.00000000000E+00  0.45593999997E+02  0.45594000000E+02  0.51100000000E-03 0.  1.
         11   -1    0    0    0    0 -0.00000000000E+00 -0.00000000000E+00 -0.45593999997E+02  0.45594000000E+02  0.51100000000E-03 0. -1.
    9900012    2    1    2    0    0 -0.17146779962E+02 -0.56017785739E+01 -0.50286318719E+01  0.72461571489E+02  0.70000001556E+02 0.  0.
        -12    1    1    2    0    0  0.17146779962E+02  0.56017785739E+01  0.50286318719E+01  0.18726428511E+02  0.00000000000E+00 0.  1.
         11    1    3    3    0    0 -0.78289301722E+01 -0.11123750303E+02  0.12157193695E+02  0.18243555773E+02  0.51100000000E-03 0. -1.
        -11    1    3    3    0    0 -0.13567304131E+02  0.24558994618E+02 -0.20075102821E+02  0.34499647992E+02  0.51100000000E-03 0.  1.
        -12    1    3    3    0    0  0.42494543407E+01 -0.19037022889E+02  0.28892772545E+01  0.19718367724E+02  0.00000000000E+00 0.  1.
</event>
<event>
 7    1  0.1826069E-013  0.7246158E+02  0.7816164E-02  0.1226708E+00
        -11   -1    0    0    0    0  0.00000000000E+00  0.00000000000E+00  0.45593999997E+02  0.45594000000E+02  0.51100000000E-03 0. -1.
         11   -1    0    0    0    0 -0.00000000000E+00 -0.00000000000E+00 -0.45593999997E+02  0.45594000000E+02  0.51100000000E-03 0.  1.
    9900012    2    1    2    0    0  0.97110364228E+01 -0.45725852687E+00  0.16005165671E+02  0.72461584381E+02  0.70000018351E+02 0.  0.
        -12    1    1    2    0    0 -0.97110364228E+01  0.45725852687E+00 -0.16005165671E+02  0.18726415619E+02  0.00000000000E+00 0.  1.
         11    1    3    3    0    0  0.19894240629E+02 -0.14482172657E+02  0.19085096755E+01  0.24681096906E+02  0.51100000000E-03 0.  1.
        -11    1    3    3    0    0 -0.22174734531E+02  0.66306388530E+01  0.21738868008E+02  0.31753151114E+02  0.51100000000E-03 0. -1.
         12    1    3    3    0    0  0.11991530324E+02  0.73942752769E+01 -0.76422120124E+01  0.16027336361E+02  0.00000000000E+00 0. -1.
</event>
<event>
 7    1  0.1826069E-013  0.7246163E+02  0.7816164E-02  0.1226708E+00
        -11   -1    0    0    0    0  0.00000000000E+00  0.00000000000E+00  0.45593999997E+02  0.45594000000E+02  0.51100000000E-03 0. -1.
         11   -1    0    0    0    0 -0.00000000000E+00 -0.00000000000E+00 -0.45593999997E+02  0.45594000000E+02  0.51100000000E-03 0.  1.
    9900012    2    1    2    0    0  0.48006351871E+01 -0.54323151067E+01  0.17266180060E+02  0.72461625030E+02  0.70000071304E+02 0.  0.
        -12    1    1    2    0    0 -0.48006351871E+01  0.54323151067E+01 -0.17266180060E+02  0.18726374970E+02  0.00000000000E+00 0.  1.
         11    1    3    3    0    0  0.22707918332E+02  0.12030445767E+02 -0.79267074281E+01  0.26892636004E+02  0.51100000000E-03 0. -1.
        -11    1    3    3    0    0 -0.24892016877E+02 -0.95704939815E+01  0.13722311759E+02  0.29991810541E+02  0.51100000000E-03 0.  1.
         12    1    3    3    0    0  0.69847337322E+01 -0.78922668924E+01  0.11470575730E+02  0.15577178486E+02  0.00000000000E+00 0. -1.
</event>
<event>
 7    1  0.1826069E-013  0.7246154E+02  0.7816164E-02  0.1226708E+00
        -11   -1    0    0    0    0  0.00000000000E+00  0.00000000000E+00  0.45593999997E+02  0.45594000000E+02  0.51100000000E-03 0.  1.
         11   -1    0    0    0    0 -0.00000000000E+00 -0.00000000000E+00 -0.45593999997E+02  0.45594000000E+02  0.51100000000E-03 0. -1.
    9900012    2    1    2    0    0 -0.10247681556E+02  0.15638272099E+02 -0.10535109043E+01  0.72461536993E+02  0.69999956619E+02 0.  0.
        -12    1    1    2    0    0  0.10247681556E+02 -0.15638272099E+02  0.10535109043E+01  0.18726463007E+02  0.00000000000E+00 0.  1.
         11    1    3    3    0    0 -0.12728628058E+02  0.28474978903E+02 -0.65833292178E+01  0.31877619416E+02  0.51100000000E-03 0. -1.
        -11    1    3    3    0    0  0.14282824240E+02  0.10564956444E+01  0.14401441757E+02  0.20310509010E+02  0.51100000000E-03 0.  1.
         12    1    3    3    0    0 -0.11801877738E+02 -0.13893202449E+02 -0.88716234431E+01  0.20273408567E+02  0.00000000000E+00 0. -1.
</event>
<event>
 7    1  0.1826069E-013  0.7246165E+02  0.7816164E-02  0.1226708E+00
        -11   -1    0    0    0    0  0.00000000000E+00  0.00000000000E+00  0.45593999997E+02  0.45594000000E+02  0.51100000000E-03 0.  1.
         11   -1    0    0    0    0 -0.00000000000E+00 -0.00000000000E+00 -0.45593999997E+02  0.45594000000E+02  0.51100000000E-03 0. -1.
    9900012    2    1    2    0    0 -0.57988917032E+01 -0.13773742018E+02 -0.11284203183E+02  0.72461645426E+02  0.70000097873E+02 0.  0.
        -12    1    1    2    0    0  0.57988917032E+01  0.13773742018E+02  0.11284203183E+02  0.18726354574E+02  0.00000000000E+00 0.  1.
         11    1    3    3    0    0 -0.17317370990E+01 -0.25333857020E+02 -0.21360171916E+01  0.25482656742E+02  0.51100000000E-03 0. -1.
        -11    1    3    3    0    0  0.13934661582E+02  0.45246813921E+01  0.11552725987E+02  0.18657786929E+02  0.51100000000E-03 0.  1.
        -12    1    3    3    0    0 -0.18001816187E+02  0.70354336105E+01 -0.20700911978E+02  0.28321201755E+02  0.00000000000E+00 0.  1.
</event>
<event>
 7    1  0.1826069E-013  0.7246156E+02  0.7816164E-02  0.1226708E+00
        -11   -1    0    0    0    0  0.00000000000E+00  0.00000000000E+00  0.45593999997E+02  0.45594000000E+02  0.51100000000E-03 0.  1.
         11   -1    0    0    0    0 -0.00000000000E+00 -0.00000000000E+00 -0.45593999997E+02  0.45594000000E+02  0.51100000000E-03 0. -1.
    9900012    2    1    2    0    0  0.97125437597E+01  0.15227689523E+02  0.49460694959E+01  0.72461557787E+02  0.69999983707E+02 0.  0.
        -12    1    1    2    0    0 -0.97125437597E+01 -0.15227689523E+02 -0.49460694959E+01  0.18726442213E+02  0.00000000000E+00 0.  1.
         11    1    3    3    0    0  0.35734776655E+02  0.87118174180E+01 -0.11158523080E+02  0.38436735851E+02  0.51100000000E-03 0. -1.
        -11    1    3    3    0    0 -0.25088621405E+02  0.18100762178E+01  0.13982710543E+02  0.28779011350E+02  0.51100000000E-03 0.  1.
        -12    1    3    3    0    0 -0.93361149050E+00  0.47057958870E+01  0.21218820331E+01  0.52458105863E+01  0.00000000000E+00 0.  1.
</event>
<event>
 7    1  0.1826069E-013  0.7246154E+02  0.7816164E-02  0.1226708E+00
        -11   -1    0    0    0    0  0.00000000000E+00  0.00000000000E+00  0.45593999997E+02  0.45594000000E+02  0.51100000000E-03 0.  1.
         11   -1    0    0    0    0 -0.00000000000E+00 -0.00000000000E+00 -0.45593999997E+02  0.45594000000E+02  0.51100000000E-03 0. -1.
    9900012    2    1    2    0    0  0.45567423899E+01 -0.51997102667E+01 -0.17403427265E+02  0.72461543617E+02  0.69999965248E+02 0.  0.
        -12    1    1    2    0    0 -0.45567423899E+01  0.51997102667E+01  0.17403427265E+02  0.18726456383E+02  0.00000000000E+00 0.  1.
         11    1    3    3    0    0  0.64386554194E+01  0.27665431990E+01  0.33402785972E+01  0.77632149429E+01  0.51100000000E-03 0. -1.
        -11    1    3    3    0    0 -0.24916515326E+01  0.25825525544E+02 -0.16223451244E+02  0.30600105678E+02  0.51100000000E-03 0.  1.
        -12    1    3    3    0    0  0.60973850313E+00 -0.33791779010E+02 -0.45202546191E+01  0.34098222996E+02  0.00000000000E+00 0.  1.
</event>
<event>
 7    1  0.1826069E-013  0.7246158E+02  0.7816164E-02  0.1226708E+00
        -11   -1    0    0    0    0  0.00000000000E+00  0.00000000000E+00  0.45593999997E+02  0.45594000000E+02  0.51100000000E-03 0.  1.
         11   -1    0    0    0    0 -0.00000000000E+00 -0.00000000000E+00 -0.45593999997E+02  0.45594000000E+02  0.51100000000E-03 0. -1.
    9900012    2    1    2    0    0  0.68740268383E+00  0.16758402505E+02 -0.83283885738E+01  0.72461584614E+02  0.70000018654E+02 0.  0.
        -12    1    1    2    0    0 -0.68740268383E+00 -0.16758402505E+02  0.83283885738E+01  0.18726415386E+02  0.00000000000E+00 0.  1.
         11    1    3    3    0    0 -0.18649080161E+02  0.25441263362E+02  0.14575888564E+02  0.34749138119E+02  0.51100000000E-03 0. -1.
        -11    1    3    3    0    0  0.18369007102E+02  0.81575910212E+00 -0.21114539909E+02  0.27998387108E+02  0.51100000000E-03 0.  1.
        -12    1    3    3    0    0  0.96747574318E+00 -0.94986199584E+01 -0.17897372291E+01  0.97140593871E+01  0.00000000000E+00 0.  1.
</event>
<event>
 7    1  0.1826069E-013  0.7246170E+02  0.7816164E-02  0.1226708E+00
        -11   -1    0    0    0    0  0.00000000000E+00  0.00000000000E+00  0.45593999997E+02  0.45594000000E+02  0.51100000000E-03 0. -1.
         11   -1    0    0    0    0 -0.00000000000E+00 -0.00000000000E+00 -0.45593999997E+02  0.45594000000E+02  0.51100000000E-03 0.  1.
    9900012    2    1    2    0    0 -0.10537490473E+02  0.14571040560E+02 -0.52268861225E+01  0.72461701193E+02  0.70000170520E+02 0.  0.
        -12    1    1    2    0    0  0.10537490473E+02 -0.14571040560E+02  0.52268861225E+01  0.18726298807E+02  0.00000000000E+00 0.  1.
         11    1    3    3    0    0 -0.16462860249E+01 -0.19830783846E+02 -0.26064333734E+01  0.20068974583E+02  0.51100000000E-03 0. -1.
        -11    1    3    3    0    0 -0.11868786472E+02  0.16254020239E+02  0.16380410855E+02  0.25949549635E+02  0.51100000000E-03 0.  1.
        -12    1    3    3    0    0  0.29775820244E+01  0.18147804168E+02 -0.19000863604E+02  0.26443176975E+02  0.00000000000E+00 0.  1.
</event>
<event>
 7    1  0.1826069E-013  0.7246140E+02  0.7816164E-02  0.1226708E+00
        -11   -1    0    0    0    0  0.00000000000E+00  0.00000000000E+00  0.45593999997E+02  0.45594000000E+02  0.51100000000E-03 0.  1.
         11   -1    0    0    0    0 -0.00000000000E+00 -0.00000000000E+00 -0.45593999997E+02  0.45594000000E+02  0.51100000000E-03 0. -1.
    9900012    2    1    2    0    0 -0.27978159206E+01 -0.68218388622E+01 -0.17213956078E+02  0.72461400116E+02  0.69999778310E+02 0.  0.
        -12    1    1    2    0    0  0.27978159206E+01  0.68218388622E+01  0.17213956078E+02  0.18726599884E+02  0.00000000000E+00 0.  1.
         11    1    3    3    0    0 -0.29514918487E+02 -0.81455755432E+01 -0.85770074059E+01  0.31796947504E+02  0.51100000000E-03 0. -1.
        -11    1    3    3    0    0  0.11463230886E+02  0.15100343951E+02 -0.62996506027E+01  0.19977778850E+02  0.51100000000E-03 0.  1.
         12    1    3    3    0    0  0.15253871680E+02 -0.13776607270E+02 -0.23372980689E+01  0.20686673763E+02  0.00000000000E+00 0. -1.
</event>
<event>
 7    1  0.1826069E-013  0.7246156E+02  0.7816164E-02  0.1226708E+00
        -11   -1    0    0    0    0  0.00000000000E+00  0.00000000000E+00  0.45593999997E+02  0.45594000000E+02  0.51100000000E-03 0. -1.
         11   -1    0    0    0    0 -0.00000000000E+00 -0.00000000000E+00 -0.45593999997E+02  0.45594000000E+02  0.51100000000E-03 0.  1.
    9900012    2    1    2    0    0  0.10476776507E+02 -0.13597851405E+02  0.74843391376E+01  0.72461555032E+02  0.69999980118E+02 0.  0.
        -12    1    1    2    0    0 -0.10476776507E+02  0.13597851405E+02 -0.74843391376E+01  0.18726444968E+02  0.00000000000E+00 0.  1.
         11    1    3    3    0    0  0.25469875155E+02 -0.11915732139E+01  0.17650195894E+02  0.31010704644E+02  0.51100000000E-03 0. -1.
        -11    1    3    3    0    0 -0.57003121639E+00 -0.19442910185E+02 -0.15140729424E+02  0.24649409319E+02  0.51100000000E-03 0.  1.
         12    1    3    3    0    0 -0.14423067431E+02  0.70366319942E+01  0.49748726670E+01  0.16801441069E+02  0.00000000000E+00 0. -1.
</event>
<event>
 7    1  0.1826069E-013  0.7246158E+02  0.7816164E-02  0.1226708E+00
        -11   -1    0    0    0    0  0.00000000000E+00  0.00000000000E+00  0.45593999997E+02  0.45594000000E+02  0.51100000000E-03 0.  1.
         11   -1    0    0    0    0 -0.00000000000E+00 -0.00000000000E+00 -0.45593999997E+02  0.45594000000E+02  0.51100000000E-03 0. -1.
    9900012    2    1    2    0    0  0.32597897038E+00  0.39325359385E+01 -0.18305945128E+02  0.72461582077E+02  0.70000015349E+02 0.  0.
        -12    1    1    2    0    0 -0.32597897038E+00 -0.39325359385E+01  0.18305945128E+02  0.18726417923E+02  0.00000000000E+00 0.  1.
         11    1    3    3    0    0 -0.16818840468E+02 -0.52504765002E+01 -0.28510160620E+02  0.33515222765E+02  0.51100000000E-03 0. -1.
        -11    1    3    3    0    0  0.78160891279E+01  0.20900287166E+02  0.37039700191E+01  0.22619298111E+02  0.51100000000E-03 0.  1.
        -12    1    3    3    0    0  0.93287303106E+01 -0.11717274727E+02  0.65002454722E+01  0.16327061200E+02  0.00000000000E+00 0.  1.
</event>
<event>
 7    1  0.1826069E-013  0.7246156E+02  0.7816164E-02  0.1226708E+00
        -11   -1    0    0    0    0  0.00000000000E+00  0.00000000000E+00  0.45593999997E+02  0.45594000000E+02  0.51100000000E-03 0.  1.
         11   -1    0    0    0    0 -0.00000000000E+00 -0.00000000000E+00 -0.45593999997E+02  0.45594000000E+02  0.51100000000E-03 0. -1.
    9900012    2    1    2    0    0 -0.11262477249E+02  0.14053528288E+02 -0.51317318782E+01  0.72461555511E+02  0.69999980742E+02 0.  0.
        -12    1    1    2    0    0  0.11262477249E+02 -0.14053528288E+02  0.51317318782E+01  0.18726444489E+02  0.00000000000E+00 0.  1.
         11    1    3    3    0    0  0.14367616959E+02 -0.13549478753E+02  0.17226057388E+02  0.26205988723E+02  0.51100000000E-03 0.  1.
        -11    1    3    3    0    0 -0.18649320076E+02  0.27823571854E+02 -0.18043333361E+02  0.38046158401E+02  0.51100000000E-03 0. -1.
        -12    1    3    3    0    0 -0.69807741312E+01 -0.22056481402E+00 -0.43144559057E+01  0.82094083874E+01  0.00000000000E+00 0.  1.
</event>
<event>
 7    1  0.1826069E-013  0.7246158E+02  0.7816164E-02  0.1226708E+00
        -11   -1    0    0    0    0  0.00000000000E+00  0.00000000000E+00  0.45593999997E+02  0.45594000000E+02  0.51100000000E-03 0.  1.
         11   -1    0    0    0    0 -0.00000000000E+00 -0.00000000000E+00 -0.45593999997E+02  0.45594000000E+02  0.51100000000E-03 0. -1.
    9900012    2    1    2    0    0 -0.17727824607E+02 -0.21005794090E+01 -0.56560215328E+01  0.72461580729E+02  0.70000013593E+02 0.  0.
        -12    1    1    2    0    0  0.17727824607E+02  0.21005794090E+01  0.56560215328E+01  0.18726419271E+02  0.00000000000E+00 0.  1.
         11    1    3    3    0    0 -0.21017847069E+01  0.95547128721E+01 -0.13613869887E+02  0.16764471080E+02  0.51100000000E-03 0. -1.
        -11    1    3    3    0    0 -0.23019597971E+02 -0.28500328969E+02  0.37604414870E+01  0.36828135475E+02  0.51100000000E-03 0.  1.
        -12    1    3    3    0    0  0.73935580712E+01  0.16845036688E+02  0.41974068675E+01  0.18868974174E+02  0.00000000000E+00 0.  1.
</event>
<event>
 7    1  0.1826069E-013  0.7246174E+02  0.7816164E-02  0.1226708E+00
        -11   -1    0    0    0    0  0.00000000000E+00  0.00000000000E+00  0.45593999997E+02  0.45594000000E+02  0.51100000000E-03 0.  1.
         11   -1    0    0    0    0 -0.00000000000E+00 -0.00000000000E+00 -0.45593999997E+02  0.45594000000E+02  0.51100000000E-03 0. -1.
    9900012    2    1    2    0    0 -0.82997420400E+01  0.36063818926E+01 -0.16394548860E+02  0.72461736608E+02  0.70000216654E+02 0.  0.
        -12    1    1    2    0    0  0.82997420400E+01 -0.36063818926E+01  0.16394548860E+02  0.18726263392E+02  0.00000000000E+00 0.  1.
         11    1    3    3    0    0  0.16245227841E+02  0.18651068210E+02 -0.30883752802E+02  0.39567359785E+02  0.51100000000E-03 0. -1.
        -11    1    3    3    0    0 -0.80812287425E+01 -0.85520137445E+01  0.47042775528E+01  0.12671756967E+02  0.51100000000E-03 0.  1.
         12    1    3    3    0    0 -0.16463741138E+02 -0.64926725727E+01  0.97849263891E+01  0.20222619856E+02  0.00000000000E+00 0. -1.
</event>
<event>
 7    1  0.1826069E-013  0.7246156E+02  0.7816164E-02  0.1226708E+00
        -11   -1    0    0    0    0  0.00000000000E+00  0.00000000000E+00  0.45593999997E+02  0.45594000000E+02  0.51100000000E-03 0. -1.
         11   -1    0    0    0    0 -0.00000000000E+00 -0.00000000000E+00 -0.45593999997E+02  0.45594000000E+02  0.51100000000E-03 0.  1.
    9900012    2    1    2    0    0 -0.12043287620E+02 -0.59914396806E+01  0.13028485795E+02  0.72461559648E+02  0.69999986132E+02 0.  0.
        -12    1    1    2    0    0  0.12043287620E+02  0.59914396806E+01 -0.13028485795E+02  0.18726440352E+02  0.00000000000E+00 0.  1.
         11    1    3    3    0    0  0.83687591328E+01 -0.88323373647E+00  0.17972775718E+02  0.19845324349E+02  0.51100000000E-03 0. -1.
        -11    1    3    3    0    0  0.10206020773E+02 -0.12130763770E+02 -0.12638736492E+02  0.20274514791E+02  0.51100000000E-03 0.  1.
        -12    1    3    3    0    0 -0.30618067526E+02  0.70225578255E+01  0.76944465682E+01  0.32341720508E+02  0.00000000000E+00 0.  1.
</event>
<event>
 7    1  0.1826069E-013  0.7246155E+02  0.7816164E-02  0.1226708E+00
        -11   -1    0    0    0    0  0.00000000000E+00  0.00000000000E+00  0.45593999997E+02  0.45594000000E+02  0.51100000000E-03 0. -1.
         11   -1    0    0    0    0 -0.00000000000E+00 -0.00000000000E+00 -0.45593999997E+02  0.45594000000E+02  0.51100000000E-03 0.  1.
    9900012    2    1    2    0    0 -0.98014601501E+01 -0.18337709557E+01  0.15850825297E+02  0.72461548131E+02  0.69999971129E+02 0.  0.
        -12    1    1    2    0    0  0.98014601501E+01  0.18337709557E+01 -0.15850825297E+02  0.18726451869E+02  0.00000000000E+00 0.  1.
         11    1    3    3    0    0 -0.71363205258E+01  0.13452745102E+02  0.24908173483E+02  0.29194529075E+02  0.51100000000E-03 0. -1.
        -11    1    3    3    0    0 -0.26643941111E+01  0.83219797147E-01 -0.22615367960E+02  0.22771929864E+02  0.51100000000E-03 0.  1.
        -12    1    3    3    0    0 -0.74551318849E-03 -0.15369735854E+02  0.13558019774E+02  0.20495089192E+02  0.00000000000E+00 0.  1.
</event>
<event>
 7    1  0.1826069E-013  0.7246142E+02  0.7816164E-02  0.1226708E+00
        -11   -1    0    0    0    0  0.00000000000E+00  0.00000000000E+00  0.45593999997E+02  0.45594000000E+02  0.51100000000E-03 0.  1.
         11   -1    0    0    0    0 -0.00000000000E+00 -0.00000000000E+00 -0.45593999997E+02  0.45594000000E+02  0.51100000000E-03 0. -1.
    9900012    2    1    2    0    0  0.12476095496E+02 -0.49389715586E+01 -0.13062861882E+02  0.72461421043E+02  0.69999805573E+02 0.  0.
        -12    1    1    2    0    0 -0.12476095496E+02  0.49389715586E+01  0.13062861882E+02  0.18726578957E+02  0.00000000000E+00 0.  1.
         11    1    3    3    0    0 -0.14220998981E+02 -0.23398370494E+02  0.10183545632E+02  0.29213441353E+02  0.51100000000E-03 0.  1.
        -11    1    3    3    0    0  0.23329048246E+02  0.92847710908E+01 -0.10573613244E+02  0.27244316170E+02  0.51100000000E-03 0. -1.
         12    1    3    3    0    0  0.33680462304E+01  0.91746278442E+01 -0.12672794269E+02  0.16003663521E+02  0.00000000000E+00 0. -1.
</event>
<event>
 7    1  0.1826069E-013  0.7246157E+02  0.7816164E-02  0.1226708E+00
        -11   -1    0    0    0    0  0.00000000000E+00  0.00000000000E+00  0.45593999997E+02  0.45594000000E+02  0.51100000000E-03 0.  1.
         11   -1    0    0    0    0 -0.00000000000E+00 -0.00000000000E+00 -0.45593999997E+02  0.45594000000E+02  0.51100000000E-03 0. -1.
    9900012    2    1    2    0    0  0.15867674432E+02  0.87309948826E+01 -0.47608477728E+01  0.72461573886E+02  0.70000004678E+02 0.  0.
        -12    1    1    2    0    0 -0.15867674432E+02 -0.87309948826E+01  0.47608477728E+01  0.18726426114E+02  0.00000000000E+00 0.  1.
         11    1    3    3    0    0  0.36640242474E+02 -0.47897729546E+01  0.30344714127E+01  0.37076371324E+02  0.51100000000E-03 0. -1.
        -11    1    3    3    0    0 -0.14692296808E+02  0.62940666031E+01 -0.16188985967E+02  0.22749991798E+02  0.51100000000E-03 0.  1.
         12    1    3    3    0    0 -0.60802712345E+01  0.72267012341E+01  0.83936667814E+01  0.12635210764E+02  0.00000000000E+00 0. -1.
</event>
<event>
 7    1  0.1826069E-013  0.7246154E+02  0.7816164E-02  0.1226708E+00
        -11   -1    0    0    0    0  0.00000000000E+00  0.00000000000E+00  0.45593999997E+02  0.45594000000E+02  0.51100000000E-03 0.  1.
         11   -1    0    0    0    0 -0.00000000000E+00 -0.00000000000E+00 -0.45593999997E+02  0.45594000000E+02  0.51100000000E-03 0. -1.
    9900012    2    1    2    0    0 -0.58920136726E+01  0.17273408751E+02  0.41944815074E+01  0.72461544112E+02  0.69999965893E+02 0.  0.
        -12    1    1    2    0    0  0.58920136726E+01 -0.17273408751E+02 -0.41944815074E+01  0.18726455888E+02  0.00000000000E+00 0.  1.
         11    1    3    3    0    0 -0.52626341620E+00 -0.24616798065E+02 -0.11028822724E+02  0.26979596571E+02  0.51100000000E-03 0. -1.
        -11    1    3    3    0    0  0.11762645408E+01  0.92944084640E+01  0.13820137385E+01  0.94699307917E+01  0.51100000000E-03 0.  1.
         12    1    3    3    0    0 -0.65420147972E+01  0.32595798353E+02  0.13841290493E+02  0.36012016750E+02  0.00000000000E+00 0. -1.
</event>
<event>
 7    1  0.1826069E-013  0.7246155E+02  0.7816164E-02  0.1226708E+00
        -11   -1    0    0    0    0  0.00000000000E+00  0.00000000000E+00  0.45593999997E+02  0.45594000000E+02  0.51100000000E-03 0.  1.
         11   -1    0    0    0    0 -0.00000000000E+00 -0.00000000000E+00 -0.45593999997E+02  0.45594000000E+02  0.51100000000E-03 0. -1.
    9900012    2    1    2    0    0  0.16337248071E+02  0.21920781200E+01  0.88864589786E+01  0.72461547208E+02  0.69999969925E+02 0.  0.
        -12    1    1    2    0    0 -0.16337248071E+02 -0.21920781200E+01 -0.88864589786E+01  0.18726452792E+02  0.00000000000E+00 0.  1.
         11    1    3    3    0    0  0.56939343829E-01 -0.15741851753E+01  0.32551957155E+02  0.32590047805E+02  0.51100000000E-03 0.  1.
        -11    1    3    3    0    0  0.69019561426E+01  0.44430587419E+01 -0.28244487404E+02  0.29413072579E+02  0.51100000000E-03 0. -1.
         12    1    3    3    0    0  0.93783525842E+01 -0.67679544660E+00  0.45789892272E+01  0.10458426823E+02  0.00000000000E+00 0. -1.
</event>
<event>
 7    1  0.1826069E-013  0.7246158E+02  0.7816164E-02  0.1226708E+00
        -11   -1    0    0    0    0  0.00000000000E+00  0.00000000000E+00  0.45593999997E+02  0.45594000000E+02  0.51100000000E-03 0.  1.
         11   -1    0    0    0    0 -0.00000000000E+00 -0.00000000000E+00 -0.45593999997E+02  0.45594000000E+02  0.51100000000E-03 0. -1.
    9900012    2    1    2    0    0 -0.16237754138E+02 -0.89580583145E+01 -0.26014456558E+01  0.72461575149E+02  0.70000006324E+02 0.  0.
        -12    1    1    2    0    0  0.16237754138E+02  0.89580583145E+01  0.26014456558E+01  0.18726424851E+02  0.00000000000E+00 0.  1.
         11    1    3    3    0    0  0.97283607906E+01  0.24991762738E+02  0.27158658675E+01  0.26955614185E+02  0.51100000000E-03 0. -1.
        -11    1    3    3    0    0 -0.11418528284E+02 -0.25970694041E+02 -0.11247772836E+01  0.28392338074E+02  0.51100000000E-03 0.  1.
         12    1    3    3    0    0 -0.14547586644E+02 -0.79791270121E+01 -0.41925342397E+01  0.17113622889E+02  0.00000000000E+00 0. -1.
</event>
<event>
 7    1  0.1826069E-013  0.7246155E+02  0.7816164E-02  0.1226708E+00
        -11   -1    0    0    0    0  0.00000000000E+00  0.00000000000E+00  0.45593999997E+02  0.45594000000E+02  0.51100000000E-03 0. -1.
         11   -1    0    0    0    0 -0.00000000000E+00 -0.00000000000E+00 -0.45593999997E+02  0.45594000000E+02  0.51100000000E-03 0.  1.
    9900012    2    1    2    0    0 -0.13532846234E+02  0.64719146462E+01 -0.11209656175E+02  0.72461548175E+02  0.69999971185E+02 0.  0.
        -12    1    1    2    0    0  0.13532846234E+02 -0.64719146462E+01  0.11209656175E+02  0.18726451825E+02  0.00000000000E+00 0.  1.
         11    1    3    3    0    0 -0.22921371637E+02 -0.56169993169E+01  0.19994730402E+02  0.30931039478E+02  0.51100000000E-03 0. -1.
        -11    1    3    3    0    0 -0.75236828068E+01  0.51901854755E+01 -0.10495413872E+02  0.13917526391E+02  0.51100000000E-03 0.  1.
         12    1    3    3    0    0  0.16912208210E+02  0.68987284877E+01 -0.20708972706E+02  0.27612982305E+02  0.00000000000E+00 0. -1.
</event>
<event>
 7    1  0.1826069E-013  0.7246171E+02  0.7816164E-02  0.1226708E+00
        -11   -1    0    0    0    0  0.00000000000E+00  0.00000000000E+00  0.45593999997E+02  0.45594000000E+02  0.51100000000E-03 0. -1.
         11   -1    0    0    0    0 -0.00000000000E+00 -0.00000000000E+00 -0.45593999997E+02  0.45594000000E+02  0.51100000000E-03 0.  1.
    9900012    2    1    2    0    0  0.14639208037E+02  0.95538580659E+01  0.67150028195E+01  0.72461711559E+02  0.70000184023E+02 0.  0.
        -12    1    1    2    0    0 -0.14639208037E+02 -0.95538580659E+01 -0.67150028195E+01  0.18726288441E+02  0.00000000000E+00 0.  1.
         11    1    3    3    0    0  0.12948546665E+02 -0.14144563132E+01  0.25987920779E+02  0.29069529994E+02  0.51100000000E-03 0. -1.
        -11    1    3    3    0    0 -0.15484766203E+02 -0.40581018460E+01 -0.68808895733E+01  0.17423915075E+02  0.51100000000E-03 0.  1.
        -12    1    3    3    0    0  0.17175427576E+02  0.15026416225E+02 -0.12392028386E+02  0.25968266490E+02  0.00000000000E+00 0.  1.
</event>
<event>
 7    1  0.1826069E-013  0.7246164E+02  0.7816164E-02  0.1226708E+00
        -11   -1    0    0    0    0  0.00000000000E+00  0.00000000000E+00  0.45593999997E+02  0.45594000000E+02  0.51100000000E-03 0.  1.
         11   -1    0    0    0    0 -0.00000000000E+00 -0.00000000000E+00 -0.45593999997E+02  0.45594000000E+02  0.51100000000E-03 0. -1.
    9900012    2    1    2    0    0  0.25827166062E+01 -0.33196931177E+01 -0.18247898932E+02  0.72461638824E+02  0.70000089273E+02 0.  0.
        -12    1    1    2    0    0 -0.25827166062E+01  0.33196931177E+01  0.18247898932E+02  0.18726361176E+02  0.00000000000E+00 0.  1.
         11    1    3    3    0    0 -0.16509306681E+02 -0.12359878115E+02 -0.35630870792E+02  0.41168953688E+02  0.51100000000E-03 0. -1.
        -11    1    3    3    0    0  0.89960621991E+01  0.96674861797E+01  0.27261112055E+01  0.13484105706E+02  0.51100000000E-03 0.  1.
         12    1    3    3    0    0  0.10095961088E+02 -0.62730118194E+00  0.14656860655E+02  0.17808579430E+02  0.00000000000E+00 0. -1.
</event>
<event>
 7    1  0.1826069E-013  0.7246157E+02  0.7816164E-02  0.1226708E+00
        -11   -1    0    0    0    0  0.00000000000E+00  0.00000000000E+00  0.45593999997E+02  0.45594000000E+02  0.51100000000E-03 0. -1.
         11   -1    0    0    0    0 -0.00000000000E+00 -0.00000000000E+00 -0.45593999997E+02  0.45594000000E+02  0.51100000000E-03 0.  1.
    9900012    2    1    2    0    0  0.11251937976E+01  0.17490871933E+02  0.65941143204E+01  0.72461574668E+02  0.70000005697E+02 0.  0.
        -12    1    1    2    0    0 -0.11251937976E+01 -0.17490871933E+02 -0.65941143204E+01  0.18726425332E+02  0.00000000000E+00 0.  1.
         11    1    3    3    0    0  0.14120347757E+02  0.23857033058E+02 -0.31837050665E+01  0.27904806492E+02  0.51100000000E-03 0. -1.
        -11    1    3    3    0    0 -0.21826192064E+02 -0.11102681457E+02  0.18956259291E+02  0.30967595356E+02  0.51100000000E-03 0.  1.
        -12    1    3    3    0    0  0.88310381047E+01  0.47365203317E+01 -0.91784399043E+01  0.13589172820E+02  0.00000000000E+00 0.  1.
</event>
<event>
 7    1  0.1826069E-013  0.7246165E+02  0.7816164E-02  0.1226708E+00
        -11   -1    0    0    0    0  0.00000000000E+00  0.00000000000E+00  0.45593999997E+02  0.45594000000E+02  0.51100000000E-03 0.  1.
         11   -1    0    0    0    0 -0.00000000000E+00 -0.00000000000E+00 -0.45593999997E+02  0.45594000000E+02  0.51100000000E-03 0. -1.
    9900012    2    1    2    0    0 -0.14321412941E+02 -0.18464281144E+01 -0.11923259511E+02  0.72461647372E+02  0.70000100408E+02 0.  0.
        -12    1    1    2    0    0  0.14321412941E+02  0.18464281144E+01  0.11923259511E+02  0.18726352628E+02  0.00000000000E+00 0.  1.
         11    1    3    3    0    0 -0.80895136695E+01  0.72047915729E+01 -0.15541307900E+02  0.18944168087E+02  0.51100000000E-03 0. -1.
        -11    1    3    3    0    0  0.22536358514E+02 -0.17541242961E+01 -0.38085563688E+01  0.22923121711E+02  0.51100000000E-03 0.  1.
        -12    1    3    3    0    0 -0.28768257785E+02 -0.72970953912E+01  0.74266047579E+01  0.30594357574E+02  0.00000000000E+00 0.  1.
</event>
<event>
 7    1  0.1826069E-013  0.7246155E+02  0.7816164E-02  0.1226708E+00
        -11   -1    0    0    0    0  0.00000000000E+00  0.00000000000E+00  0.45593999997E+02  0.45594000000E+02  0.51100000000E-03 0.  1.
         11   -1    0    0    0    0 -0.00000000000E+00 -0.00000000000E+00 -0.45593999997E+02  0.45594000000E+02  0.51100000000E-03 0. -1.
    9900012    2    1    2    0    0  0.78900054696E+01 -0.14419939957E+02 -0.89718005124E+01  0.72461546542E+02  0.69999969058E+02 0.  0.
        -12    1    1    2    0    0 -0.78900054696E+01  0.14419939957E+02  0.89718005124E+01  0.18726453458E+02  0.00000000000E+00 0.  1.
         11    1    3    3    0    0 -0.15559115883E+02  0.25508930885E+01 -0.16328738733E+02  0.22698476854E+02  0.51100000000E-03 0. -1.
        -11    1    3    3    0    0  0.22905813944E+02 -0.20961541361E+02 -0.94695539881E+01  0.32461284351E+02  0.51100000000E-03 0.  1.
        -12    1    3    3    0    0  0.54330740799E+00  0.39907083153E+01  0.16826492209E+02  0.17301785337E+02  0.00000000000E+00 0.  1.
</event>
<event>
 7    1  0.1826069E-013  0.7246157E+02  0.7816164E-02  0.1226708E+00
        -11   -1    0    0    0    0  0.00000000000E+00  0.00000000000E+00  0.45593999997E+02  0.45594000000E+02  0.51100000000E-03 0. -1.
         11   -1    0    0    0    0 -0.00000000000E+00 -0.00000000000E+00 -0.45593999997E+02  0.45594000000E+02  0.51100000000E-03 0.  1.
    9900012    2    1    2    0    0 -0.12251612993E+02  0.14463111183E+01  0.14088477322E+02  0.72461574019E+02  0.70000004852E+02 0.  0.
        -12    1    1    2    0    0  0.12251612993E+02 -0.14463111183E+01 -0.14088477322E+02  0.18726425981E+02  0.00000000000E+00 0.  1.
         11    1    3    3    0    0 -0.38071868831E+01  0.45608164234E+01  0.26271230815E+02  0.26934611325E+02  0.51100000000E-03 0. -1.
        -11    1    3    3    0    0  0.61497392862E+01 -0.20345841005E+02 -0.50579921052E+01  0.21848474177E+02  0.51100000000E-03 0.  1.
        -12    1    3    3    0    0 -0.14594165396E+02  0.17231335700E+02 -0.71247613886E+01  0.23678488517E+02  0.00000000000E+00 0.  1.
</event>
<event>
 7    1  0.1826069E-013  0.7246157E+02  0.7816164E-02  0.1226708E+00
        -11   -1    0    0    0    0  0.00000000000E+00  0.00000000000E+00  0.45593999997E+02  0.45594000000E+02  0.51100000000E-03 0. -1.
         11   -1    0    0    0    0 -0.00000000000E+00 -0.00000000000E+00 -0.45593999997E+02  0.45594000000E+02  0.51100000000E-03 0.  1.
    9900012    2    1    2    0    0 -0.17807025117E+02  0.56242352282E+01 -0.13989828494E+01  0.72461566319E+02  0.69999994821E+02 0.  0.
        -12    1    1    2    0    0  0.17807025117E+02 -0.56242352282E+01  0.13989828494E+01  0.18726433681E+02  0.00000000000E+00 0.  1.
         11    1    3    3    0    0  0.58539109214E+01  0.13114997780E+02  0.10734974809E+02  0.17930731280E+02  0.51100000000E-03 0. -1.
        -11    1    3    3    0    0 -0.17259875668E+02 -0.20845421828E+02 -0.23515796076E+02  0.35852860201E+02  0.51100000000E-03 0.  1.
         12    1    3    3    0    0 -0.64010603704E+01  0.13354659276E+02  0.11381838417E+02  0.18677974837E+02  0.00000000000E+00 0. -1.
</event>
<event>
 7    1  0.1826069E-013  0.7246157E+02  0.7816164E-02  0.1226708E+00
        -11   -1    0    0    0    0  0.00000000000E+00  0.00000000000E+00  0.45593999997E+02  0.45594000000E+02  0.51100000000E-03 0.  1.
         11   -1    0    0    0    0 -0.00000000000E+00 -0.00000000000E+00 -0.45593999997E+02  0.45594000000E+02  0.51100000000E-03 0. -1.
    9900012    2    1    2    0    0 -0.60506911194E+01 -0.95875664800E+01  0.14904598043E+02  0.72461565826E+02  0.69999994179E+02 0.  0.
        -12    1    1    2    0    0  0.60506911194E+01  0.95875664800E+01 -0.14904598043E+02  0.18726434174E+02  0.00000000000E+00 0.  1.
         11    1    3    3    0    0 -0.14547126959E+02 -0.22717468988E+02  0.31155986258E+00  0.26977756945E+02  0.51100000000E-03 0. -1.
        -11    1    3    3    0    0 -0.58416614195E+01  0.18741420344E+02 -0.52948793096E+01  0.20332279553E+02  0.51100000000E-03 0.  1.
        -12    1    3    3    0    0  0.14338097259E+02 -0.56115178366E+01  0.19887917490E+02  0.25151529328E+02  0.00000000000E+00 0.  1.
</event>
<event>
 7    1  0.1826069E-013  0.7246157E+02  0.7816164E-02  0.1226708E+00
        -11   -1    0    0    0    0  0.00000000000E+00  0.00000000000E+00  0.45593999997E+02  0.45594000000E+02  0.51100000000E-03 0.  1.
         11   -1    0    0    0    0 -0.00000000000E+00 -0.00000000000E+00 -0.45593999997E+02  0.45594000000E+02  0.51100000000E-03 0. -1.
    9900012    2    1    2    0    0 -0.16462229801E+02  0.59157885671E+01 -0.66841247212E+01  0.72461572480E+02  0.70000002847E+02 0.  0.
        -12    1    1    2    0    0  0.16462229801E+02 -0.59157885671E+01  0.66841247212E+01  0.18726427520E+02  0.00000000000E+00 0.  1.
         11    1    3    3    0    0  0.31245743972E+01  0.47842544283E+01  0.17721601924E+02  0.18620076010E+02  0.51100000000E-03 0.  1.
        -11    1    3    3    0    0 -0.28224574828E+02  0.13681208176E+02 -0.22247085568E+02  0.38454322227E+02  0.51100000000E-03 0. -1.
        -12    1    3    3    0    0  0.86377706305E+01 -0.12549674037E+02 -0.21586410772E+01  0.15387174244E+02  0.00000000000E+00 0.  1.
</event>
<event>
 7    1  0.1826069E-013  0.7246155E+02  0.7816164E-02  0.1226708E+00
        -11   -1    0    0    0    0  0.00000000000E+00  0.00000000000E+00  0.45593999997E+02  0.45594000000E+02  0.51100000000E-03 0.  1.
         11   -1    0    0    0    0 -0.00000000000E+00 -0.00000000000E+00 -0.45593999997E+02  0.45594000000E+02  0.51100000000E-03 0. -1.
    9900012    2    1    2    0    0 -0.36463479330E+01  0.11619787009E+02 -0.14225492973E+02  0.72461549356E+02  0.69999972724E+02 0.  0.
        -12    1    1    2    0    0  0.36463479330E+01 -0.11619787009E+02  0.14225492973E+02  0.18726450644E+02  0.00000000000E+00 0.  1.
         11    1    3    3    0    0 -0.28057885450E+02  0.11208898789E+01  0.13669465514E+01  0.28113517624E+02  0.51100000000E-03 0.  1.
        -11    1    3    3    0    0  0.12600216219E+02 -0.10990168123E+02 -0.38353621158E+01  0.17153986328E+02  0.51100000000E-03 0. -1.
         12    1    3    3    0    0  0.11811321299E+02  0.21489065252E+02 -0.11757077409E+02  0.27194045404E+02  0.00000000000E+00 0. -1.
</event>
<event>
 7    1  0.1826069E-013  0.7246158E+02  0.7816164E-02  0.1226708E+00
        -11   -1    0    0    0    0  0.00000000000E+00  0.00000000000E+00  0.45593999997E+02  0.45594000000E+02  0.51100000000E-03 0. -1.
         11   -1    0    0    0    0 -0.00000000000E+00 -0.00000000000E+00 -0.45593999997E+02  0.45594000000E+02  0.51100000000E-03 0.  1.
    9900012    2    1    2    0    0  0.11340145043E+02  0.94618168732E+01  0.11513200707E+02  0.72461583934E+02  0.70000017769E+02 0.  0.
        -12    1    1    2    0    0 -0.11340145043E+02 -0.94618168732E+01 -0.11513200707E+02  0.18726416066E+02  0.00000000000E+00 0.  1.
         11    1    3    3    0    0  0.10576304053E+02  0.30928935703E+02  0.24693952499E+02  0.40966432130E+02  0.51100000000E-03 0. -1.
        -11    1    3    3    0    0 -0.67237084510E+01 -0.92927098250E+01  0.80478834140E+00  0.11498277948E+02  0.51100000000E-03 0.  1.
         12    1    3    3    0    0  0.74875494410E+01 -0.12174409005E+02 -0.13985540133E+02  0.19996873857E+02  0.00000000000E+00 0. -1.
</event>
<event>
 7    1  0.1933095E-013  0.7246158E+02  0.7816164E-02  0.1226708E+00
        -11   -1    0    0    0    0  0.00000000000E+00  0.00000000000E+00  0.45593999997E+02  0.45594000000E+02  0.51100000000E-03 0. -1.
         11   -1    0    0    0    0 -0.00000000000E+00 -0.00000000000E+00 -0.45593999997E+02  0.45594000000E+02  0.51100000000E-03 0.  1.
    9900012    2    1    2    0    0 -0.13009077357E+02 -0.86349036627E+01  0.10338339021E+02  0.72461577259E+02  0.70000009073E+02 0.  0.
        -12    1    1    2    0    0  0.13009077357E+02  0.86349036627E+01 -0.10338339021E+02  0.18726422741E+02  0.00000000000E+00 0.  1.
         11    1    3    3    0    0 -0.16023718061E+02 -0.14274139256E+01  0.31699444677E+02  0.35547881007E+02  0.51100000000E-03 0. -1.
        -11    1    3    3    0    0 -0.23589558525E+01 -0.17831507126E+02 -0.10677942736E+02  0.20917594996E+02  0.51100000000E-03 0.  1.
         12    1    3    3    0    0  0.53735965559E+01  0.10624017389E+02 -0.10683162920E+02  0.15996101256E+02  0.00000000000E+00 0. -1.
</event>
<event>
 7    1  0.1826069E-013  0.7246155E+02  0.7816164E-02  0.1226708E+00
        -11   -1    0    0    0    0  0.00000000000E+00  0.00000000000E+00  0.45593999997E+02  0.45594000000E+02  0.51100000000E-03 0.  1.
         11   -1    0    0    0    0 -0.00000000000E+00 -0.00000000000E+00 -0.45593999997E+02  0.45594000000E+02  0.51100000000E-03 0. -1.
    9900012    2    1    2    0    0 -0.14376694662E+02 -0.10045573873E+02  0.65633011729E+01  0.72461552763E+02  0.69999977162E+02 0.  0.
        -12    1    1    2    0    0  0.14376694662E+02  0.10045573873E+02 -0.65633011729E+01  0.18726447237E+02  0.00000000000E+00 0.  1.
         11    1    3    3    0    0 -0.14316547447E+02  0.54258256178E+01 -0.71198434751E+01  0.16884764903E+02  0.51100000000E-03 0. -1.
        -11    1    3    3    0    0  0.10867907258E+02 -0.26629919143E+02  0.23489356720E+02  0.37135076156E+02  0.51100000000E-03 0.  1.
        -12    1    3    3    0    0 -0.10928054472E+02  0.11158519652E+02 -0.98062120721E+01  0.18441711704E+02  0.00000000000E+00 0.  1.
</event>
<event>
 7    1  0.1826069E-013  0.7246161E+02  0.7816164E-02  0.1226708E+00
        -11   -1    0    0    0    0  0.00000000000E+00  0.00000000000E+00  0.45593999997E+02  0.45594000000E+02  0.51100000000E-03 0. -1.
         11   -1    0    0    0    0 -0.00000000000E+00 -0.00000000000E+00 -0.45593999997E+02  0.45594000000E+02  0.51100000000E-03 0.  1.
    9900012    2    1    2    0    0 -0.13398024153E+02  0.12914386474E+02 -0.20950197249E+01  0.72461613887E+02  0.70000056787E+02 0.  0.
        -12    1    1    2    0    0  0.13398024153E+02 -0.12914386474E+02  0.20950197249E+01  0.18726386113E+02  0.00000000000E+00 0.  1.
         11    1    3    3    0    0 -0.11029607635E+02  0.32707656137E+02 -0.19814134842E+02  0.39800037115E+02  0.51100000000E-03 0. -1.
        -11    1    3    3    0    0  0.71498339991E+01 -0.22998891926E+01  0.44327961082E+01  0.87211982038E+01  0.51100000000E-03 0.  1.
         12    1    3    3    0    0 -0.95182505173E+01 -0.17493380470E+02  0.13286319009E+02  0.23940378568E+02  0.00000000000E+00 0. -1.
</event>
<event>
 7    1  0.1826069E-013  0.7246157E+02  0.7816164E-02  0.1226708E+00
        -11   -1    0    0    0    0  0.00000000000E+00  0.00000000000E+00  0.45593999997E+02  0.45594000000E+02  0.51100000000E-03 0.  1.
         11   -1    0    0    0    0 -0.00000000000E+00 -0.00000000000E+00 -0.45593999997E+02  0.45594000000E+02  0.51100000000E-03 0. -1.
    9900012    2    1    2    0    0  0.64067304304E+01 -0.12829455691E+02 -0.12043179424E+02  0.72461566843E+02  0.69999995504E+02 0.  0.
        -12    1    1    2    0    0 -0.64067304304E+01  0.12829455691E+02  0.12043179424E+02  0.18726433157E+02  0.00000000000E+00 0.  1.
         11    1    3    3    0    0  0.84881255269E+00 -0.23540732140E+02  0.78352826166E+01  0.24824951286E+02  0.51100000000E-03 0. -1.
        -11    1    3    3    0    0 -0.10314280543E+02  0.21243892494E+02 -0.14987276448E+02  0.27969730192E+02  0.51100000000E-03 0.  1.
        -12    1    3    3    0    0  0.15872198420E+02 -0.10532616045E+02 -0.48911855931E+01  0.19666885365E+02  0.00000000000E+00 0.  1.
</event>
<event>
 8    1  0.1826069E-013  0.7246160E+02  0.7816164E-02  0.1226708E+00
        -11   -1    0    0    0    0  0.00000000000E+00  0.00000000000E+00  0.45593999997E+02  0.45594000000E+02  0.51100000000E-03 0. -1.
         11   -1    0    0    0    0 -0.00000000000E+00 -0.00000000000E+00 -0.45593999997E+02  0.45594000000E+02  0.51100000000E-03 0.  1.
    9900012    2    1    2    0    0 -0.85075694996E+01 -0.20301583220E+00  0.16681071122E+02  0.72461599171E+02  0.70000037617E+02 0.  0.
         24    2    3    3    0    0 -0.18188095577E+01  0.12325741384E+02  0.24842708942E+02  0.56081074176E+02  0.48710314352E+02 0.  0.
        -12    1    1    2    0    0  0.85075694996E+01  0.20301583220E+00 -0.16681071122E+02  0.18726400829E+02  0.00000000000E+00 0.  1.
         11    1    3    3    0    0 -0.66887599419E+01 -0.12528757216E+02 -0.81616378199E+01  0.16380524995E+02  0.51100000000E-03 0.  1.
        -11    1    4    4    0    0 -0.18047418964E+02  0.17199133951E+02  0.29387542261E+02  0.38537607350E+02  0.51100000000E-03 0. -1.
         12    1    4    4    0    0  0.16228609406E+02 -0.48733925668E+01 -0.45448333183E+01  0.17543466825E+02  0.00000000000E+00 0. -1.
</event>
<event>
 7    1  0.1826069E-013  0.7246161E+02  0.7816164E-02  0.1226708E+00
        -11   -1    0    0    0    0  0.00000000000E+00  0.00000000000E+00  0.45593999997E+02  0.45594000000E+02  0.51100000000E-03 0.  1.
         11   -1    0    0    0    0 -0.00000000000E+00 -0.00000000000E+00 -0.45593999997E+02  0.45594000000E+02  0.51100000000E-03 0. -1.
    9900012    2    1    2    0    0  0.67240875318E+01 -0.24795874553E+01 -0.17300750593E+02  0.72461610114E+02  0.70000051872E+02 0.  0.
        -12    1    1    2    0    0 -0.67240875318E+01  0.24795874553E+01  0.17300750593E+02  0.18726389886E+02  0.00000000000E+00 0.  1.
         11    1    3    3    0    0 -0.53572502502E+01 -0.12802067886E+02  0.18051143925E+02  0.22769208806E+02  0.51100000000E-03 0. -1.
        -11    1    3    3    0    0  0.71344145562E+01  0.21147361387E+02 -0.18109919533E+02  0.28741606609E+02  0.51100000000E-03 0.  1.
         12    1    3    3    0    0  0.49469232258E+01 -0.10824880957E+02 -0.17241974985E+02  0.20950794699E+02  0.00000000000E+00 0. -1.
</event>
<event>
 7    1  0.1826069E-013  0.7246158E+02  0.7816164E-02  0.1226708E+00
        -11   -1    0    0    0    0  0.00000000000E+00  0.00000000000E+00  0.45593999997E+02  0.45594000000E+02  0.51100000000E-03 0.  1.
         11   -1    0    0    0    0 -0.00000000000E+00 -0.00000000000E+00 -0.45593999997E+02  0.45594000000E+02  0.51100000000E-03 0. -1.
    9900012    2    1    2    0    0  0.76277687610E+01  0.12391313907E+02  0.11787766631E+02  0.72461575922E+02  0.70000007331E+02 0.  0.
        -12    1    1    2    0    0 -0.76277687610E+01 -0.12391313907E+02 -0.11787766631E+02  0.18726424078E+02  0.00000000000E+00 0.  1.
         11    1    3    3    0    0  0.12250090432E+02  0.49051833707E+01 -0.19136529553E+02  0.23245049002E+02  0.51100000000E-03 0. -1.
        -11    1    3    3    0    0 -0.62534345444E+01 -0.14721778813E+02  0.12050421332E+02  0.20026204572E+02  0.51100000000E-03 0.  1.
        -12    1    3    3    0    0  0.16311128737E+01  0.22207909349E+02  0.18873874852E+02  0.29190322349E+02  0.00000000000E+00 0.  1.
</event>
<event>
 7    1  0.1826069E-013  0.7246154E+02  0.7816164E-02  0.1226708E+00
        -11   -1    0    0    0    0  0.00000000000E+00  0.00000000000E+00  0.45593999997E+02  0.45594000000E+02  0.51100000000E-03 0. -1.
         11   -1    0    0    0    0 -0.00000000000E+00 -0.00000000000E+00 -0.45593999997E+02  0.45594000000E+02  0.51100000000E-03 0.  1.
    9900012    2    1    2    0    0  0.27627442367E+00 -0.18678949928E+02  0.13041210662E+01  0.72461541987E+02  0.69999963124E+02 0.  0.
        -12    1    1    2    0    0 -0.27627442367E+00  0.18678949928E+02 -0.13041210662E+01  0.18726458013E+02  0.00000000000E+00 0.  1.
         11    1    3    3    0    0 -0.24786309224E+01 -0.18064285712E+02  0.10146872031E+01  0.18261752926E+02  0.51100000000E-03 0. -1.
        -11    1    3    3    0    0 -0.98974064903E+01  0.16908750816E+02  0.17732507511E+02  0.26425486415E+02  0.51100000000E-03 0.  1.
        -12    1    3    3    0    0  0.12652311836E+02 -0.17523415032E+02 -0.17443073648E+02  0.27774302646E+02  0.00000000000E+00 0.  1.
</event>
<event>
 7    1  0.1826069E-013  0.7246159E+02  0.7816164E-02  0.1226708E+00
        -11   -1    0    0    0    0  0.00000000000E+00  0.00000000000E+00  0.45593999997E+02  0.45594000000E+02  0.51100000000E-03 0.  1.
         11   -1    0    0    0    0 -0.00000000000E+00 -0.00000000000E+00 -0.45593999997E+02  0.45594000000E+02  0.51100000000E-03 0. -1.
    9900012    2    1    2    0    0 -0.13592307483E+01 -0.95148602215E+01 -0.16071660721E+02  0.72461592133E+02  0.70000028449E+02 0.  0.
        -12    1    1    2    0    0  0.13592307483E+01  0.95148602215E+01  0.16071660721E+02  0.18726407867E+02  0.00000000000E+00 0.  1.
         11    1    3    3    0    0 -0.22194174341E+02  0.18213499032E+02 -0.13373340889E+02  0.31672688052E+02  0.51100000000E-03 0. -1.
        -11    1    3    3    0    0  0.12659918782E+02 -0.70237944746E+01 -0.97311815177E+01  0.17444286354E+02  0.51100000000E-03 0.  1.
         12    1    3    3    0    0  0.81750248107E+01 -0.20704564778E+02  0.70328616856E+01  0.23344617727E+02  0.00000000000E+00 0. -1.
</event>
<event>
 7    1  0.1826069E-013  0.7246139E+02  0.7816164E-02  0.1226709E+00
        -11   -1    0    0    0    0  0.00000000000E+00  0.00000000000E+00  0.45593999997E+02  0.45594000000E+02  0.51100000000E-03 0.  1.
         11   -1    0    0    0    0 -0.00000000000E+00 -0.00000000000E+00 -0.45593999997E+02  0.45594000000E+02  0.51100000000E-03 0. -1.
    9900012    2    1    2    0    0 -0.97822193394E+01  0.15501886901E+02 -0.38321999204E+01  0.72461386079E+02  0.69999760025E+02 0.  0.
        -12    1    1    2    0    0  0.97822193394E+01 -0.15501886901E+02  0.38321999204E+01  0.18726613921E+02  0.00000000000E+00 0.  1.
         11    1    3    3    0    0 -0.95459028076E+01 -0.19325314704E+02 -0.18206396245E+02  0.28214622331E+02  0.51100000000E-03 0. -1.
        -11    1    3    3    0    0 -0.48706842641E+01  0.36344141289E+02  0.14331688479E+02  0.39370261190E+02  0.51100000000E-03 0.  1.
        -12    1    3    3    0    0  0.46343677323E+01 -0.15169396837E+01  0.42507845933E-01  0.48765025581E+01  0.00000000000E+00 0.  1.
</event>
<event>
 7    1  0.1826069E-013  0.7246161E+02  0.7816164E-02  0.1226708E+00
        -11   -1    0    0    0    0  0.00000000000E+00  0.00000000000E+00  0.45593999997E+02  0.45594000000E+02  0.51100000000E-03 0. -1.
         11   -1    0    0    0    0 -0.00000000000E+00 -0.00000000000E+00 -0.45593999997E+02  0.45594000000E+02  0.51100000000E-03 0.  1.
    9900012    2    1    2    0    0  0.13888812674E+02 -0.12472335574E+02  0.14897378688E+01  0.72461612439E+02  0.70000054901E+02 0.  0.
        -12    1    1    2    0    0 -0.13888812674E+02  0.12472335574E+02 -0.14897378688E+01  0.18726387561E+02  0.00000000000E+00 0.  1.
         11    1    3    3    0    0 -0.52843801889E+01 -0.46373483874E+01  0.21839402925E+02  0.22943173155E+02  0.51100000000E-03 0. -1.
        -11    1    3    3    0    0  0.10026305225E+02 -0.11606040657E+02 -0.31241949659E+02  0.34803539977E+02  0.51100000000E-03 0.  1.
        -12    1    3    3    0    0  0.91468876377E+01  0.37710534702E+01  0.10892284603E+02  0.14714899306E+02  0.00000000000E+00 0.  1.
</event>
<event>
 7    1  0.1826069E-013  0.7246158E+02  0.7816164E-02  0.1226708E+00
        -11   -1    0    0    0    0  0.00000000000E+00  0.00000000000E+00  0.45593999997E+02  0.45594000000E+02  0.51100000000E-03 0.  1.
         11   -1    0    0    0    0 -0.00000000000E+00 -0.00000000000E+00 -0.45593999997E+02  0.45594000000E+02  0.51100000000E-03 0. -1.
    9900012    2    1    2    0    0 -0.39784767841E+01 -0.17765365589E+02 -0.43866084708E+01  0.72461579469E+02  0.70000011952E+02 0.  0.
        -12    1    1    2    0    0  0.39784767841E+01  0.17765365589E+02  0.43866084708E+01  0.18726420531E+02  0.00000000000E+00 0.  1.
         11    1    3    3    0    0 -0.30880455666E+02 -0.17126112121E+02  0.13663819150E+02  0.37862992651E+02  0.51100000000E-03 0. -1.
        -11    1    3    3    0    0  0.13785543243E+02  0.43695339915E+01 -0.46522231349E+01  0.15191353138E+02  0.51100000000E-03 0.  1.
         12    1    3    3    0    0  0.13116435639E+02 -0.50087874595E+01 -0.13398204486E+02  0.19407233680E+02  0.00000000000E+00 0. -1.
</event>
<event>
 7    1  0.1826069E-013  0.7246156E+02  0.7816164E-02  0.1226708E+00
        -11   -1    0    0    0    0  0.00000000000E+00  0.00000000000E+00  0.45593999997E+02  0.45594000000E+02  0.51100000000E-03 0.  1.
         11   -1    0    0    0    0 -0.00000000000E+00 -0.00000000000E+00 -0.45593999997E+02  0.45594000000E+02  0.51100000000E-03 0. -1.
    9900012    2    1    2    0    0 -0.13214059304E+02 -0.12987952379E+02 -0.27168592017E+01  0.72461558955E+02  0.69999985228E+02 0.  0.
        -12    1    1    2    0    0  0.13214059304E+02  0.12987952379E+02  0.27168592017E+01  0.18726441045E+02  0.00000000000E+00 0.  1.
         11    1    3    3    0    0 -0.19911603897E+02 -0.35043264206E+02 -0.17940225356E+02  0.44117502445E+02  0.51100000000E-03 0. -1.
        -11    1    3    3    0    0  0.42228668492E+01  0.52177890695E+01  0.27977820217E+01  0.72722425498E+01  0.51100000000E-03 0.  1.
         12    1    3    3    0    0  0.24746777434E+01  0.16837522757E+02  0.12425584132E+02  0.21071813960E+02  0.00000000000E+00 0. -1.
</event>
<event>
 7    1  0.1826069E-013  0.7246168E+02  0.7816164E-02  0.1226708E+00
        -11   -1    0    0    0    0  0.00000000000E+00  0.00000000000E+00  0.45593999997E+02  0.45594000000E+02  0.51100000000E-03 0.  1.
         11   -1    0    0    0    0 -0.00000000000E+00 -0.00000000000E+00 -0.45593999997E+02  0.45594000000E+02  0.51100000000E-03 0. -1.
    9900012    2    1    2    0    0 -0.56501309049E+01 -0.16525764227E+02 -0.67565008224E+01  0.72461677193E+02  0.70000139255E+02 0.  0.
        -12    1    1    2    0    0  0.56501309049E+01  0.16525764227E+02  0.67565008224E+01  0.18726322807E+02  0.00000000000E+00 0.  1.
         11    1    3    3    0    0 -0.14804832139E+02 -0.26115395230E+02 -0.12700975836E+02  0.32596191650E+02  0.51100000000E-03 0. -1.
        -11    1    3    3    0    0  0.17781185016E+02 -0.22087060082E+01  0.14393835469E+02  0.22983285722E+02  0.51100000000E-03 0.  1.
         12    1    3    3    0    0 -0.86264837822E+01  0.11798337011E+02 -0.84493604555E+01  0.16882199821E+02  0.00000000000E+00 0. -1.
</event>
<event>
 7    1  0.1826069E-013  0.7246156E+02  0.7816164E-02  0.1226708E+00
        -11   -1    0    0    0    0  0.00000000000E+00  0.00000000000E+00  0.45593999997E+02  0.45594000000E+02  0.51100000000E-03 0.  1.
         11   -1    0    0    0    0 -0.00000000000E+00 -0.00000000000E+00 -0.45593999997E+02  0.45594000000E+02  0.51100000000E-03 0. -1.
    9900012    2    1    2    0    0 -0.74252922449E+01  0.13038194241E+02 -0.11204916062E+02  0.72461558321E+02  0.69999984403E+02 0.  0.
        -12    1    1    2    0    0  0.74252922449E+01 -0.13038194241E+02  0.11204916062E+02  0.18726441679E+02  0.00000000000E+00 0.  1.
         11    1    3    3    0    0 -0.21453866451E+02  0.39251038607E+01 -0.26565707245E+02  0.34371668969E+02  0.51100000000E-03 0. -1.
        -11    1    3    3    0    0 -0.34184814180E+01  0.11624003595E+02  0.16448780472E+02  0.20429533868E+02  0.51100000000E-03 0.  1.
        -12    1    3    3    0    0  0.17447055624E+02 -0.25109132154E+01 -0.10879892884E+01  0.17660355484E+02  0.00000000000E+00 0.  1.
</event>
<event>
 7    1  0.1826069E-013  0.7246157E+02  0.7816164E-02  0.1226708E+00
        -11   -1    0    0    0    0  0.00000000000E+00  0.00000000000E+00  0.45593999997E+02  0.45594000000E+02  0.51100000000E-03 0. -1.
         11   -1    0    0    0    0 -0.00000000000E+00 -0.00000000000E+00 -0.45593999997E+02  0.45594000000E+02  0.51100000000E-03 0.  1.
    9900012    2    1    2    0    0 -0.12424905040E+02  0.14004397756E+02 -0.42180371809E+00  0.72461565739E+02  0.69999994065E+02 0.  0.
        -12    1    1    2    0    0  0.12424905040E+02 -0.14004397756E+02  0.42180371809E+00  0.18726434261E+02  0.00000000000E+00 0.  1.
         11    1    3    3    0    0 -0.49409660475E+01  0.13404948425E+02 -0.69968584143E+00  0.14303683032E+02  0.51100000000E-03 0. -1.
        -11    1    3    3    0    0  0.31553831080E+01 -0.18815448272E+02 -0.20352724871E+02  0.27896432499E+02  0.51100000000E-03 0.  1.
        -12    1    3    3    0    0 -0.10639322101E+02  0.19414897604E+02  0.20630606994E+02  0.30261450208E+02  0.00000000000E+00 0.  1.
</event>
<event>
 7    1  0.1826069E-013  0.7246155E+02  0.7816164E-02  0.1226708E+00
        -11   -1    0    0    0    0  0.00000000000E+00  0.00000000000E+00  0.45593999997E+02  0.45594000000E+02  0.51100000000E-03 0.  1.
         11   -1    0    0    0    0 -0.00000000000E+00 -0.00000000000E+00 -0.45593999997E+02  0.45594000000E+02  0.51100000000E-03 0. -1.
    9900012    2    1    2    0    0  0.12841707321E+02 -0.42185717243E+01 -0.12960483702E+02  0.72461549933E+02  0.69999973476E+02 0.  0.
        -12    1    1    2    0    0 -0.12841707321E+02  0.42185717243E+01  0.12960483702E+02  0.18726450067E+02  0.00000000000E+00 0.  1.
         11    1    3    3    0    0 -0.13056043041E+02  0.14642140082E+02  0.13917932996E+02  0.24053303000E+02  0.51100000000E-03 0. -1.
        -11    1    3    3    0    0  0.26522271114E+01 -0.12282911833E+02 -0.41022076099E+00  0.12572689175E+02  0.51100000000E-03 0.  1.
         12    1    3    3    0    0  0.23245523250E+02 -0.65777999727E+01 -0.26468195937E+02  0.35835557758E+02  0.00000000000E+00 0. -1.
</event>
<event>
 7    1  0.1826069E-013  0.7246156E+02  0.7816164E-02  0.1226708E+00
        -11   -1    0    0    0    0  0.00000000000E+00  0.00000000000E+00  0.45593999997E+02  0.45594000000E+02  0.51100000000E-03 0. -1.
         11   -1    0    0    0    0 -0.00000000000E+00 -0.00000000000E+00 -0.45593999997E+02  0.45594000000E+02  0.51100000000E-03 0.  1.
    9900012    2    1    2    0    0 -0.14962254174E+00 -0.14545341102E+02  0.11793654807E+02  0.72461558043E+02  0.69999984040E+02 0.  0.
        -12    1    1    2    0    0  0.14962254174E+00  0.14545341102E+02 -0.11793654807E+02  0.18726441957E+02  0.00000000000E+00 0.  1.
         11    1    3    3    0    0 -0.12446902689E+01 -0.34754016493E+00  0.19264144859E+02  0.19307441971E+02  0.51100000000E-03 0. -1.
        -11    1    3    3    0    0  0.25600646861E+02 -0.41036990656E+01 -0.59858282829E+01  0.26609464599E+02  0.51100000000E-03 0.  1.
        -12    1    3    3    0    0 -0.24505579134E+02 -0.10094101871E+02 -0.14846617692E+01  0.26544651474E+02  0.00000000000E+00 0.  1.
</event>
<event>
 7    1  0.1826069E-013  0.7246153E+02  0.7816164E-02  0.1226708E+00
        -11   -1    0    0    0    0  0.00000000000E+00  0.00000000000E+00  0.45593999997E+02  0.45594000000E+02  0.51100000000E-03 0.  1.
         11   -1    0    0    0    0 -0.00000000000E+00 -0.00000000000E+00 -0.45593999997E+02  0.45594000000E+02  0.51100000000E-03 0. -1.
    9900012    2    1    2    0    0  0.17420067952E+02  0.10378257029E+01  0.67930004600E+01  0.72461529299E+02  0.69999946597E+02 0.  0.
        -12    1    1    2    0    0 -0.17420067952E+02 -0.10378257029E+01 -0.67930004600E+01  0.18726470701E+02  0.00000000000E+00 0.  1.
         11    1    3    3    0    0 -0.13240118013E+02 -0.12070244086E+02 -0.15390414733E+02  0.23618983535E+02  0.51100000000E-03 0. -1.
        -11    1    3    3    0    0  0.27580756775E+02 -0.24031645641E+01  0.14734339271E+02  0.31361984921E+02  0.51100000000E-03 0.  1.
         12    1    3    3    0    0  0.30794291909E+01  0.15511234353E+02  0.74490759222E+01  0.17480560843E+02  0.00000000000E+00 0. -1.
</event>
<event>
 7    1  0.1826069E-013  0.7246156E+02  0.7816164E-02  0.1226708E+00
        -11   -1    0    0    0    0  0.00000000000E+00  0.00000000000E+00  0.45593999997E+02  0.45594000000E+02  0.51100000000E-03 0.  1.
         11   -1    0    0    0    0 -0.00000000000E+00 -0.00000000000E+00 -0.45593999997E+02  0.45594000000E+02  0.51100000000E-03 0. -1.
    9900012    2    1    2    0    0  0.16702588925E+02 -0.66568359540E+01 -0.52335186293E+01  0.72461557226E+02  0.69999982976E+02 0.  0.
        -12    1    1    2    0    0 -0.16702588925E+02  0.66568359540E+01  0.52335186293E+01  0.18726442774E+02  0.00000000000E+00 0.  1.
         11    1    3    3    0    0  0.16753378892E+02 -0.16719763373E+02 -0.15427748848E+02  0.28253170199E+02  0.51100000000E-03 0. -1.
        -11    1    3    3    0    0  0.18017788895E+02  0.12757687531E+02  0.13158431814E+02  0.25701043478E+02  0.51100000000E-03 0.  1.
         12    1    3    3    0    0 -0.18068578862E+02 -0.26947601119E+01 -0.29642015955E+01  0.18507343549E+02  0.00000000000E+00 0. -1.
</event>
<event>
 7    1  0.1826069E-013  0.7246157E+02  0.7816164E-02  0.1226708E+00
        -11   -1    0    0    0    0  0.00000000000E+00  0.00000000000E+00  0.45593999997E+02  0.45594000000E+02  0.51100000000E-03 0. -1.
         11   -1    0    0    0    0 -0.00000000000E+00 -0.00000000000E+00 -0.45593999997E+02  0.45594000000E+02  0.51100000000E-03 0.  1.
    9900012    2    1    2    0    0  0.17142947393E+02  0.37881772669E+01 -0.65152347726E+01  0.72461569041E+02  0.69999998367E+02 0.  0.
        -12    1    1    2    0    0 -0.17142947393E+02 -0.37881772669E+01  0.65152347726E+01  0.18726430959E+02  0.00000000000E+00 0.  1.
         11    1    3    3    0    0  0.25981136495E+02  0.22768143258E+02  0.12200908516E+02  0.36637002741E+02  0.51100000000E-03 0. -1.
        -11    1    3    3    0    0 -0.12312315532E+01 -0.15332434705E+02 -0.21938706841E+02  0.26793774337E+02  0.51100000000E-03 0.  1.
        -12    1    3    3    0    0 -0.76069575484E+01 -0.36475312862E+01  0.32225635517E+01  0.90307919626E+01  0.00000000000E+00 0.  1.
</event>
<event>
 7    1  0.1826069E-013  0.7246155E+02  0.7816164E-02  0.1226708E+00
        -11   -1    0    0    0    0  0.00000000000E+00  0.00000000000E+00  0.45593999997E+02  0.45594000000E+02  0.51100000000E-03 0. -1.
         11   -1    0    0    0    0 -0.00000000000E+00 -0.00000000000E+00 -0.45593999997E+02  0.45594000000E+02  0.51100000000E-03 0.  1.
    9900012    2    1    2    0    0 -0.26314891671E+01 -0.80519841624E+01  0.16700916690E+02  0.72461553394E+02  0.69999977984E+02 0.  0.
        -12    1    1    2    0    0  0.26314891671E+01  0.80519841624E+01 -0.16700916690E+02  0.18726446606E+02  0.00000000000E+00 0.  1.
         11    1    3    3    0    0  0.70902624716E+01 -0.12058329583E+02  0.15310478396E+02  0.20738512079E+02  0.51100000000E-03 0. -1.
        -11    1    3    3    0    0 -0.14443386678E+02  0.20580377172E+02 -0.13860621447E+02  0.28710279874E+02  0.51100000000E-03 0.  1.
        -12    1    3    3    0    0  0.47216350396E+01 -0.16574031751E+02  0.15251059742E+02  0.23012761442E+02  0.00000000000E+00 0.  1.
</event>
<event>
 7    1  0.1826069E-013  0.7246180E+02  0.7816164E-02  0.1226707E+00
        -11   -1    0    0    0    0  0.00000000000E+00  0.00000000000E+00  0.45593999997E+02  0.45594000000E+02  0.51100000000E-03 0.  1.
         11   -1    0    0    0    0 -0.00000000000E+00 -0.00000000000E+00 -0.45593999997E+02  0.45594000000E+02  0.51100000000E-03 0. -1.
    9900012    2    1    2    0    0 -0.15969150368E+02  0.95561335586E+01  0.20825701800E+01  0.72461800422E+02  0.70000299783E+02 0.  0.
        -12    1    1    2    0    0  0.15969150368E+02 -0.95561335586E+01 -0.20825701800E+01  0.18726199578E+02  0.00000000000E+00 0.  1.
         11    1    3    3    0    0 -0.35939053503E+00  0.14160813590E+02  0.40466906655E+01  0.14732057178E+02  0.51100000000E-03 0. -1.
        -11    1    3    3    0    0  0.50235994756E+01 -0.16082434486E+02 -0.21337675227E+02  0.27187821447E+02  0.51100000000E-03 0.  1.
        -12    1    3    3    0    0 -0.20633359309E+02  0.11477754454E+02  0.19373554742E+02  0.30541921796E+02  0.00000000000E+00 0.  1.
</event>
<event>
 7    1  0.1826069E-013  0.7246158E+02  0.7816164E-02  0.1226708E+00
        -11   -1    0    0    0    0  0.00000000000E+00  0.00000000000E+00  0.45593999997E+02  0.45594000000E+02  0.51100000000E-03 0. -1.
         11   -1    0    0    0    0 -0.00000000000E+00 -0.00000000000E+00 -0.45593999997E+02  0.45594000000E+02  0.51100000000E-03 0.  1.
    9900012    2    1    2    0    0 -0.10004502951E+02 -0.25923408227E+01  0.15616292526E+02  0.72461577424E+02  0.70000009288E+02 0.  0.
        -12    1    1    2    0    0  0.10004502951E+02  0.25923408227E+01 -0.15616292526E+02  0.18726422576E+02  0.00000000000E+00 0.  1.
         11    1    3    3    0    0 -0.13620271008E+01  0.90802310905E+01  0.22506857082E+01  0.94536395583E+01  0.51100000000E-03 0. -1.
        -11    1    3    3    0    0 -0.22496087282E+02 -0.28335469689E+02 -0.23245469362E+01  0.36254328075E+02  0.51100000000E-03 0.  1.
        -12    1    3    3    0    0  0.13853611432E+02  0.16662897775E+02  0.15690153754E+02  0.26753609790E+02  0.00000000000E+00 0.  1.
</event>
<event>
 7    1  0.1826069E-013  0.7246159E+02  0.7816164E-02  0.1226708E+00
        -11   -1    0    0    0    0  0.00000000000E+00  0.00000000000E+00  0.45593999997E+02  0.45594000000E+02  0.51100000000E-03 0.  1.
         11   -1    0    0    0    0 -0.00000000000E+00 -0.00000000000E+00 -0.45593999997E+02  0.45594000000E+02  0.51100000000E-03 0. -1.
    9900012    2    1    2    0    0  0.11549306167E+02  0.63306480688E+01 -0.13312202559E+02  0.72461593114E+02  0.70000029727E+02 0.  0.
        -12    1    1    2    0    0 -0.11549306167E+02 -0.63306480688E+01  0.13312202559E+02  0.18726406886E+02  0.00000000000E+00 0.  1.
         11    1    3    3    0    0  0.15020613246E+02  0.71100147353E+01 -0.25162615180E+02  0.30155071460E+02  0.51100000000E-03 0. -1.
        -11    1    3    3    0    0 -0.68357654927E+01 -0.15917359617E+02  0.18579142801E+02  0.25402255304E+02  0.51100000000E-03 0.  1.
        -12    1    3    3    0    0  0.33644584134E+01  0.15137992950E+02 -0.67287301795E+01  0.16904266349E+02  0.00000000000E+00 0.  1.
</event>
<event>
 7    1  0.1826069E-013  0.7246161E+02  0.7816164E-02  0.1226708E+00
        -11   -1    0    0    0    0  0.00000000000E+00  0.00000000000E+00  0.45593999997E+02  0.45594000000E+02  0.51100000000E-03 0. -1.
         11   -1    0    0    0    0 -0.00000000000E+00 -0.00000000000E+00 -0.45593999997E+02  0.45594000000E+02  0.51100000000E-03 0.  1.
    9900012    2    1    2    0    0 -0.87414376748E+01  0.10699885115E+02  0.12640313389E+02  0.72461606950E+02  0.70000047751E+02 0.  0.
        -12    1    1    2    0    0  0.87414376748E+01 -0.10699885115E+02 -0.12640313389E+02  0.18726393050E+02  0.00000000000E+00 0.  1.
         11    1    3    3    0    0 -0.15060428161E+02  0.66825212498E+01  0.25092825017E+01  0.16666405898E+02  0.51100000000E-03 0. -1.
        -11    1    3    3    0    0 -0.38828748498E+01 -0.23221541205E+02  0.12419157450E+02  0.26618643186E+02  0.51100000000E-03 0.  1.
        -12    1    3    3    0    0  0.10201865336E+02  0.27238905070E+02 -0.22881265630E+01  0.29176557866E+02  0.00000000000E+00 0.  1.
</event>
<event>
 7    1  0.1826069E-013  0.7246146E+02  0.7816164E-02  0.1226708E+00
        -11   -1    0    0    0    0  0.00000000000E+00  0.00000000000E+00  0.45593999997E+02  0.45594000000E+02  0.51100000000E-03 0.  1.
         11   -1    0    0    0    0 -0.00000000000E+00 -0.00000000000E+00 -0.45593999997E+02  0.45594000000E+02  0.51100000000E-03 0. -1.
    9900012    2    1    2    0    0 -0.15759678361E+02 -0.29861122466E+01  0.96643214233E+01  0.72461456353E+02  0.69999851570E+02 0.  0.
        -12    1    1    2    0    0  0.15759678361E+02  0.29861122466E+01 -0.96643214233E+01  0.18726543647E+02  0.00000000000E+00 0.  1.
         11    1    3    3    0    0 -0.20987215434E+02  0.25909647217E+02  0.46802958677E+01  0.33670138108E+02  0.51100000000E-03 0. -1.
        -11    1    3    3    0    0  0.90533435350E+01 -0.18523033224E+02  0.13665095542E+02  0.24734603805E+02  0.51100000000E-03 0.  1.
         12    1    3    3    0    0 -0.38258064622E+01 -0.10372726240E+02 -0.86810699865E+01  0.14056714440E+02  0.00000000000E+00 0. -1.
</event>
<event>
 7    1  0.1826069E-013  0.7246158E+02  0.7816164E-02  0.1226708E+00
        -11   -1    0    0    0    0  0.00000000000E+00  0.00000000000E+00  0.45593999997E+02  0.45594000000E+02  0.51100000000E-03 0. -1.
         11   -1    0    0    0    0 -0.00000000000E+00 -0.00000000000E+00 -0.45593999997E+02  0.45594000000E+02  0.51100000000E-03 0.  1.
    9900012    2    1    2    0    0 -0.16248111018E+02 -0.76023855499E+01  0.53741406861E+01  0.72461581074E+02  0.70000014042E+02 0.  0.
        -12    1    1    2    0    0  0.16248111018E+02  0.76023855499E+01 -0.53741406861E+01  0.18726418926E+02  0.00000000000E+00 0.  1.
         11    1    3    3    0    0 -0.20970720696E+02 -0.21836009778E+02  0.26324510293E+02  0.40119350592E+02  0.51100000000E-03 0. -1.
        -11    1    3    3    0    0 -0.74338521036E+01  0.48182428624E+01 -0.10563809641E+02  0.13786649186E+02  0.51100000000E-03 0.  1.
         12    1    3    3    0    0  0.12156461782E+02  0.94153813655E+01 -0.10386559966E+02  0.18555581296E+02  0.00000000000E+00 0. -1.
</event>
<event>
 7    1  0.1826069E-013  0.7246156E+02  0.7816164E-02  0.1226708E+00
        -11   -1    0    0    0    0  0.00000000000E+00  0.00000000000E+00  0.45593999997E+02  0.45594000000E+02  0.51100000000E-03 0. -1.
         11   -1    0    0    0    0 -0.00000000000E+00 -0.00000000000E+00 -0.45593999997E+02  0.45594000000E+02  0.51100000000E-03 0.  1.
    9900012    2    1    2    0    0  0.39823261414E+01 -0.10001304679E+02  0.15323009042E+02  0.72461558190E+02  0.69999984232E+02 0.  0.
        -12    1    1    2    0    0 -0.39823261414E+01  0.10001304679E+02 -0.15323009042E+02  0.18726441810E+02  0.00000000000E+00 0.  1.
         11    1    3    3    0    0 -0.40612552505E+01 -0.46609526631E+00 -0.17108270623E+01  0.44314747552E+01  0.51100000000E-03 0. -1.
        -11    1    3    3    0    0  0.10301289402E+02 -0.29651886239E+02  0.30459707852E+02  0.43739509868E+02  0.51100000000E-03 0.  1.
        -12    1    3    3    0    0 -0.22577080100E+01  0.20116676826E+02 -0.13425871748E+02  0.24290573566E+02  0.00000000000E+00 0.  1.
</event>
<event>
 7    1  0.1826069E-013  0.7246153E+02  0.7816164E-02  0.1226708E+00
        -11   -1    0    0    0    0  0.00000000000E+00  0.00000000000E+00  0.45593999997E+02  0.45594000000E+02  0.51100000000E-03 0. -1.
         11   -1    0    0    0    0 -0.00000000000E+00 -0.00000000000E+00 -0.45593999997E+02  0.45594000000E+02  0.51100000000E-03 0.  1.
    9900012    2    1    2    0    0 -0.16189103399E+02 -0.48692711111E+01  0.80550566110E+01  0.72461526573E+02  0.69999943044E+02 0.  0.
        -12    1    1    2    0    0  0.16189103399E+02  0.48692711111E+01 -0.80550566110E+01  0.18726473427E+02  0.00000000000E+00 0.  1.
         11    1    3    3    0    0  0.57271044235E+01  0.10644556910E+01  0.12933071316E+02  0.14184397235E+02  0.51100000000E-03 0. -1.
        -11    1    3    3    0    0 -0.20385411928E+02  0.27149512547E+01 -0.27309790323E+02  0.34187141260E+02  0.51100000000E-03 0.  1.
        -12    1    3    3    0    0 -0.15307958948E+01 -0.86486780568E+01  0.22431775618E+02  0.24089988077E+02  0.00000000000E+00 0.  1.
</event>
<event>
 7    1  0.1826069E-013  0.7246158E+02  0.7816164E-02  0.1226708E+00
        -11   -1    0    0    0    0  0.00000000000E+00  0.00000000000E+00  0.45593999997E+02  0.45594000000E+02  0.51100000000E-03 0.  1.
         11   -1    0    0    0    0 -0.00000000000E+00 -0.00000000000E+00 -0.45593999997E+02  0.45594000000E+02  0.51100000000E-03 0. -1.
    9900012    2    1    2    0    0  0.15678344459E+01  0.99868346110E-01 -0.18660403503E+02  0.72461581832E+02  0.70000015029E+02 0.  0.
        -12    1    1    2    0    0 -0.15678344459E+01 -0.99868346110E-01  0.18660403503E+02  0.18726418168E+02  0.00000000000E+00 0.  1.
         11    1    3    3    0    0  0.21299882471E+02  0.48016613447E+01 -0.19126055461E+02  0.29026659172E+02  0.51100000000E-03 0. -1.
        -11    1    3    3    0    0 -0.14793110710E+02 -0.91699059485E+01  0.17781857049E+02  0.24882076681E+02  0.51100000000E-03 0.  1.
         12    1    3    3    0    0 -0.49389373145E+01  0.44681129500E+01 -0.17316205091E+02  0.18552845978E+02  0.00000000000E+00 0. -1.
</event>
<event>
 7    1  0.1826069E-013  0.7246164E+02  0.7816164E-02  0.1226708E+00
        -11   -1    0    0    0    0  0.00000000000E+00  0.00000000000E+00  0.45593999997E+02  0.45594000000E+02  0.51100000000E-03 0.  1.
         11   -1    0    0    0    0 -0.00000000000E+00 -0.00000000000E+00 -0.45593999997E+02  0.45594000000E+02  0.51100000000E-03 0. -1.
    9900012    2    1    2    0    0  0.89961077242E+01  0.10869687535E+02 -0.12312450135E+02  0.72461641848E+02  0.70000093212E+02 0.  0.
        -12    1    1    2    0    0 -0.89961077242E+01 -0.10869687535E+02  0.12312450135E+02  0.18726358152E+02  0.00000000000E+00 0.  1.
         11    1    3    3    0    0 -0.17655857639E+02  0.63990703124E+01  0.15854434189E+02  0.24577235271E+02  0.51100000000E-03 0.  1.
        -11    1    3    3    0    0  0.28159998406E+02  0.12254235357E+02 -0.23631526841E+02  0.38750494907E+02  0.51100000000E-03 0. -1.
         12    1    3    3    0    0 -0.15080330434E+01 -0.77836181336E+01 -0.45353574834E+01  0.91339116709E+01  0.00000000000E+00 0. -1.
</event>
<event>
 7    1  0.1826069E-013  0.7246159E+02  0.7816164E-02  0.1226708E+00
        -11   -1    0    0    0    0  0.00000000000E+00  0.00000000000E+00  0.45593999997E+02  0.45594000000E+02  0.51100000000E-03 0.  1.
         11   -1    0    0    0    0 -0.00000000000E+00 -0.00000000000E+00 -0.45593999997E+02  0.45594000000E+02  0.51100000000E-03 0. -1.
    9900012    2    1    2    0    0 -0.15205099531E+02 -0.95254002861E+01 -0.53619084983E+01  0.72461591773E+02  0.70000027980E+02 0.  0.
        -12    1    1    2    0    0  0.15205099531E+02  0.95254002861E+01  0.53619084983E+01  0.18726408227E+02  0.00000000000E+00 0.  1.
         11    1    3    3    0    0 -0.50079960223E+01 -0.41222594443E+01 -0.12025544317E+02  0.13663336469E+02  0.51100000000E-03 0. -1.
        -11    1    3    3    0    0 -0.18148812200E+02  0.24542703874E+01  0.28724835425E+02  0.34066391031E+02  0.51100000000E-03 0.  1.
        -12    1    3    3    0    0  0.79517086917E+01 -0.78574112291E+01 -0.22061199606E+02  0.24731864273E+02  0.00000000000E+00 0.  1.
</event>
<event>
 7    1  0.1826069E-013  0.7246155E+02  0.7816164E-02  0.1226708E+00
        -11   -1    0    0    0    0  0.00000000000E+00  0.00000000000E+00  0.45593999997E+02  0.45594000000E+02  0.51100000000E-03 0.  1.
         11   -1    0    0    0    0 -0.00000000000E+00 -0.00000000000E+00 -0.45593999997E+02  0.45594000000E+02  0.51100000000E-03 0. -1.
    9900012    2    1    2    0    0  0.92668313412E+01  0.14962501086E+02 -0.63976072926E+01  0.72461548630E+02  0.69999971778E+02 0.  0.
        -12    1    1    2    0    0 -0.92668313412E+01 -0.14962501086E+02  0.63976072926E+01  0.18726451370E+02  0.00000000000E+00 0.  1.
         11    1    3    3    0    0  0.19950190825E+02  0.14698755263E+02  0.23129765701E+02  0.33897633869E+02  0.51100000000E-03 0.  1.
        -11    1    3    3    0    0 -0.85267739540E+01  0.29380739670E+01 -0.32679669473E+02  0.33901311919E+02  0.51100000000E-03 0. -1.
         12    1    3    3    0    0 -0.21565855300E+01 -0.26743281435E+01  0.31522964795E+01  0.46626028420E+01  0.00000000000E+00 0. -1.
</event>
<event>
 7    1  0.1826069E-013  0.7246158E+02  0.7816164E-02  0.1226708E+00
        -11   -1    0    0    0    0  0.00000000000E+00  0.00000000000E+00  0.45593999997E+02  0.45594000000E+02  0.51100000000E-03 0. -1.
         11   -1    0    0    0    0 -0.00000000000E+00 -0.00000000000E+00 -0.45593999997E+02  0.45594000000E+02  0.51100000000E-03 0.  1.
    9900012    2    1    2    0    0 -0.36770803397E+01  0.10089662313E+02  0.15341331070E+02  0.72461584315E+02  0.70000018265E+02 0.  0.
        -12    1    1    2    0    0  0.36770803397E+01 -0.10089662313E+02 -0.15341331070E+02  0.18726415685E+02  0.00000000000E+00 0.  1.
         11    1    3    3    0    0 -0.50791280793E+00 -0.21565555369E+02 -0.45971640772E+01  0.22055953201E+02  0.51100000000E-03 0.  1.
        -11    1    3    3    0    0 -0.88227012038E+01  0.33806389311E+02  0.24632566937E+02  0.42748980911E+02  0.51100000000E-03 0. -1.
        -12    1    3    3    0    0  0.56535336721E+01 -0.21511716292E+01 -0.46940717903E+01  0.76566502030E+01  0.00000000000E+00 0.  1.
</event>
<event>
 7    1  0.1826069E-013  0.7246159E+02  0.7816164E-02  0.1226708E+00
        -11   -1    0    0    0    0  0.00000000000E+00  0.00000000000E+00  0.45593999997E+02  0.45594000000E+02  0.51100000000E-03 0. -1.
         11   -1    0    0    0    0 -0.00000000000E+00 -0.00000000000E+00 -0.45593999997E+02  0.45594000000E+02  0.51100000000E-03 0.  1.
    9900012    2    1    2    0    0  0.23948039923E+01  0.13921741171E+02  0.12293435550E+02  0.72461587610E+02  0.70000022556E+02 0.  0.
        -12    1    1    2    0    0 -0.23948039923E+01 -0.13921741171E+02 -0.12293435550E+02  0.18726412390E+02  0.00000000000E+00 0.  1.
         11    1    3    3    0    0  0.41246344923E+01  0.15514539461E+02  0.12694578960E+01  0.16103573144E+02  0.51100000000E-03 0. -1.
        -11    1    3    3    0    0 -0.92050547532E+01 -0.26111072837E+02  0.13124861284E+02  0.30639568237E+02  0.51100000000E-03 0.  1.
        -12    1    3    3    0    0  0.74752242533E+01  0.24518274547E+02 -0.21008836303E+01  0.25718446229E+02  0.00000000000E+00 0.  1.
</event>
<event>
 7    1  0.1826069E-013  0.7246158E+02  0.7816164E-02  0.1226708E+00
        -11   -1    0    0    0    0  0.00000000000E+00  0.00000000000E+00  0.45593999997E+02  0.45594000000E+02  0.51100000000E-03 0. -1.
         11   -1    0    0    0    0 -0.00000000000E+00 -0.00000000000E+00 -0.45593999997E+02  0.45594000000E+02  0.51100000000E-03 0.  1.
    9900012    2    1    2    0    0  0.11582915118E+02  0.40029167735E+01  0.14159503627E+02  0.72461579939E+02  0.70000012564E+02 0.  0.
        -12    1    1    2    0    0 -0.11582915118E+02 -0.40029167735E+01 -0.14159503627E+02  0.18726420061E+02  0.00000000000E+00 0.  1.
         11    1    3    3    0    0  0.29587806008E+02 -0.92891687247E+01  0.16311057700E+01  0.31054587846E+02  0.51100000000E-03 0. -1.
        -11    1    3    3    0    0 -0.13674745039E+02  0.13961986290E+02  0.22925109970E+02  0.30124680587E+02  0.51100000000E-03 0.  1.
        -12    1    3    3    0    0 -0.43301458518E+01 -0.66990079184E+00 -0.10396712113E+02  0.11282311507E+02  0.00000000000E+00 0.  1.
</event>
<event>
 7    1  0.1826069E-013  0.7246144E+02  0.7816164E-02  0.1226708E+00
        -11   -1    0    0    0    0  0.00000000000E+00  0.00000000000E+00  0.45593999997E+02  0.45594000000E+02  0.51100000000E-03 0.  1.
         11   -1    0    0    0    0 -0.00000000000E+00 -0.00000000000E+00 -0.45593999997E+02  0.45594000000E+02  0.51100000000E-03 0. -1.
    9900012    2    1    2    0    0 -0.75581819223E+01  0.14506619212E+02  0.91167854897E+01  0.72461444188E+02  0.69999835722E+02 0.  0.
        -12    1    1    2    0    0  0.75581819223E+01 -0.14506619212E+02 -0.91167854897E+01  0.18726555812E+02  0.00000000000E+00 0.  1.
         11    1    3    3    0    0 -0.20493377993E+02  0.59884952874E+01 -0.24046016007E+02  0.32156671212E+02  0.51100000000E-03 0. -1.
        -11    1    3    3    0    0  0.13883843798E+02 -0.49587973059E-01  0.23984969791E+02  0.27713577064E+02  0.51100000000E-03 0.  1.
        -12    1    3    3    0    0 -0.94864772680E+00  0.85677118975E+01  0.91778317057E+01  0.12591195912E+02  0.00000000000E+00 0.  1.
</event>
<event>
 7    1  0.1826069E-013  0.7246159E+02  0.7816164E-02  0.1226708E+00
        -11   -1    0    0    0    0  0.00000000000E+00  0.00000000000E+00  0.45593999997E+02  0.45594000000E+02  0.51100000000E-03 0. -1.
         11   -1    0    0    0    0 -0.00000000000E+00 -0.00000000000E+00 -0.45593999997E+02  0.45594000000E+02  0.51100000000E-03 0.  1.
    9900012    2    1    2    0    0 -0.10151436389E+02 -0.14836344365E+02  0.52449659226E+01  0.72461589708E+02  0.70000025290E+02 0.  0.
        -12    1    1    2    0    0  0.10151436389E+02  0.14836344365E+02 -0.52449659226E+01  0.18726410292E+02  0.00000000000E+00 0.  1.
         11    1    3    3    0    0 -0.30121062746E+02 -0.21529038379E+02  0.88413134310E+01  0.38065033009E+02  0.51100000000E-03 0. -1.
        -11    1    3    3    0    0  0.62326631809E+01  0.15991810381E+02  0.97067039670E+00  0.17190878130E+02  0.51100000000E-03 0.  1.
         12    1    3    3    0    0  0.13736963176E+02 -0.92991163671E+01 -0.45670179051E+01  0.17205678570E+02  0.00000000000E+00 0. -1.
</event>
<event>
 7    1  0.1826069E-013  0.7246137E+02  0.7816164E-02  0.1226709E+00
        -11   -1    0    0    0    0  0.00000000000E+00  0.00000000000E+00  0.45593999997E+02  0.45594000000E+02  0.51100000000E-03 0. -1.
         11   -1    0    0    0    0 -0.00000000000E+00 -0.00000000000E+00 -0.45593999997E+02  0.45594000000E+02  0.51100000000E-03 0.  1.
    9900012    2    1    2    0    0 -0.15143812865E+02  0.10342184792E+02  0.37935151623E+01  0.72461371589E+02  0.69999741148E+02 0.  0.
        -12    1    1    2    0    0  0.15143812865E+02 -0.10342184792E+02 -0.37935151623E+01  0.18726628411E+02  0.00000000000E+00 0.  1.
         11    1    3    3    0    0 -0.79404312785E+01  0.31334512084E+02 -0.99961482054E+01  0.33835263789E+02  0.51100000000E-03 0. -1.
        -11    1    3    3    0    0 -0.71946343433E+00 -0.26594692276E+02  0.65269661354E+01  0.27393367301E+02  0.51100000000E-03 0.  1.
        -12    1    3    3    0    0 -0.64839181525E+01  0.56023649840E+01  0.72626972323E+01  0.11232740499E+02  0.00000000000E+00 0.  1.
</event>
<event>
 7    1  0.1826069E-013  0.7246158E+02  0.7816164E-02  0.1226708E+00
        -11   -1    0    0    0    0  0.00000000000E+00  0.00000000000E+00  0.45593999997E+02  0.45594000000E+02  0.51100000000E-03 0. -1.
         11   -1    0    0    0    0 -0.00000000000E+00 -0.00000000000E+00 -0.45593999997E+02  0.45594000000E+02  0.51100000000E-03 0.  1.
    9900012    2    1    2    0    0 -0.14283615368E+02  0.19676463188E+00  0.12108610982E+02  0.72461578980E+02  0.70000011315E+02 0.  0.
        -12    1    1    2    0    0  0.14283615368E+02 -0.19676463188E+00 -0.12108610982E+02  0.18726421020E+02  0.00000000000E+00 0.  1.
         11    1    3    3    0    0 -0.14746004919E+02 -0.56030289494E+01 -0.11493399159E+02  0.19517602798E+02  0.51100000000E-03 0. -1.
        -11    1    3    3    0    0  0.83254424902E+01 -0.15550733198E+02  0.24481933156E+02  0.30174548000E+02  0.51100000000E-03 0.  1.
        -12    1    3    3    0    0 -0.78630529393E+01  0.21350526779E+02 -0.87992301528E+00  0.22769428183E+02  0.00000000000E+00 0.  1.
</event>
<event>
 7    1  0.1826069E-013  0.7246154E+02  0.7816164E-02  0.1226708E+00
        -11   -1    0    0    0    0  0.00000000000E+00  0.00000000000E+00  0.45593999997E+02  0.45594000000E+02  0.51100000000E-03 0.  1.
         11   -1    0    0    0    0 -0.00000000000E+00 -0.00000000000E+00 -0.45593999997E+02  0.45594000000E+02  0.51100000000E-03 0. -1.
    9900012    2    1    2    0    0 -0.18488464305E+02 -0.29696540120E+01  0.19518780076E+00  0.72461541296E+02  0.69999962225E+02 0.  0.
        -12    1    1    2    0    0  0.18488464305E+02  0.29696540120E+01 -0.19518780076E+00  0.18726458704E+02  0.00000000000E+00 0.  1.
         11    1    3    3    0    0  0.49889193462E+01  0.22930667082E+02  0.39362111827E+01  0.23794927354E+02  0.51100000000E-03 0.  1.
        -11    1    3    3    0    0 -0.65612694660E+01 -0.27818234127E+02 -0.10359243048E+02  0.30400959257E+02  0.51100000000E-03 0. -1.
         12    1    3    3    0    0 -0.16916114185E+02  0.19179130330E+01  0.66182196661E+01  0.18265654685E+02  0.00000000000E+00 0. -1.
</event>
<event>
 7    1  0.1826069E-013  0.7246159E+02  0.7816164E-02  0.1226708E+00
        -11   -1    0    0    0    0  0.00000000000E+00  0.00000000000E+00  0.45593999997E+02  0.45594000000E+02  0.51100000000E-03 0.  1.
         11   -1    0    0    0    0 -0.00000000000E+00 -0.00000000000E+00 -0.45593999997E+02  0.45594000000E+02  0.51100000000E-03 0. -1.
    9900012    2    1    2    0    0 -0.43438112746E+01  0.18052593643E+02 -0.24318264436E+01  0.72461585140E+02  0.70000019340E+02 0.  0.
        -12    1    1    2    0    0  0.43438112746E+01 -0.18052593643E+02  0.24318264436E+01  0.18726414860E+02  0.00000000000E+00 0.  1.
         11    1    3    3    0    0  0.23615836682E+02 -0.26611470513E+01  0.59985498016E+01  0.24510651681E+02  0.51100000000E-03 0. -1.
        -11    1    3    3    0    0 -0.27833985380E+02  0.14939332813E+01 -0.33797612693E+01  0.28078200892E+02  0.51100000000E-03 0.  1.
        -12    1    3    3    0    0 -0.12566257651E+00  0.19219807413E+02 -0.50506149759E+01  0.19872732568E+02  0.00000000000E+00 0.  1.
</event>
<event>
 7    1  0.1826069E-013  0.7246171E+02  0.7816164E-02  0.1226708E+00
        -11   -1    0    0    0    0  0.00000000000E+00  0.00000000000E+00  0.45593999997E+02  0.45594000000E+02  0.51100000000E-03 0. -1.
         11   -1    0    0    0    0 -0.00000000000E+00 -0.00000000000E+00 -0.45593999997E+02  0.45594000000E+02  0.51100000000E-03 0.  1.
    9900012    2    1    2    0    0 -0.80088564424E+01 -0.16149066359E+02  0.50734536647E+01  0.72461706777E+02  0.70000177794E+02 0.  0.
        -12    1    1    2    0    0  0.80088564424E+01  0.16149066359E+02 -0.50734536647E+01  0.18726293223E+02  0.00000000000E+00 0.  1.
         11    1    3    3    0    0 -0.38216170086E+02 -0.11702205087E+02 -0.29958360063E+01  0.40079824022E+02  0.51100000000E-03 0. -1.
        -11    1    3    3    0    0  0.23031490265E+02 -0.23080940447E+00  0.56711818001E+01  0.23720563233E+02  0.51100000000E-03 0.  1.
         12    1    3    3    0    0  0.71758233784E+01 -0.42160518673E+01  0.23981078709E+01  0.86613195223E+01  0.00000000000E+00 0. -1.
</event>
<event>
 7    1  0.1826069E-013  0.7246173E+02  0.7816164E-02  0.1226708E+00
        -11   -1    0    0    0    0  0.00000000000E+00  0.00000000000E+00  0.45593999997E+02  0.45594000000E+02  0.51100000000E-03 0.  1.
         11   -1    0    0    0    0 -0.00000000000E+00 -0.00000000000E+00 -0.45593999997E+02  0.45594000000E+02  0.51100000000E-03 0. -1.
    9900012    2    1    2    0    0 -0.86790257696E+01  0.14411174969E+02 -0.82259274429E+01  0.72461726089E+02  0.70000202951E+02 0.  0.
        -12    1    1    2    0    0  0.86790257696E+01 -0.14411174969E+02  0.82259274429E+01  0.18726273911E+02  0.00000000000E+00 0.  1.
         11    1    3    3    0    0  0.15259395358E+02  0.13175366069E+02 -0.26313023957E+02  0.33148373229E+02  0.51100000000E-03 0. -1.
        -11    1    3    3    0    0 -0.11030407704E+02  0.25543704087E+00  0.22966333117E+02  0.25479160098E+02  0.51100000000E-03 0.  1.
         12    1    3    3    0    0 -0.12908013423E+02  0.98037185974E+00 -0.48792366033E+01  0.13834192761E+02  0.00000000000E+00 0. -1.
</event>
<event>
 7    1  0.1826069E-013  0.7246159E+02  0.7816164E-02  0.1226708E+00
        -11   -1    0    0    0    0  0.00000000000E+00  0.00000000000E+00  0.45593999997E+02  0.45594000000E+02  0.51100000000E-03 0.  1.
         11   -1    0    0    0    0 -0.00000000000E+00 -0.00000000000E+00 -0.45593999997E+02  0.45594000000E+02  0.51100000000E-03 0. -1.
    9900012    2    1    2    0    0  0.17984384273E+01 -0.21739410180E+01 -0.18512645422E+02  0.72461589750E+02  0.70000025344E+02 0.  0.
        -12    1    1    2    0    0 -0.17984384273E+01  0.21739410180E+01  0.18512645422E+02  0.18726410250E+02  0.00000000000E+00 0.  1.
         11    1    3    3    0    0  0.13730635899E+02 -0.18373835235E+02 -0.22977249569E+01  0.23052282396E+02  0.51100000000E-03 0.  1.
        -11    1    3    3    0    0 -0.24371140681E+02  0.16457761111E+02 -0.56057756263E+00  0.29413001315E+02  0.51100000000E-03 0. -1.
         12    1    3    3    0    0  0.12438943209E+02 -0.25786689402E+00 -0.15654342903E+02  0.19996306039E+02  0.00000000000E+00 0. -1.
</event>
<event>
 7    1  0.1826069E-013  0.7246157E+02  0.7816164E-02  0.1226708E+00
        -11   -1    0    0    0    0  0.00000000000E+00  0.00000000000E+00  0.45593999997E+02  0.45594000000E+02  0.51100000000E-03 0.  1.
         11   -1    0    0    0    0 -0.00000000000E+00 -0.00000000000E+00 -0.45593999997E+02  0.45594000000E+02  0.51100000000E-03 0. -1.
    9900012    2    1    2    0    0  0.12152827901E+02  0.11650379976E+02  0.82010174587E+01  0.72461567693E+02  0.69999996611E+02 0.  0.
        -12    1    1    2    0    0 -0.12152827901E+02 -0.11650379976E+02 -0.82010174587E+01  0.18726432307E+02  0.00000000000E+00 0.  1.
         11    1    3    3    0    0 -0.11277942828E+02 -0.15641619142E+02  0.15375844897E+01  0.19344673948E+02  0.51100000000E-03 0. -1.
        -11    1    3    3    0    0  0.10924864996E+02  0.31347626930E+02  0.16138012947E+02  0.36911540898E+02  0.51100000000E-03 0.  1.
        -12    1    3    3    0    0  0.12505905733E+02 -0.40556278113E+01 -0.94745799779E+01  0.16205352848E+02  0.00000000000E+00 0.  1.
</event>
<event>
 7    1  0.1826069E-013  0.7246123E+02  0.7816164E-02  0.1226709E+00
        -11   -1    0    0    0    0  0.00000000000E+00  0.00000000000E+00  0.45593999997E+02  0.45594000000E+02  0.51100000000E-03 0. -1.
         11   -1    0    0    0    0 -0.00000000000E+00 -0.00000000000E+00 -0.45593999997E+02  0.45594000000E+02  0.51100000000E-03 0.  1.
    9900012    2    1    2    0    0  0.46445745382E+01  0.89157937689E+01  0.15799633842E+02  0.72461230906E+02  0.69999557882E+02 0.  0.
        -12    1    1    2    0    0 -0.46445745382E+01 -0.89157937689E+01 -0.15799633842E+02  0.18726769094E+02  0.00000000000E+00 0.  1.
         11    1    3    3    0    0 -0.16888517354E+02  0.52996718314E+01 -0.30403154036E+00  0.17703134620E+02  0.51100000000E-03 0. -1.
        -11    1    3    3    0    0  0.32900946519E+02  0.89295838534E+01  0.22326532289E+02  0.40751488242E+02  0.51100000000E-03 0.  1.
        -12    1    3    3    0    0 -0.11367854627E+02 -0.53134619160E+01 -0.62228669071E+01  0.14006608044E+02  0.00000000000E+00 0.  1.
</event>
<event>
 7    1  0.1826069E-013  0.7246158E+02  0.7816164E-02  0.1226708E+00
        -11   -1    0    0    0    0  0.00000000000E+00  0.00000000000E+00  0.45593999997E+02  0.45594000000E+02  0.51100000000E-03 0.  1.
         11   -1    0    0    0    0 -0.00000000000E+00 -0.00000000000E+00 -0.45593999997E+02  0.45594000000E+02  0.51100000000E-03 0. -1.
    9900012    2    1    2    0    0  0.66831392012E+01  0.75008290593E+01 -0.15803545692E+02  0.72461579024E+02  0.70000011372E+02 0.  0.
        -12    1    1    2    0    0 -0.66831392012E+01 -0.75008290593E+01  0.15803545692E+02  0.18726420976E+02  0.00000000000E+00 0.  1.
         11    1    3    3    0    0  0.21425397234E+02  0.17088959861E+02 -0.98140580379E+01  0.29110065805E+02  0.51100000000E-03 0.  1.
        -11    1    3    3    0    0 -0.19605095330E+02 -0.21619880685E+02 -0.31275835386E+00  0.29186928954E+02  0.51100000000E-03 0. -1.
         12    1    3    3    0    0  0.48628372972E+01  0.12031749883E+02 -0.56767292998E+01  0.14164584264E+02  0.00000000000E+00 0. -1.
</event>
<event>
 7    1  0.1826069E-013  0.7246154E+02  0.7816164E-02  0.1226708E+00
        -11   -1    0    0    0    0  0.00000000000E+00  0.00000000000E+00  0.45593999997E+02  0.45594000000E+02  0.51100000000E-03 0.  1.
         11   -1    0    0    0    0 -0.00000000000E+00 -0.00000000000E+00 -0.45593999997E+02  0.45594000000E+02  0.51100000000E-03 0. -1.
    9900012    2    1    2    0    0 -0.79059648318E+01 -0.21143865351E+01 -0.16843553309E+02  0.72461542823E+02  0.69999964213E+02 0.  0.
        -12    1    1    2    0    0  0.79059648318E+01  0.21143865351E+01  0.16843553309E+02  0.18726457177E+02  0.00000000000E+00 0.  1.
         11    1    3    3    0    0 -0.90047313322E+01 -0.33853382597E+02  0.19392023488E+01  0.35084144647E+02  0.51100000000E-03 0. -1.
        -11    1    3    3    0    0 -0.60498234851E+00  0.15459712407E+02 -0.59414987687E+01  0.16573174688E+02  0.51100000000E-03 0.  1.
         12    1    3    3    0    0  0.17037488489E+01  0.16279283654E+02 -0.12841256889E+02  0.20804223488E+02  0.00000000000E+00 0. -1.
</event>
<event>
 7    1  0.1826069E-013  0.7246157E+02  0.7816164E-02  0.1226708E+00
        -11   -1    0    0    0    0  0.00000000000E+00  0.00000000000E+00  0.45593999997E+02  0.45594000000E+02  0.51100000000E-03 0. -1.
         11   -1    0    0    0    0 -0.00000000000E+00 -0.00000000000E+00 -0.45593999997E+02  0.45594000000E+02  0.51100000000E-03 0.  1.
    9900012    2    1    2    0    0  0.90107664147E+01  0.16415914816E+02 -0.54413835272E-01  0.72461571310E+02  0.70000001323E+02 0.  0.
        -12    1    1    2    0    0 -0.90107664147E+01 -0.16415914816E+02  0.54413835272E-01  0.18726428690E+02  0.00000000000E+00 0.  1.
         11    1    3    3    0    0 -0.15556723066E+02  0.75502313234E+01  0.20387684823E+02  0.26733412021E+02  0.51100000000E-03 0. -1.
        -11    1    3    3    0    0 -0.14953165503E+01  0.19327530673E+01 -0.18530943311E+02  0.18691371438E+02  0.51100000000E-03 0.  1.
         12    1    3    3    0    0  0.26062806031E+02  0.69329304254E+01 -0.19111553478E+01  0.27036787850E+02  0.00000000000E+00 0. -1.
</event>
<event>
 7    1  0.1826069E-013  0.7246156E+02  0.7816164E-02  0.1226708E+00
        -11   -1    0    0    0    0  0.00000000000E+00  0.00000000000E+00  0.45593999997E+02  0.45594000000E+02  0.51100000000E-03 0.  1.
         11   -1    0    0    0    0 -0.00000000000E+00 -0.00000000000E+00 -0.45593999997E+02  0.45594000000E+02  0.51100000000E-03 0. -1.
    9900012    2    1    2    0    0 -0.44865302075E+00  0.17906703583E+02 -0.54615214507E+01  0.72461560421E+02  0.69999987138E+02 0.  0.
        -12    1    1    2    0    0  0.44865302075E+00 -0.17906703583E+02  0.54615214507E+01  0.18726439579E+02  0.00000000000E+00 0.  1.
         11    1    3    3    0    0 -0.16577678231E+02  0.19963146089E+02 -0.17026940166E+02  0.31036483515E+02  0.51100000000E-03 0. -1.
        -11    1    3    3    0    0  0.31934554955E+01 -0.18286556235E+02  0.86044309789E+01  0.20460511471E+02  0.51100000000E-03 0.  1.
        -12    1    3    3    0    0  0.12935569714E+02  0.16230113729E+02  0.29609877363E+01  0.20964565435E+02  0.00000000000E+00 0.  1.
</event>
<event>
 7    1  0.1826069E-013  0.7246148E+02  0.7816164E-02  0.1226708E+00
        -11   -1    0    0    0    0  0.00000000000E+00  0.00000000000E+00  0.45593999997E+02  0.45594000000E+02  0.51100000000E-03 0. -1.
         11   -1    0    0    0    0 -0.00000000000E+00 -0.00000000000E+00 -0.45593999997E+02  0.45594000000E+02  0.51100000000E-03 0.  1.
    9900012    2    1    2    0    0  0.14212548104E+02 -0.11333247381E+02  0.44992789452E+01  0.72461480546E+02  0.69999883087E+02 0.  0.
        -12    1    1    2    0    0 -0.14212548104E+02  0.11333247381E+02 -0.44992789452E+01  0.18726519454E+02  0.00000000000E+00 0.  1.
         11    1    3    3    0    0 -0.24353575368E+02 -0.42751095574E+01 -0.40883214496E+01  0.25061675273E+02  0.51100000000E-03 0. -1.
        -11    1    3    3    0    0  0.15482275157E+02  0.34066241755E+01 -0.73358361746E+01  0.17467696612E+02  0.51100000000E-03 0.  1.
         12    1    3    3    0    0  0.23083848315E+02 -0.10464761999E+02  0.15923436569E+02  0.29932108662E+02  0.00000000000E+00 0. -1.
</event>
<event>
 7    1  0.1826069E-013  0.7246163E+02  0.7816164E-02  0.1226708E+00
        -11   -1    0    0    0    0  0.00000000000E+00  0.00000000000E+00  0.45593999997E+02  0.45594000000E+02  0.51100000000E-03 0.  1.
         11   -1    0    0    0    0 -0.00000000000E+00 -0.00000000000E+00 -0.45593999997E+02  0.45594000000E+02  0.51100000000E-03 0. -1.
    9900012    2    1    2    0    0 -0.10240302863E+01 -0.10324378737E+02 -0.15589597067E+02  0.72461628994E+02  0.70000076467E+02 0.  0.
        -12    1    1    2    0    0  0.10240302863E+01  0.10324378737E+02  0.15589597067E+02  0.18726371006E+02  0.00000000000E+00 0.  1.
         11    1    3    3    0    0  0.11771189124E+02 -0.17683241278E+02 -0.27926659135E+02  0.35087835587E+02  0.51100000000E-03 0. -1.
        -11    1    3    3    0    0 -0.14409310373E+02  0.78533451866E+01  0.22066100379E+02  0.27499382579E+02  0.51100000000E-03 0.  1.
        -12    1    3    3    0    0  0.16140909628E+01 -0.49448264634E+00 -0.97290383119E+01  0.98744108279E+01  0.00000000000E+00 0.  1.
</event>
<event>
 7    1  0.1826069E-013  0.7246156E+02  0.7816164E-02  0.1226708E+00
        -11   -1    0    0    0    0  0.00000000000E+00  0.00000000000E+00  0.45593999997E+02  0.45594000000E+02  0.51100000000E-03 0. -1.
         11   -1    0    0    0    0 -0.00000000000E+00 -0.00000000000E+00 -0.45593999997E+02  0.45594000000E+02  0.51100000000E-03 0.  1.
    9900012    2    1    2    0    0 -0.13115833917E+02  0.12555630556E+02 -0.45837123216E+01  0.72461564764E+02  0.69999992795E+02 0.  0.
        -12    1    1    2    0    0  0.13115833917E+02 -0.12555630556E+02  0.45837123216E+01  0.18726435236E+02  0.00000000000E+00 0.  1.
         11    1    3    3    0    0 -0.62448920600E+00 -0.14658827731E+02  0.24135882093E+02  0.28245566411E+02  0.51100000000E-03 0. -1.
        -11    1    3    3    0    0 -0.22552052265E+01  0.83337717275E+01 -0.18533928635E+02  0.20446129530E+02  0.51100000000E-03 0.  1.
         12    1    3    3    0    0 -0.10236139485E+02  0.18880686560E+02 -0.10185665779E+02  0.23769868823E+02  0.00000000000E+00 0. -1.
</event>
<event>
 7    1  0.1826069E-013  0.7246149E+02  0.7816164E-02  0.1226708E+00
        -11   -1    0    0    0    0  0.00000000000E+00  0.00000000000E+00  0.45593999997E+02  0.45594000000E+02  0.51100000000E-03 0. -1.
         11   -1    0    0    0    0 -0.00000000000E+00 -0.00000000000E+00 -0.45593999997E+02  0.45594000000E+02  0.51100000000E-03 0.  1.
    9900012    2    1    2    0    0  0.77502190990E+01 -0.11338553266E+02  0.12730024240E+02  0.72461489289E+02  0.69999894476E+02 0.  0.
        -12    1    1    2    0    0 -0.77502190990E+01  0.11338553266E+02 -0.12730024240E+02  0.18726510711E+02  0.00000000000E+00 0.  1.
         11    1    3    3    0    0 -0.17684879447E+02 -0.14785042380E+02 -0.58099803265E+01  0.23772006875E+02  0.51100000000E-03 0. -1.
        -11    1    3    3    0    0  0.33929018688E+02  0.87028846556E+01  0.14734565451E+02  0.38000341179E+02  0.51100000000E-03 0.  1.
         12    1    3    3    0    0 -0.84939201421E+01 -0.52563955413E+01  0.38054391159E+01  0.10689141234E+02  0.00000000000E+00 0. -1.
</event>
<event>
 7    1  0.1826069E-013  0.7246160E+02  0.7816164E-02  0.1226708E+00
        -11   -1    0    0    0    0  0.00000000000E+00  0.00000000000E+00  0.45593999997E+02  0.45594000000E+02  0.51100000000E-03 0. -1.
         11   -1    0    0    0    0 -0.00000000000E+00 -0.00000000000E+00 -0.45593999997E+02  0.45594000000E+02  0.51100000000E-03 0.  1.
    9900012    2    1    2    0    0  0.60321292729E+01  0.11995794494E+02  0.13053450161E+02  0.72461595374E+02  0.70000032671E+02 0.  0.
        -12    1    1    2    0    0 -0.60321292729E+01 -0.11995794494E+02 -0.13053450161E+02  0.18726404626E+02  0.00000000000E+00 0.  1.
         11    1    3    3    0    0 -0.13891102442E+02 -0.63750417354E+01  0.26375042220E+02  0.30483548622E+02  0.51100000000E-03 0. -1.
        -11    1    3    3    0    0  0.14989147746E+02  0.15648609160E+02 -0.22480863220E+02  0.31224072927E+02  0.51100000000E-03 0.  1.
         12    1    3    3    0    0  0.49340839689E+01  0.27222270690E+01  0.91592711608E+01  0.10753973825E+02  0.00000000000E+00 0. -1.
</event>
<event>
 7    1  0.1826069E-013  0.7246159E+02  0.7816164E-02  0.1226708E+00
        -11   -1    0    0    0    0  0.00000000000E+00  0.00000000000E+00  0.45593999997E+02  0.45594000000E+02  0.51100000000E-03 0. -1.
         11   -1    0    0    0    0 -0.00000000000E+00 -0.00000000000E+00 -0.45593999997E+02  0.45594000000E+02  0.51100000000E-03 0.  1.
    9900012    2    1    2    0    0  0.16534426472E+02 -0.32092383118E+00  0.87856832898E+01  0.72461588658E+02  0.70000023922E+02 0.  0.
        -12    1    1    2    0    0 -0.16534426472E+02  0.32092383118E+00 -0.87856832898E+01  0.18726411342E+02  0.00000000000E+00 0.  1.
         11    1    3    3    0    0 -0.11094933641E+02 -0.25111119794E+02  0.10500387383E+02  0.29392584528E+02  0.51100000000E-03 0. -1.
        -11    1    3    3    0    0  0.28135322939E+02  0.19475225701E+02  0.49013796441E+01  0.34567388326E+02  0.51100000000E-03 0.  1.
         12    1    3    3    0    0 -0.50596282599E+00  0.53149702618E+01 -0.66160837375E+01  0.85016158044E+01  0.00000000000E+00 0. -1.
</event>
<event>
 7    1  0.1826069E-013  0.7246166E+02  0.7816164E-02  0.1226708E+00
        -11   -1    0    0    0    0  0.00000000000E+00  0.00000000000E+00  0.45593999997E+02  0.45594000000E+02  0.51100000000E-03 0. -1.
         11   -1    0    0    0    0 -0.00000000000E+00 -0.00000000000E+00 -0.45593999997E+02  0.45594000000E+02  0.51100000000E-03 0.  1.
    9900012    2    1    2    0    0 -0.97040279669E+01  0.15758243254E+02 -0.28610422181E+01  0.72461656208E+02  0.70000111919E+02 0.  0.
        -12    1    1    2    0    0  0.97040279669E+01 -0.15758243254E+02  0.28610422181E+01  0.18726343792E+02  0.00000000000E+00 0.  1.
         11    1    3    3    0    0 -0.65958100166E+00  0.25903392635E+01  0.11778201164E+01  0.29209870053E+01  0.51100000000E-03 0. -1.
        -11    1    3    3    0    0 -0.28708572733E+02 -0.92811425151E+01  0.15449990385E+02  0.33897255905E+02  0.51100000000E-03 0.  1.
        -12    1    3    3    0    0  0.19664125768E+02  0.22449046505E+02 -0.19488852719E+02  0.35643413298E+02  0.00000000000E+00 0.  1.
</event>
<event>
 7    1  0.1826069E-013  0.7246158E+02  0.7816164E-02  0.1226708E+00
        -11   -1    0    0    0    0  0.00000000000E+00  0.00000000000E+00  0.45593999997E+02  0.45594000000E+02  0.51100000000E-03 0. -1.
         11   -1    0    0    0    0 -0.00000000000E+00 -0.00000000000E+00 -0.45593999997E+02  0.45594000000E+02  0.51100000000E-03 0.  1.
    9900012    2    1    2    0    0 -0.17231125235E+01  0.74710224135E+01  0.17084886994E+02  0.72461583998E+02  0.70000017852E+02 0.  0.
        -12    1    1    2    0    0  0.17231125235E+01 -0.74710224135E+01 -0.17084886994E+02  0.18726416002E+02  0.00000000000E+00 0.  1.
         11    1    3    3    0    0 -0.15652054487E+02 -0.11673002424E+02  0.16641759101E+02  0.25655290711E+02  0.51100000000E-03 0. -1.
        -11    1    3    3    0    0  0.87582278831E+01  0.31682498818E+02 -0.23653617151E+01  0.32955761610E+02  0.51100000000E-03 0.  1.
        -12    1    3    3    0    0  0.51707140800E+01 -0.12538473981E+02  0.28084896084E+01  0.13850531677E+02  0.00000000000E+00 0.  1.
</event>
<event>
 7    1  0.1826069E-013  0.7246157E+02  0.7816164E-02  0.1226708E+00
        -11   -1    0    0    0    0  0.00000000000E+00  0.00000000000E+00  0.45593999997E+02  0.45594000000E+02  0.51100000000E-03 0.  1.
         11   -1    0    0    0    0 -0.00000000000E+00 -0.00000000000E+00 -0.45593999997E+02  0.45594000000E+02  0.51100000000E-03 0. -1.
    9900012    2    1    2    0    0 -0.15867397200E+02  0.77935787896E+01 -0.61777974236E+01  0.72461565602E+02  0.69999993888E+02 0.  0.
        -12    1    1    2    0    0  0.15867397200E+02 -0.77935787896E+01  0.61777974236E+01  0.18726434398E+02  0.00000000000E+00 0.  1.
         11    1    3    3    0    0  0.16248892372E+02  0.25424603785E+02  0.16848976601E-01  0.30173452986E+02  0.51100000000E-03 0. -1.
        -11    1    3    3    0    0 -0.22481337282E+02 -0.15259363763E+02  0.46754304849E+01  0.27570244085E+02  0.51100000000E-03 0.  1.
        -12    1    3    3    0    0 -0.96349522888E+01 -0.23716612333E+01 -0.10870076885E+02  0.14717868531E+02  0.00000000000E+00 0.  1.
</event>
<event>
 7    1  0.1826069E-013  0.7246155E+02  0.7816164E-02  0.1226708E+00
        -11   -1    0    0    0    0  0.00000000000E+00  0.00000000000E+00  0.45593999997E+02  0.45594000000E+02  0.51100000000E-03 0. -1.
         11   -1    0    0    0    0 -0.00000000000E+00 -0.00000000000E+00 -0.45593999997E+02  0.45594000000E+02  0.51100000000E-03 0.  1.
    9900012    2    1    2    0    0 -0.33866641463E+00 -0.17315674151E+02  0.71226766222E+01  0.72461553768E+02  0.69999978471E+02 0.  0.
        -12    1    1    2    0    0  0.33866641463E+00  0.17315674151E+02 -0.71226766222E+01  0.18726446232E+02  0.00000000000E+00 0.  1.
         11    1    3    3    0    0  0.14621986274E+02 -0.89618744649E+01  0.15118529028E+02  0.22862362012E+02  0.51100000000E-03 0. -1.
        -11    1    3    3    0    0 -0.26930769138E+02  0.60901355374E+01 -0.12497267441E+02  0.30307388059E+02  0.51100000000E-03 0.  1.
        -12    1    3    3    0    0  0.11970116449E+02 -0.14443935223E+02  0.45014150352E+01  0.19291803696E+02  0.00000000000E+00 0.  1.
</event>
<event>
 7    1  0.1826069E-013  0.7246155E+02  0.7816164E-02  0.1226708E+00
        -11   -1    0    0    0    0  0.00000000000E+00  0.00000000000E+00  0.45593999997E+02  0.45594000000E+02  0.51100000000E-03 0. -1.
         11   -1    0    0    0    0 -0.00000000000E+00 -0.00000000000E+00 -0.45593999997E+02  0.45594000000E+02  0.51100000000E-03 0.  1.
    9900012    2    1    2    0    0 -0.16987462550E+02 -0.77845945730E+01  0.12273088125E+01  0.72461545892E+02  0.69999968211E+02 0.  0.
        -12    1    1    2    0    0  0.16987462550E+02  0.77845945730E+01 -0.12273088125E+01  0.18726454108E+02  0.00000000000E+00 0.  1.
         11    1    3    3    0    0 -0.12524318021E+01 -0.10562939225E+02  0.10930949762E+02  0.15252210773E+02  0.51100000000E-03 0. -1.
        -11    1    3    3    0    0 -0.20602904395E+02 -0.64711677892E+01 -0.28466898153E+02  0.35731218462E+02  0.51100000000E-03 0.  1.
        -12    1    3    3    0    0  0.48678736480E+01  0.92495124416E+01  0.18763257203E+02  0.21478116657E+02  0.00000000000E+00 0.  1.
</event>
<event>
 7    1  0.1826069E-013  0.7246156E+02  0.7816164E-02  0.1226708E+00
        -11   -1    0    0    0    0  0.00000000000E+00  0.00000000000E+00  0.45593999997E+02  0.45594000000E+02  0.51100000000E-03 0.  1.
         11   -1    0    0    0    0 -0.00000000000E+00 -0.00000000000E+00 -0.45593999997E+02  0.45594000000E+02  0.51100000000E-03 0. -1.
    9900012    2    1    2    0    0 -0.99989627102E+01 -0.35017895426E+01 -0.15441429522E+02  0.72461560644E+02  0.69999987428E+02 0.  0.
        -12    1    1    2    0    0  0.99989627102E+01  0.35017895426E+01  0.15441429522E+02  0.18726439356E+02  0.00000000000E+00 0.  1.
         11    1    3    3    0    0 -0.17860699535E+02  0.20430658253E+02 -0.16747007167E+02  0.31888534520E+02  0.51100000000E-03 0. -1.
        -11    1    3    3    0    0  0.12917131936E+02 -0.20081959610E+02 -0.11330126824E+02  0.26429324118E+02  0.51100000000E-03 0.  1.
        -12    1    3    3    0    0 -0.50553951115E+01 -0.38504881859E+01  0.12635704468E+02  0.14143702005E+02  0.00000000000E+00 0.  1.
</event>
<event>
 7    1  0.1826069E-013  0.7246144E+02  0.7816164E-02  0.1226708E+00
        -11   -1    0    0    0    0  0.00000000000E+00  0.00000000000E+00  0.45593999997E+02  0.45594000000E+02  0.51100000000E-03 0.  1.
         11   -1    0    0    0    0 -0.00000000000E+00 -0.00000000000E+00 -0.45593999997E+02  0.45594000000E+02  0.51100000000E-03 0. -1.
    9900012    2    1    2    0    0  0.77659932997E+01  0.30498184498E+01 -0.16765206166E+02  0.72461436453E+02  0.69999825646E+02 0.  0.
        -12    1    1    2    0    0 -0.77659932997E+01 -0.30498184498E+01  0.16765206166E+02  0.18726563547E+02  0.00000000000E+00 0.  1.
         11    1    3    3    0    0 -0.17525068373E+02  0.21581441944E+02 -0.24941294926E+02  0.37349094376E+02  0.51100000000E-03 0. -1.
        -11    1    3    3    0    0  0.66731035136E+01 -0.63857390955E+01  0.89611733693E+01  0.12868978309E+02  0.51100000000E-03 0.  1.
         12    1    3    3    0    0  0.18617958159E+02 -0.12145884399E+02 -0.78508460846E+00  0.22243363768E+02  0.00000000000E+00 0. -1.
</event>
<event>
 7    1  0.1826069E-013  0.7246157E+02  0.7816164E-02  0.1226708E+00
        -11   -1    0    0    0    0  0.00000000000E+00  0.00000000000E+00  0.45593999997E+02  0.45594000000E+02  0.51100000000E-03 0. -1.
         11   -1    0    0    0    0 -0.00000000000E+00 -0.00000000000E+00 -0.45593999997E+02  0.45594000000E+02  0.51100000000E-03 0.  1.
    9900012    2    1    2    0    0 -0.13928016326E+02  0.88515086969E+01  0.88510154355E+01  0.72461566297E+02  0.69999994793E+02 0.  0.
        -12    1    1    2    0    0  0.13928016326E+02 -0.88515086969E+01 -0.88510154355E+01  0.18726433703E+02  0.00000000000E+00 0.  1.
         11    1    3    3    0    0  0.15923428170E+02 -0.15033209482E+02  0.18775561388E+02  0.28845704320E+02  0.51100000000E-03 0. -1.
        -11    1    3    3    0    0 -0.13808838631E+02  0.20376332001E+02 -0.37115133487E+00  0.24617406113E+02  0.51100000000E-03 0.  1.
        -12    1    3    3    0    0 -0.16042605865E+02  0.35083861780E+01 -0.95533946179E+01  0.18998455864E+02  0.00000000000E+00 0.  1.
</event>
<event>
 7    1  0.1826069E-013  0.7246183E+02  0.7816164E-02  0.1226707E+00
        -11   -1    0    0    0    0  0.00000000000E+00  0.00000000000E+00  0.45593999997E+02  0.45594000000E+02  0.51100000000E-03 0.  1.
         11   -1    0    0    0    0 -0.00000000000E+00 -0.00000000000E+00 -0.45593999997E+02  0.45594000000E+02  0.51100000000E-03 0. -1.
    9900012    2    1    2    0    0  0.84008546434E+01  0.74759421401E+01 -0.14973488236E+02  0.72461830622E+02  0.70000339124E+02 0.  0.
        -12    1    1    2    0    0 -0.84008546434E+01 -0.74759421401E+01  0.14973488236E+02  0.18726169378E+02  0.00000000000E+00 0.  1.
         11    1    3    3    0    0  0.58976109906E+00  0.97038170233E+01 -0.37703480420E+02  0.38936670620E+02  0.51100000000E-03 0. -1.
        -11    1    3    3    0    0  0.13378254259E+02 -0.58013732087E+00  0.24090455666E+02  0.27562008286E+02  0.51100000000E-03 0.  1.
        -12    1    3    3    0    0 -0.55671607146E+01 -0.16477375623E+01 -0.13604634817E+01  0.59631517154E+01  0.00000000000E+00 0.  1.
</event>
<event>
 7    1  0.1826069E-013  0.7246154E+02  0.7816164E-02  0.1226708E+00
        -11   -1    0    0    0    0  0.00000000000E+00  0.00000000000E+00  0.45593999997E+02  0.45594000000E+02  0.51100000000E-03 0.  1.
         11   -1    0    0    0    0 -0.00000000000E+00 -0.00000000000E+00 -0.45593999997E+02  0.45594000000E+02  0.51100000000E-03 0. -1.
    9900012    2    1    2    0    0  0.38642166996E+01 -0.13181955254E+02 -0.12727307551E+02  0.72461535504E+02  0.69999954679E+02 0.  0.
        -12    1    1    2    0    0 -0.38642166996E+01  0.13181955254E+02  0.12727307551E+02  0.18726464496E+02  0.00000000000E+00 0.  1.
         11    1    3    3    0    0  0.12238440876E+02  0.97523740016E+01  0.13102826500E+02  0.20410102799E+02  0.51100000000E-03 0. -1.
        -11    1    3    3    0    0  0.50014112622E+00 -0.30263976495E+02 -0.88453275212E+01  0.31534080511E+02  0.51100000000E-03 0.  1.
        -12    1    3    3    0    0 -0.88743653022E+01  0.73296472402E+01 -0.16984806530E+02  0.20517352194E+02  0.00000000000E+00 0.  1.
</event>
<event>
 7    1  0.1826069E-013  0.7246155E+02  0.7816164E-02  0.1226708E+00
        -11   -1    0    0    0    0  0.00000000000E+00  0.00000000000E+00  0.45593999997E+02  0.45594000000E+02  0.51100000000E-03 0.  1.
         11   -1    0    0    0    0 -0.00000000000E+00 -0.00000000000E+00 -0.45593999997E+02  0.45594000000E+02  0.51100000000E-03 0. -1.
    9900012    2    1    2    0    0  0.74133580794E+01 -0.16245932926E+02 -0.56384149880E+01  0.72461549770E+02  0.69999973263E+02 0.  0.
        -12    1    1    2    0    0 -0.74133580794E+01  0.16245932926E+02  0.56384149880E+01  0.18726450230E+02  0.00000000000E+00 0.  1.
         11    1    3    3    0    0  0.11726616184E+02  0.20135127043E+02  0.84797573061E+01  0.24796030981E+02  0.51100000000E-03 0. -1.
        -11    1    3    3    0    0  0.60065535299E+01 -0.12466455301E+02  0.56703967925E+01  0.14954751523E+02  0.51100000000E-03 0.  1.
         12    1    3    3    0    0 -0.10319811635E+02 -0.23914604668E+02 -0.19788569087E+02  0.32710767266E+02  0.00000000000E+00 0. -1.
</event>
<event>
 7    1  0.1826069E-013  0.7246162E+02  0.7816164E-02  0.1226708E+00
        -11   -1    0    0    0    0  0.00000000000E+00  0.00000000000E+00  0.45593999997E+02  0.45594000000E+02  0.51100000000E-03 0. -1.
         11   -1    0    0    0    0 -0.00000000000E+00 -0.00000000000E+00 -0.45593999997E+02  0.45594000000E+02  0.51100000000E-03 0.  1.
    9900012    2    1    2    0    0 -0.26498948974E+01  0.47524586387E+00  0.18531849940E+02  0.72461621178E+02  0.70000066286E+02 0.  0.
        -12    1    1    2    0    0  0.26498948974E+01 -0.47524586387E+00 -0.18531849940E+02  0.18726378822E+02  0.00000000000E+00 0.  1.
         11    1    3    3    0    0 -0.40231444379E+01 -0.35574273847E+00  0.11859571360E+02  0.12528434745E+02  0.51100000000E-03 0. -1.
        -11    1    3    3    0    0 -0.96962244451E+01  0.13496408610E+02 -0.21468089668E+02  0.27148640631E+02  0.51100000000E-03 0.  1.
        -12    1    3    3    0    0  0.11069473986E+02 -0.12665420008E+02  0.28140368248E+02  0.32784545802E+02  0.00000000000E+00 0.  1.
</event>
<event>
 7    1  0.1826069E-013  0.7246156E+02  0.7816164E-02  0.1226708E+00
        -11   -1    0    0    0    0  0.00000000000E+00  0.00000000000E+00  0.45593999997E+02  0.45594000000E+02  0.51100000000E-03 0. -1.
         11   -1    0    0    0    0 -0.00000000000E+00 -0.00000000000E+00 -0.45593999997E+02  0.45594000000E+02  0.51100000000E-03 0.  1.
    9900012    2    1    2    0    0 -0.31917207017E+01 -0.12921485963E+02  0.13172996713E+02  0.72461555519E+02  0.69999980752E+02 0.  0.
        -12    1    1    2    0    0  0.31917207017E+01  0.12921485963E+02 -0.13172996713E+02  0.18726444481E+02  0.00000000000E+00 0.  1.
         11    1    3    3    0    0  0.66619926872E+01 -0.34950976631E+02  0.14968859856E+02  0.38600773045E+02  0.51100000000E-03 0. -1.
        -11    1    3    3    0    0  0.70885997805E+01  0.27234059956E+01  0.21055288865E+01  0.78802562914E+01  0.51100000000E-03 0.  1.
         12    1    3    3    0    0 -0.16942313169E+02  0.19306084673E+02 -0.39013920296E+01  0.25980526182E+02  0.00000000000E+00 0. -1.
</event>
<event>
 7    1  0.1826069E-013  0.7246160E+02  0.7816164E-02  0.1226708E+00
        -11   -1    0    0    0    0  0.00000000000E+00  0.00000000000E+00  0.45593999997E+02  0.45594000000E+02  0.51100000000E-03 0.  1.
         11   -1    0    0    0    0 -0.00000000000E+00 -0.00000000000E+00 -0.45593999997E+02  0.45594000000E+02  0.51100000000E-03 0. -1.
    9900012    2    1    2    0    0 -0.12547319657E+01  0.28552387663E+01  0.18464863196E+02  0.72461603828E+02  0.70000043684E+02 0.  0.
        -12    1    1    2    0    0  0.12547319657E+01 -0.28552387663E+01 -0.18464863196E+02  0.18726396172E+02  0.00000000000E+00 0.  1.
         11    1    3    3    0    0 -0.13883960786E+02 -0.49294265393E+01 -0.85495237407E+01  0.17034023881E+02  0.51100000000E-03 0. -1.
        -11    1    3    3    0    0  0.16963096602E+02  0.16229960673E+02 -0.32580809990E+01  0.23701758623E+02  0.51100000000E-03 0.  1.
         12    1    3    3    0    0 -0.43338677815E+01 -0.84452953672E+01  0.30272467936E+02  0.31725821325E+02  0.00000000000E+00 0. -1.
</event>
<event>
 7    1  0.1826069E-013  0.7246152E+02  0.7816164E-02  0.1226708E+00
        -11   -1    0    0    0    0  0.00000000000E+00  0.00000000000E+00  0.45593999997E+02  0.45594000000E+02  0.51100000000E-03 0.  1.
         11   -1    0    0    0    0 -0.00000000000E+00 -0.00000000000E+00 -0.45593999997E+02  0.45594000000E+02  0.51100000000E-03 0. -1.
    9900012    2    1    2    0    0 -0.14721266677E+02  0.10029516343E+02 -0.57770216383E+01  0.72461524900E+02  0.69999940866E+02 0.  0.
        -12    1    1    2    0    0  0.14721266677E+02 -0.10029516343E+02  0.57770216383E+01  0.18726475100E+02  0.00000000000E+00 0.  1.
         11    1    3    3    0    0 -0.13880767839E+02  0.20415341917E+02  0.10863329575E+02  0.26971722805E+02  0.51100000000E-03 0.  1.
        -11    1    3    3    0    0  0.10360914019E+02  0.89450635037E+01 -0.18564640079E+02  0.23065310792E+02  0.51100000000E-03 0. -1.
         12    1    3    3    0    0 -0.11201412858E+02 -0.19330889078E+02  0.19242888663E+01  0.22424491303E+02  0.00000000000E+00 0. -1.
</event>
<event>
 7    1  0.1826069E-013  0.7246158E+02  0.7816164E-02  0.1226708E+00
        -11   -1    0    0    0    0  0.00000000000E+00  0.00000000000E+00  0.45593999997E+02  0.45594000000E+02  0.51100000000E-03 0.  1.
         11   -1    0    0    0    0 -0.00000000000E+00 -0.00000000000E+00 -0.45593999997E+02  0.45594000000E+02  0.51100000000E-03 0. -1.
    9900012    2    1    2    0    0  0.17093728633E+02 -0.75431778261E+01 -0.12584751869E+01  0.72461578823E+02  0.70000011111E+02 0.  0.
        -12    1    1    2    0    0 -0.17093728633E+02  0.75431778261E+01  0.12584751869E+01  0.18726421177E+02  0.00000000000E+00 0.  1.
         11    1    3    3    0    0  0.56640524022E+01 -0.50252650628E+01 -0.43016294785E+01  0.87085472380E+01  0.51100000000E-03 0. -1.
        -11    1    3    3    0    0  0.20078988701E+00 -0.23057893426E+02  0.23311183524E+02  0.32788992716E+02  0.51100000000E-03 0.  1.
        -12    1    3    3    0    0  0.11228886344E+02  0.20539980662E+02 -0.20268029232E+02  0.30964038869E+02  0.00000000000E+00 0.  1.
</event>
<event>
 7    1  0.1826069E-013  0.7246156E+02  0.7816164E-02  0.1226708E+00
        -11   -1    0    0    0    0  0.00000000000E+00  0.00000000000E+00  0.45593999997E+02  0.45594000000E+02  0.51100000000E-03 0.  1.
         11   -1    0    0    0    0 -0.00000000000E+00 -0.00000000000E+00 -0.45593999997E+02  0.45594000000E+02  0.51100000000E-03 0. -1.
    9900012    2    1    2    0    0  0.11506258898E+02  0.43651588973E+01 -0.14114924629E+02  0.72461556042E+02  0.69999981434E+02 0.  0.
        -12    1    1    2    0    0 -0.11506258898E+02 -0.43651588973E+01  0.14114924629E+02  0.18726443958E+02  0.00000000000E+00 0.  1.
         11    1    3    3    0    0  0.86381618773E+01  0.10248619815E+02 -0.23418518098E+02  0.26982939775E+02  0.51100000000E-03 0. -1.
        -11    1    3    3    0    0 -0.12213299910E+02  0.12239698064E+02  0.12974056234E+02  0.21617146871E+02  0.51100000000E-03 0.  1.
        -12    1    3    3    0    0  0.15081396931E+02 -0.18123158982E+02 -0.36704627650E+01  0.23861469397E+02  0.00000000000E+00 0.  1.
</event>
<event>
 7    1  0.1826069E-013  0.7246156E+02  0.7816164E-02  0.1226708E+00
        -11   -1    0    0    0    0  0.00000000000E+00  0.00000000000E+00  0.45593999997E+02  0.45594000000E+02  0.51100000000E-03 0.  1.
         11   -1    0    0    0    0 -0.00000000000E+00 -0.00000000000E+00 -0.45593999997E+02  0.45594000000E+02  0.51100000000E-03 0. -1.
    9900012    2    1    2    0    0  0.13838485503E+02  0.97183420357E+01 -0.80454880855E+01  0.72461555290E+02  0.69999980454E+02 0.  0.
        -12    1    1    2    0    0 -0.13838485503E+02 -0.97183420357E+01  0.80454880855E+01  0.18726444710E+02  0.00000000000E+00 0.  1.
         11    1    3    3    0    0  0.17475514172E+01 -0.80435746127E+01  0.18098270516E+02  0.19882163475E+02  0.51100000000E-03 0. -1.
        -11    1    3    3    0    0  0.10939113747E+02 -0.11061219111E+02 -0.15133556571E+02  0.21703440108E+02  0.51100000000E-03 0.  1.
        -12    1    3    3    0    0  0.11518203388E+01  0.28823135759E+02 -0.11010202030E+02  0.30875951707E+02  0.00000000000E+00 0.  1.
</event>
<event>
 7    1  0.1826069E-013  0.7246157E+02  0.7816164E-02  0.1226708E+00
        -11   -1    0    0    0    0  0.00000000000E+00  0.00000000000E+00  0.45593999997E+02  0.45594000000E+02  0.51100000000E-03 0. -1.
         11   -1    0    0    0    0 -0.00000000000E+00 -0.00000000000E+00 -0.45593999997E+02  0.45594000000E+02  0.51100000000E-03 0.  1.
    9900012    2    1    2    0    0  0.53228462714E+01  0.48658025238E+01  0.17282086279E+02  0.72461568605E+02  0.69999997799E+02 0.  0.
        -12    1    1    2    0    0 -0.53228462714E+01 -0.48658025238E+01 -0.17282086279E+02  0.18726431395E+02  0.00000000000E+00 0.  1.
         11    1    3    3    0    0 -0.21783378143E+01 -0.37026168403E+01  0.70001954635E+01  0.82132371138E+01  0.51100000000E-03 0. -1.
        -11    1    3    3    0    0  0.12552334169E+02  0.13425782717E+02 -0.23450940650E+02  0.29795290774E+02  0.51100000000E-03 0.  1.
        -12    1    3    3    0    0 -0.50511500836E+01 -0.48573633533E+01  0.33732831466E+02  0.34453040717E+02  0.00000000000E+00 0.  1.
</event>
<event>
 7    1  0.1826069E-013  0.7246154E+02  0.7816164E-02  0.1226708E+00
        -11   -1    0    0    0    0  0.00000000000E+00  0.00000000000E+00  0.45593999997E+02  0.45594000000E+02  0.51100000000E-03 0. -1.
         11   -1    0    0    0    0 -0.00000000000E+00 -0.00000000000E+00 -0.45593999997E+02  0.45594000000E+02  0.51100000000E-03 0.  1.
    9900012    2    1    2    0    0  0.15482006654E+02  0.55658408318E+01  0.89447870458E+01  0.72461539323E+02  0.69999959654E+02 0.  0.
        -12    1    1    2    0    0 -0.15482006654E+02 -0.55658408318E+01 -0.89447870458E+01  0.18726460677E+02  0.00000000000E+00 0.  1.
         11    1    3    3    0    0  0.39409257115E+02 -0.27645534847E+01  0.48088315167E+01  0.39797702988E+02  0.51100000000E-03 0. -1.
        -11    1    3    3    0    0 -0.10146079644E+02  0.13935283249E+02  0.57949134721E-01  0.17237703145E+02  0.51100000000E-03 0.  1.
        -12    1    3    3    0    0 -0.13781170817E+02 -0.56048889322E+01  0.40780063944E+01  0.15426133190E+02  0.00000000000E+00 0.  1.
</event>
<event>
 7    1  0.1826069E-013  0.7246156E+02  0.7816164E-02  0.1226708E+00
        -11   -1    0    0    0    0  0.00000000000E+00  0.00000000000E+00  0.45593999997E+02  0.45594000000E+02  0.51100000000E-03 0. -1.
         11   -1    0    0    0    0 -0.00000000000E+00 -0.00000000000E+00 -0.45593999997E+02  0.45594000000E+02  0.51100000000E-03 0.  1.
    9900012    2    1    2    0    0  0.16724569822E+02 -0.71633375622E+01  0.44333867435E+01  0.72461559901E+02  0.69999986461E+02 0.  0.
        -12    1    1    2    0    0 -0.16724569822E+02  0.71633375622E+01 -0.44333867435E+01  0.18726440099E+02  0.00000000000E+00 0.  1.
         11    1    3    3    0    0  0.11325324206E+02  0.17212664374E+02 -0.12446775766E+02  0.24071996395E+02  0.51100000000E-03 0. -1.
        -11    1    3    3    0    0  0.13244545245E+02 -0.23934794397E+02 -0.25079523537E+01  0.27469659387E+02  0.51100000000E-03 0.  1.
         12    1    3    3    0    0 -0.78452996292E+01 -0.44120753894E+00  0.19388114864E+02  0.20919904119E+02  0.00000000000E+00 0. -1.
</event>
<event>
 7    1  0.1826069E-013  0.7246153E+02  0.7816164E-02  0.1226708E+00
        -11   -1    0    0    0    0  0.00000000000E+00  0.00000000000E+00  0.45593999997E+02  0.45594000000E+02  0.51100000000E-03 0. -1.
         11   -1    0    0    0    0 -0.00000000000E+00 -0.00000000000E+00 -0.45593999997E+02  0.45594000000E+02  0.51100000000E-03 0.  1.
    9900012    2    1    2    0    0 -0.18629678650E+02  0.17805371926E+01 -0.66750196277E+00  0.72461526810E+02  0.69999943353E+02 0.  0.
        -12    1    1    2    0    0  0.18629678650E+02 -0.17805371926E+01  0.66750196277E+00  0.18726473190E+02  0.00000000000E+00 0.  1.
         11    1    3    3    0    0 -0.26499916326E+02 -0.63734647259E-01  0.28514204578E+02  0.38926976383E+02  0.51100000000E-03 0. -1.
        -11    1    3    3    0    0  0.12841828666E+01  0.55383713408E+01 -0.32997686227E+01  0.65735192985E+01  0.51100000000E-03 0.  1.
         12    1    3    3    0    0  0.65860548098E+01 -0.36940995009E+01 -0.25881937918E+02  0.26961031128E+02  0.00000000000E+00 0. -1.
</event>
<event>
 7    1  0.1826069E-013  0.7246158E+02  0.7816164E-02  0.1226708E+00
        -11   -1    0    0    0    0  0.00000000000E+00  0.00000000000E+00  0.45593999997E+02  0.45594000000E+02  0.51100000000E-03 0.  1.
         11   -1    0    0    0    0 -0.00000000000E+00 -0.00000000000E+00 -0.45593999997E+02  0.45594000000E+02  0.51100000000E-03 0. -1.
    9900012    2    1    2    0    0  0.10967690064E+02 -0.15101355830E+02 -0.15289576685E+01  0.72461577897E+02  0.70000009904E+02 0.  0.
        -12    1    1    2    0    0 -0.10967690064E+02  0.15101355830E+02  0.15289576685E+01  0.18726422103E+02  0.00000000000E+00 0.  1.
         11    1    3    3    0    0  0.21330457778E+02 -0.21270582546E+01 -0.18211618419E+02  0.28127848328E+02  0.51100000000E-03 0. -1.
        -11    1    3    3    0    0 -0.11527954548E+02  0.11111035317E+02  0.11382538647E+02  0.19644618301E+02  0.51100000000E-03 0.  1.
        -12    1    3    3    0    0  0.11651868332E+01 -0.24085332893E+02  0.53001221038E+01  0.24689111268E+02  0.00000000000E+00 0.  1.
</event>
<event>
 7    1  0.1826069E-013  0.7246160E+02  0.7816164E-02  0.1226708E+00
        -11   -1    0    0    0    0  0.00000000000E+00  0.00000000000E+00  0.45593999997E+02  0.45594000000E+02  0.51100000000E-03 0. -1.
         11   -1    0    0    0    0 -0.00000000000E+00 -0.00000000000E+00 -0.45593999997E+02  0.45594000000E+02  0.51100000000E-03 0.  1.
    9900012    2    1    2    0    0  0.14329533858E+02 -0.11960144640E+02  0.15157922044E+01  0.72461595476E+02  0.70000032803E+02 0.  0.
        -12    1    1    2    0    0 -0.14329533858E+02  0.11960144640E+02 -0.15157922044E+01  0.18726404524E+02  0.00000000000E+00 0.  1.
         11    1    3    3    0    0  0.26185114270E+02 -0.79303649305E+01  0.18279765055E+02  0.32904417758E+02  0.51100000000E-03 0. -1.
        -11    1    3    3    0    0 -0.67039109535E+01 -0.17878884888E+02 -0.15739821647E+02  0.24745483076E+02  0.51100000000E-03 0.  1.
         12    1    3    3    0    0 -0.51516694582E+01  0.13849105179E+02 -0.10241512038E+01  0.14811694642E+02  0.00000000000E+00 0. -1.
</event>
<event>
 7    1  0.1826069E-013  0.7246157E+02  0.7816164E-02  0.1226708E+00
        -11   -1    0    0    0    0  0.00000000000E+00  0.00000000000E+00  0.45593999997E+02  0.45594000000E+02  0.51100000000E-03 0.  1.
         11   -1    0    0    0    0 -0.00000000000E+00 -0.00000000000E+00 -0.45593999997E+02  0.45594000000E+02  0.51100000000E-03 0. -1.
    9900012    2    1    2    0    0  0.64062015693E+01 -0.17558169087E+02 -0.11621083584E+01  0.72461569051E+02  0.69999998380E+02 0.  0.
        -12    1    1    2    0    0 -0.64062015693E+01  0.17558169087E+02  0.11621083584E+01  0.18726430949E+02  0.00000000000E+00 0.  1.
         11    1    3    3    0    0  0.35435052743E+01  0.57487650396E+01 -0.23367929975E+02  0.24324162486E+02  0.51100000000E-03 0. -1.
        -11    1    3    3    0    0 -0.15629503971E+02 -0.56969496841E+01  0.12544658947E+02  0.20835188947E+02  0.51100000000E-03 0.  1.
         12    1    3    3    0    0  0.18492200266E+02 -0.17609984443E+02  0.96611626690E+01  0.27302217618E+02  0.00000000000E+00 0. -1.
</event>
<event>
 7    1  0.1826069E-013  0.7246156E+02  0.7816164E-02  0.1226708E+00
        -11   -1    0    0    0    0  0.00000000000E+00  0.00000000000E+00  0.45593999997E+02  0.45594000000E+02  0.51100000000E-03 0.  1.
         11   -1    0    0    0    0 -0.00000000000E+00 -0.00000000000E+00 -0.45593999997E+02  0.45594000000E+02  0.51100000000E-03 0. -1.
    9900012    2    1    2    0    0 -0.87016778725E+01 -0.16571200633E+02 -0.59625042842E+00  0.72461564066E+02  0.69999991887E+02 0.  0.
        -12    1    1    2    0    0  0.87016778725E+01  0.16571200633E+02  0.59625042842E+00  0.18726435934E+02  0.00000000000E+00 0.  1.
         11    1    3    3    0    0  0.70785427563E+01 -0.37942341731E+02 -0.10398455388E+02  0.39973177736E+02  0.51100000000E-03 0. -1.
        -11    1    3    3    0    0  0.14028832538E+01  0.81322068556E+01  0.65888305564E+01  0.10559998017E+02  0.51100000000E-03 0.  1.
         12    1    3    3    0    0 -0.17183103883E+02  0.13238934243E+02  0.32133744033E+01  0.21928388313E+02  0.00000000000E+00 0. -1.
</event>
<event>
 7    1  0.1826069E-013  0.7246155E+02  0.7816164E-02  0.1226708E+00
        -11   -1    0    0    0    0  0.00000000000E+00  0.00000000000E+00  0.45593999997E+02  0.45594000000E+02  0.51100000000E-03 0. -1.
         11   -1    0    0    0    0 -0.00000000000E+00 -0.00000000000E+00 -0.45593999997E+02  0.45594000000E+02  0.51100000000E-03 0.  1.
    9900012    2    1    2    0    0 -0.97254253403E+01  0.13746190837E+02  0.81937864782E+01  0.72461553529E+02  0.69999978160E+02 0.  0.
        -12    1    1    2    0    0  0.97254253403E+01 -0.13746190837E+02 -0.81937864782E+01  0.18726446471E+02  0.00000000000E+00 0.  1.
         11    1    3    3    0    0 -0.29032749181E+02 -0.80420818322E+01 -0.37829582830E+01  0.30362581887E+02  0.51100000000E-03 0. -1.
        -11    1    3    3    0    0  0.16626183196E+02  0.80645999164E+01 -0.59047175606E+01  0.19399315174E+02  0.51100000000E-03 0.  1.
         12    1    3    3    0    0  0.26811406447E+01  0.13723672753E+02  0.17881462322E+02  0.22699656468E+02  0.00000000000E+00 0. -1.
</event>
<event>
 7    1  0.1826069E-013  0.7246157E+02  0.7816164E-02  0.1226708E+00
        -11   -1    0    0    0    0  0.00000000000E+00  0.00000000000E+00  0.45593999997E+02  0.45594000000E+02  0.51100000000E-03 0.  1.
         11   -1    0    0    0    0 -0.00000000000E+00 -0.00000000000E+00 -0.45593999997E+02  0.45594000000E+02  0.51100000000E-03 0. -1.
    9900012    2    1    2    0    0  0.13826266839E+01 -0.15854136430E+02 -0.98698563989E+01  0.72461565107E+02  0.69999993242E+02 0.  0.
        -12    1    1    2    0    0 -0.13826266839E+01  0.15854136430E+02  0.98698563989E+01  0.18726434893E+02  0.00000000000E+00 0.  1.
         11    1    3    3    0    0 -0.59689653206E+01 -0.42338096028E+01 -0.24636895350E+02  0.25700784103E+02  0.51100000000E-03 0. -1.
        -11    1    3    3    0    0  0.37858142477E+01  0.89745686675E+01  0.22465965437E+02  0.24486626464E+02  0.51100000000E-03 0.  1.
        -12    1    3    3    0    0  0.35657777568E+01 -0.20594895495E+02 -0.76989264858E+01  0.22274154540E+02  0.00000000000E+00 0.  1.
</event>
<event>
 7    1  0.1826069E-013  0.7246178E+02  0.7816164E-02  0.1226707E+00
        -11   -1    0    0    0    0  0.00000000000E+00  0.00000000000E+00  0.45593999997E+02  0.45594000000E+02  0.51100000000E-03 0.  1.
         11   -1    0    0    0    0 -0.00000000000E+00 -0.00000000000E+00 -0.45593999997E+02  0.45594000000E+02  0.51100000000E-03 0. -1.
    9900012    2    1    2    0    0  0.14150317665E+02 -0.10830011783E+02 -0.57576725250E+01  0.72461776725E+02  0.70000268914E+02 0.  0.
        -12    1    1    2    0    0 -0.14150317665E+02  0.10830011783E+02  0.57576725250E+01  0.18726223275E+02  0.00000000000E+00 0.  1.
         11    1    3    3    0    0  0.15346700326E+02  0.18705732350E+02 -0.74471630057E+01  0.25315723784E+02  0.51100000000E-03 0. -1.
        -11    1    3    3    0    0  0.64493766594E+01 -0.21039390325E+02  0.17163977167E+02  0.27907929285E+02  0.51100000000E-03 0.  1.
        -12    1    3    3    0    0 -0.76457593199E+01 -0.84963538076E+01 -0.15474486686E+02  0.19238123656E+02  0.00000000000E+00 0.  1.
</event>
<event>
 7    1  0.1826069E-013  0.7246163E+02  0.7816164E-02  0.1226708E+00
        -11   -1    0    0    0    0  0.00000000000E+00  0.00000000000E+00  0.45593999997E+02  0.45594000000E+02  0.51100000000E-03 0.  1.
         11   -1    0    0    0    0 -0.00000000000E+00 -0.00000000000E+00 -0.45593999997E+02  0.45594000000E+02  0.51100000000E-03 0. -1.
    9900012    2    1    2    0    0  0.15630804187E+02 -0.41839916736E+01 -0.94259886541E+01  0.72461625873E+02  0.70000072401E+02 0.  0.
        -12    1    1    2    0    0 -0.15630804187E+02  0.41839916736E+01  0.94259886541E+01  0.18726374127E+02  0.00000000000E+00 0.  1.
         11    1    3    3    0    0 -0.10557756016E+02 -0.65888409136E+01 -0.26888231437E+02  0.29628635249E+02  0.51100000000E-03 0. -1.
        -11    1    3    3    0    0  0.29768031500E+02 -0.11132126058E+01  0.60934866479E+01  0.30405682388E+02  0.51100000000E-03 0.  1.
        -12    1    3    3    0    0 -0.35794712979E+01  0.35180618458E+01  0.11368756135E+02  0.12427308235E+02  0.00000000000E+00 0.  1.
</event>
<event>
 7    1  0.1826069E-013  0.7246155E+02  0.7816164E-02  0.1226708E+00
        -11   -1    0    0    0    0  0.00000000000E+00  0.00000000000E+00  0.45593999997E+02  0.45594000000E+02  0.51100000000E-03 0.  1.
         11   -1    0    0    0    0 -0.00000000000E+00 -0.00000000000E+00 -0.45593999997E+02  0.45594000000E+02  0.51100000000E-03 0. -1.
    9900012    2    1    2    0    0 -0.10254704143E+02  0.84769467310E+01 -0.13178099452E+02  0.72461551108E+02  0.69999975006E+02 0.  0.
        -12    1    1    2    0    0  0.10254704143E+02 -0.84769467310E+01  0.13178099452E+02  0.18726448892E+02  0.00000000000E+00 0.  1.
         11    1    3    3    0    0  0.12876703473E+02 -0.32414809115E+01 -0.28930041920E+02  0.31831808252E+02  0.51100000000E-03 0. -1.
        -11    1    3    3    0    0 -0.22460821040E+02  0.15414843179E+02  0.30829822748E+01  0.27415518453E+02  0.51100000000E-03 0.  1.
        -12    1    3    3    0    0 -0.67058657635E+00 -0.36964155370E+01  0.12668960194E+02  0.13214224403E+02  0.00000000000E+00 0.  1.
</event>
<event>
 7    1  0.1826069E-013  0.7246169E+02  0.7816164E-02  0.1226708E+00
        -11   -1    0    0    0    0  0.00000000000E+00  0.00000000000E+00  0.45593999997E+02  0.45594000000E+02  0.51100000000E-03 0.  1.
         11   -1    0    0    0    0 -0.00000000000E+00 -0.00000000000E+00 -0.45593999997E+02  0.45594000000E+02  0.51100000000E-03 0. -1.
    9900012    2    1    2    0    0  0.17728294533E+02 -0.48213017110E+01  0.36245201070E+01  0.72461694352E+02  0.70000161608E+02 0.  0.
        -12    1    1    2    0    0 -0.17728294533E+02  0.48213017110E+01 -0.36245201070E+01  0.18726305648E+02  0.00000000000E+00 0.  1.
         11    1    3    3    0    0  0.29049479759E+02 -0.10749177781E+02  0.12878480162E+02  0.33545079352E+02  0.51100000000E-03 0.  1.
        -11    1    3    3    0    0 -0.11588534046E+02  0.17006551328E+02  0.46881414119E+01  0.21106766203E+02  0.51100000000E-03 0. -1.
         12    1    3    3    0    0  0.26734881961E+00 -0.11078675258E+02 -0.13942101467E+02  0.17809848797E+02  0.00000000000E+00 0. -1.
</event>
<event>
 7    1  0.1826069E-013  0.7246156E+02  0.7816164E-02  0.1226708E+00
        -11   -1    0    0    0    0  0.00000000000E+00  0.00000000000E+00  0.45593999997E+02  0.45594000000E+02  0.51100000000E-03 0.  1.
         11   -1    0    0    0    0 -0.00000000000E+00 -0.00000000000E+00 -0.45593999997E+02  0.45594000000E+02  0.51100000000E-03 0. -1.
    9900012    2    1    2    0    0  0.36763918637E+01  0.15061979444E+02 -0.10502394347E+02  0.72461564970E+02  0.69999993064E+02 0.  0.
        -12    1    1    2    0    0 -0.36763918637E+01 -0.15061979444E+02  0.10502394347E+02  0.18726435030E+02  0.00000000000E+00 0.  1.
         11    1    3    3    0    0  0.75299359134E+01  0.32644773294E+02 -0.11263911892E+02  0.35344828047E+02  0.51100000000E-03 0. -1.
        -11    1    3    3    0    0 -0.36780391840E+01 -0.18567025773E+02 -0.13227681083E+02  0.23091859288E+02  0.51100000000E-03 0.  1.
        -12    1    3    3    0    0 -0.17550486571E+00  0.98423192303E+00  0.13989198628E+02  0.14024877635E+02  0.00000000000E+00 0.  1.
</event>
<event>
 7    1  0.1826069E-013  0.7246171E+02  0.7816164E-02  0.1226708E+00
        -11   -1    0    0    0    0  0.00000000000E+00  0.00000000000E+00  0.45593999997E+02  0.45594000000E+02  0.51100000000E-03 0. -1.
         11   -1    0    0    0    0 -0.00000000000E+00 -0.00000000000E+00 -0.45593999997E+02  0.45594000000E+02  0.51100000000E-03 0.  1.
    9900012    2    1    2    0    0  0.37346782521E+01 -0.17959863154E+02 -0.37642340351E+01  0.72461709283E+02  0.70000181058E+02 0.  0.
        -12    1    1    2    0    0 -0.37346782521E+01  0.17959863154E+02  0.37642340351E+01  0.18726290717E+02  0.00000000000E+00 0.  1.
         11    1    3    3    0    0  0.64948354840E+01  0.12490482794E+02  0.12925414473E+02  0.19111812786E+02  0.51100000000E-03 0. -1.
        -11    1    3    3    0    0  0.12729562134E+02 -0.32633016926E+02 -0.11725699913E+02  0.36938429643E+02  0.51100000000E-03 0.  1.
         12    1    3    3    0    0 -0.15489719366E+02  0.21826709778E+01 -0.49639485957E+01  0.16411466854E+02  0.00000000000E+00 0. -1.
</event>
<event>
 7    1  0.1826069E-013  0.7246155E+02  0.7816164E-02  0.1226708E+00
        -11   -1    0    0    0    0  0.00000000000E+00  0.00000000000E+00  0.45593999997E+02  0.45594000000E+02  0.51100000000E-03 0.  1.
         11   -1    0    0    0    0 -0.00000000000E+00 -0.00000000000E+00 -0.45593999997E+02  0.45594000000E+02  0.51100000000E-03 0. -1.
    9900012    2    1    2    0    0  0.10356550600E+02 -0.86593716746E+01 -0.12978325138E+02  0.72461553954E+02  0.69999978714E+02 0.  0.
        -12    1    1    2    0    0 -0.10356550600E+02  0.86593716746E+01  0.12978325138E+02  0.18726446046E+02  0.00000000000E+00 0.  1.
         11    1    3    3    0    0  0.48315092802E+00  0.38084073379E+01 -0.36387844077E+02  0.36589788167E+02  0.51100000000E-03 0. -1.
        -11    1    3    3    0    0 -0.61205573522E+01 -0.70638299013E+01  0.40532230374E+01  0.10187616622E+02  0.51100000000E-03 0.  1.
         12    1    3    3    0    0  0.15993957024E+02 -0.54039491112E+01  0.19356295902E+02  0.25684149165E+02  0.00000000000E+00 0. -1.
</event>
<event>
 7    1  0.1826069E-013  0.7246161E+02  0.7816164E-02  0.1226708E+00
        -11   -1    0    0    0    0  0.00000000000E+00  0.00000000000E+00  0.45593999997E+02  0.45594000000E+02  0.51100000000E-03 0. -1.
         11   -1    0    0    0    0 -0.00000000000E+00 -0.00000000000E+00 -0.45593999997E+02  0.45594000000E+02  0.51100000000E-03 0.  1.
    9900012    2    1    2    0    0  0.14071614813E+02 -0.83941573938E+01  0.90667324712E+01  0.72461605272E+02  0.70000045565E+02 0.  0.
        -12    1    1    2    0    0 -0.14071614813E+02  0.83941573938E+01 -0.90667324712E+01  0.18726394728E+02  0.00000000000E+00 0.  1.
         11    1    3    3    0    0 -0.22784058807E+02 -0.16758211648E+02  0.67088191321E+01  0.29068182739E+02  0.51100000000E-03 0. -1.
        -11    1    3    3    0    0  0.45850873960E+01  0.58123252203E+01  0.75893722978E+01  0.10602109367E+02  0.51100000000E-03 0.  1.
         12    1    3    3    0    0  0.32270586224E+02  0.25517290344E+01 -0.52314589588E+01  0.32791313166E+02  0.00000000000E+00 0. -1.
</event>
<event>
 8    1  0.1826069E-013  0.7246157E+02  0.7816164E-02  0.1226708E+00
        -11   -1    0    0    0    0  0.00000000000E+00  0.00000000000E+00  0.45593999997E+02  0.45594000000E+02  0.51100000000E-03 0. -1.
         11   -1    0    0    0    0 -0.00000000000E+00 -0.00000000000E+00 -0.45593999997E+02  0.45594000000E+02  0.51100000000E-03 0.  1.
    9900012    2    1    2    0    0  0.65045000596E+01  0.36065742539E+01  0.17186137348E+02  0.72461569058E+02  0.69999998389E+02 0.  0.
        -24    2    3    3    0    0 -0.55028256089E+01  0.10962391108E+02  0.15389976154E+02  0.58266143506E+02  0.54841927433E+02 0.  0.
        -12    1    1    2    0    0 -0.65045000596E+01 -0.36065742539E+01 -0.17186137348E+02  0.18726430942E+02  0.00000000000E+00 0.  1.
         11    1    4    4    0    0 -0.47854033202E+01  0.29098429570E+02  0.24146596498E+02  0.38113997574E+02  0.51100000000E-03 0. -1.
        -11    1    3    3    0    0  0.12007325669E+02 -0.73558168543E+01  0.17961611942E+01  0.14195425552E+02  0.51100000000E-03 0.  1.
        -12    1    4    4    0    0 -0.71742228874E+00 -0.18136038461E+02 -0.87566203441E+01  0.20152145932E+02  0.00000000000E+00 0.  1.
</event>
<event>
 7    1  0.1826069E-013  0.7246131E+02  0.7816164E-02  0.1226709E+00
        -11   -1    0    0    0    0  0.00000000000E+00  0.00000000000E+00  0.45593999997E+02  0.45594000000E+02  0.51100000000E-03 0.  1.
         11   -1    0    0    0    0 -0.00000000000E+00 -0.00000000000E+00 -0.45593999997E+02  0.45594000000E+02  0.51100000000E-03 0. -1.
    9900012    2    1    2    0    0  0.11749996993E+02 -0.12485179322E+02  0.75330430356E+01  0.72461311307E+02  0.69999662620E+02 0.  0.
        -12    1    1    2    0    0 -0.11749996993E+02  0.12485179322E+02 -0.75330430356E+01  0.18726688693E+02  0.00000000000E+00 0.  1.
         11    1    3    3    0    0 -0.15150520544E+01  0.11115176604E+02 -0.27975589209E+01  0.11561525411E+02  0.51100000000E-03 0. -1.
        -11    1    3    3    0    0  0.97177591498E+01 -0.38052487465E+02  0.19052375951E+02  0.43651113099E+02  0.51100000000E-03 0.  1.
        -12    1    3    3    0    0  0.35472898972E+01  0.14452131539E+02 -0.87217739948E+01  0.17248672797E+02  0.00000000000E+00 0.  1.
</event>
<event>
 7    1  0.1826069E-013  0.7246171E+02  0.7816164E-02  0.1226708E+00
        -11   -1    0    0    0    0  0.00000000000E+00  0.00000000000E+00  0.45593999997E+02  0.45594000000E+02  0.51100000000E-03 0.  1.
         11   -1    0    0    0    0 -0.00000000000E+00 -0.00000000000E+00 -0.45593999997E+02  0.45594000000E+02  0.51100000000E-03 0. -1.
    9900012    2    1    2    0    0  0.11057115754E+02 -0.29229812795E+01  0.14828025929E+02  0.72461708821E+02  0.70000180457E+02 0.  0.
        -12    1    1    2    0    0 -0.11057115754E+02  0.29229812795E+01 -0.14828025929E+02  0.18726291179E+02  0.00000000000E+00 0.  1.
         11    1    3    3    0    0  0.31761428156E+02 -0.16717649155E+02  0.82805794321E+01  0.36835256315E+02  0.51100000000E-03 0. -1.
        -11    1    3    3    0    0 -0.22790445133E+02  0.96636492200E+01  0.12783710944E+02  0.27860613263E+02  0.51100000000E-03 0.  1.
         12    1    3    3    0    0  0.20861327313E+01  0.41310186556E+01 -0.62362644469E+01  0.77658392436E+01  0.00000000000E+00 0. -1.
</event>
<event>
 7    1  0.1826069E-013  0.7246158E+02  0.7816164E-02  0.1226708E+00
        -11   -1    0    0    0    0  0.00000000000E+00  0.00000000000E+00  0.45593999997E+02  0.45594000000E+02  0.51100000000E-03 0. -1.
         11   -1    0    0    0    0 -0.00000000000E+00 -0.00000000000E+00 -0.45593999997E+02  0.45594000000E+02  0.51100000000E-03 0.  1.
    9900012    2    1    2    0    0  0.29834438688E+01  0.17206919841E+02  0.67601692799E+01  0.72461577052E+02  0.70000008803E+02 0.  0.
        -12    1    1    2    0    0 -0.29834438688E+01 -0.17206919841E+02 -0.67601692799E+01  0.18726422948E+02  0.00000000000E+00 0.  1.
         11    1    3    3    0    0  0.13401724949E+02  0.11203502692E+02  0.36218793318E+02  0.40211014584E+02  0.51100000000E-03 0. -1.
        -11    1    3    3    0    0 -0.22679773189E+01  0.35653086315E+01 -0.13771429522E+02  0.14405117774E+02  0.51100000000E-03 0.  1.
         12    1    3    3    0    0 -0.81503037611E+01  0.24381085172E+01 -0.15687194516E+02  0.17845444694E+02  0.00000000000E+00 0. -1.
</event>
<event>
 7    1  0.1826069E-013  0.7246158E+02  0.7816164E-02  0.1226708E+00
        -11   -1    0    0    0    0  0.00000000000E+00  0.00000000000E+00  0.45593999997E+02  0.45594000000E+02  0.51100000000E-03 0.  1.
         11   -1    0    0    0    0 -0.00000000000E+00 -0.00000000000E+00 -0.45593999997E+02  0.45594000000E+02  0.51100000000E-03 0. -1.
    9900012    2    1    2    0    0  0.86957982439E+01 -0.15345663538E+02 -0.62906720771E+01  0.72461578780E+02  0.70000011055E+02 0.  0.
        -12    1    1    2    0    0 -0.86957982439E+01  0.15345663538E+02  0.62906720771E+01  0.18726421220E+02  0.00000000000E+00 0.  1.
         11    1    3    3    0    0  0.13206017727E+02 -0.25354765939E+02 -0.26868817361E+01  0.28713801451E+02  0.51100000000E-03 0. -1.
        -11    1    3    3    0    0 -0.21948748085E+02  0.13540721296E+02 -0.27333929506E+01  0.25933956756E+02  0.51100000000E-03 0.  1.
         12    1    3    3    0    0  0.17438528602E+02 -0.35316188953E+01 -0.87039739043E+00  0.17813820574E+02  0.00000000000E+00 0. -1.
</event>
<event>
 8    1  0.1826069E-013  0.7246155E+02  0.7816164E-02  0.1226708E+00
        -11   -1    0    0    0    0  0.00000000000E+00  0.00000000000E+00  0.45593999997E+02  0.45594000000E+02  0.51100000000E-03 0.  1.
         11   -1    0    0    0    0 -0.00000000000E+00 -0.00000000000E+00 -0.45593999997E+02  0.45594000000E+02  0.51100000000E-03 0. -1.
    9900012    2    1    2    0    0 -0.16142924410E+02  0.53334223137E+01 -0.78511369797E+01  0.72461554690E+02  0.69999979672E+02 0.  0.
         24    2    3    3    0    0 -0.65620196664E+01  0.11397277699E+02 -0.18974711426E+02  0.56577663902E+02  0.51653018671E+02 0.  0.
        -12    1    1    2    0    0  0.16142924410E+02 -0.53334223137E+01  0.78511369797E+01  0.18726445310E+02  0.00000000000E+00 0.  1.
         11    1    3    3    0    0 -0.95809047435E+01 -0.60638553857E+01  0.11123574447E+02  0.15883890788E+02  0.51100000000E-03 0.  1.
        -11    1    4    4    0    0 -0.45441066689E+00  0.25029580062E+02 -0.29209960999E+02  0.38469574847E+02  0.51100000000E-03 0. -1.
         12    1    4    4    0    0 -0.61076089995E+01 -0.13632302363E+02  0.10235249572E+02  0.18108089054E+02  0.00000000000E+00 0. -1.
</event>
<event>
 7    1  0.1826069E-013  0.7246154E+02  0.7816164E-02  0.1226708E+00
        -11   -1    0    0    0    0  0.00000000000E+00  0.00000000000E+00  0.45593999997E+02  0.45594000000E+02  0.51100000000E-03 0. -1.
         11   -1    0    0    0    0 -0.00000000000E+00 -0.00000000000E+00 -0.45593999997E+02  0.45594000000E+02  0.51100000000E-03 0.  1.
    9900012    2    1    2    0    0  0.18362368115E+02 -0.18327358366E+01 -0.31850843527E+01  0.72461541558E+02  0.69999962566E+02 0.  0.
        -12    1    1    2    0    0 -0.18362368115E+02  0.18327358366E+01  0.31850843527E+01  0.18726458442E+02  0.00000000000E+00 0.  1.
         11    1    3    3    0    0  0.16175401803E+02  0.11044729637E+02  0.69656030957E+01  0.20788201052E+02  0.51100000000E-03 0. -1.
        -11    1    3    3    0    0 -0.16395591332E+02 -0.22813334730E+02 -0.11939102910E+02  0.30525494839E+02  0.51100000000E-03 0.  1.
        -12    1    3    3    0    0  0.18582557645E+02  0.99358692557E+01  0.17884154618E+01  0.21147845667E+02  0.00000000000E+00 0.  1.
</event>
<event>
 7    1  0.1826069E-013  0.7246157E+02  0.7816164E-02  0.1226708E+00
        -11   -1    0    0    0    0  0.00000000000E+00  0.00000000000E+00  0.45593999997E+02  0.45594000000E+02  0.51100000000E-03 0.  1.
         11   -1    0    0    0    0 -0.00000000000E+00 -0.00000000000E+00 -0.45593999997E+02  0.45594000000E+02  0.51100000000E-03 0. -1.
    9900012    2    1    2    0    0  0.82366658996E+01  0.16614906522E+02  0.26040780827E+01  0.72461574646E+02  0.70000005668E+02 0.  0.
        -12    1    1    2    0    0 -0.82366658996E+01 -0.16614906522E+02 -0.26040780827E+01  0.18726425354E+02  0.00000000000E+00 0.  1.
         11    1    3    3    0    0  0.20866707685E+02  0.88801159413E+01 -0.10670004473E+02  0.25062420962E+02  0.51100000000E-03 0. -1.
        -11    1    3    3    0    0 -0.10258926785E+02  0.23414239481E+02  0.17510482784E+02  0.30985306144E+02  0.51100000000E-03 0.  1.
        -12    1    3    3    0    0 -0.23711150003E+01 -0.15679448900E+02 -0.42364002277E+01  0.16413847539E+02  0.00000000000E+00 0.  1.
</event>
<event>
 7    1  0.1826069E-013  0.7246173E+02  0.7816164E-02  0.1226708E+00
        -11   -1    0    0    0    0  0.00000000000E+00  0.00000000000E+00  0.45593999997E+02  0.45594000000E+02  0.51100000000E-03 0. -1.
         11   -1    0    0    0    0 -0.00000000000E+00 -0.00000000000E+00 -0.45593999997E+02  0.45594000000E+02  0.51100000000E-03 0.  1.
    9900012    2    1    2    0    0  0.11023727164E+02 -0.10006428087E+02  0.11358792039E+02  0.72461726472E+02  0.70000203451E+02 0.  0.
        -12    1    1    2    0    0 -0.11023727164E+02  0.10006428087E+02 -0.11358792039E+02  0.18726273528E+02  0.00000000000E+00 0.  1.
         11    1    3    3    0    0 -0.14377508554E+02  0.83277216483E+01  0.22757100281E+02  0.28177106195E+02  0.51100000000E-03 0.  1.
        -11    1    3    3    0    0  0.30283338386E+02 -0.21217383186E+02 -0.86074747251E+01  0.37965070189E+02  0.51100000000E-03 0. -1.
        -12    1    3    3    0    0 -0.48821026682E+01  0.28832334508E+01 -0.27908335172E+01  0.63195500880E+01  0.00000000000E+00 0.  1.
</event>
<event>
 7    1  0.1826069E-013  0.7246163E+02  0.7816164E-02  0.1226708E+00
        -11   -1    0    0    0    0  0.00000000000E+00  0.00000000000E+00  0.45593999997E+02  0.45594000000E+02  0.51100000000E-03 0.  1.
         11   -1    0    0    0    0 -0.00000000000E+00 -0.00000000000E+00 -0.45593999997E+02  0.45594000000E+02  0.51100000000E-03 0. -1.
    9900012    2    1    2    0    0 -0.16386993245E+02 -0.58889865052E+01 -0.68893569635E+01  0.72461629581E+02  0.70000077232E+02 0.  0.
        -12    1    1    2    0    0  0.16386993245E+02  0.58889865052E+01  0.68893569635E+01  0.18726370419E+02  0.00000000000E+00 0.  1.
         11    1    3    3    0    0  0.13084978455E+02  0.20692428509E+02  0.19048129492E+01  0.24556497539E+02  0.51100000000E-03 0. -1.
        -11    1    3    3    0    0 -0.25031712335E+02 -0.25080812725E+02 -0.16341002998E+02  0.39021304035E+02  0.51100000000E-03 0.  1.
        -12    1    3    3    0    0 -0.44402593658E+01 -0.15006022891E+01  0.75468330849E+01  0.88838280080E+01  0.00000000000E+00 0.  1.
</event>
<event>
 7    1  0.1826069E-013  0.7246158E+02  0.7816164E-02  0.1226708E+00
        -11   -1    0    0    0    0  0.00000000000E+00  0.00000000000E+00  0.45593999997E+02  0.45594000000E+02  0.51100000000E-03 0.  1.
         11   -1    0    0    0    0 -0.00000000000E+00 -0.00000000000E+00 -0.45593999997E+02  0.45594000000E+02  0.51100000000E-03 0. -1.
    9900012    2    1    2    0    0  0.11149965156E+02 -0.15010251751E+02  0.10243284798E+01  0.72461584715E+02  0.70000018785E+02 0.  0.
        -12    1    1    2    0    0 -0.11149965156E+02  0.15010251751E+02 -0.10243284798E+01  0.18726415285E+02  0.00000000000E+00 0.  1.
         11    1    3    3    0    0 -0.19800307833E+02 -0.16441927492E+02 -0.10959817420E+02  0.27973322435E+02  0.51100000000E-03 0. -1.
        -11    1    3    3    0    0  0.28841696058E+02  0.11147732040E+02  0.29620096272E+01  0.31062660260E+02  0.51100000000E-03 0.  1.
        -12    1    3    3    0    0  0.21085769318E+01 -0.97160562983E+01  0.90221362725E+01  0.13425602020E+02  0.00000000000E+00 0.  1.
</event>
<event>
 7    1  0.1826069E-013  0.7246180E+02  0.7816164E-02  0.1226707E+00
        -11   -1    0    0    0    0  0.00000000000E+00  0.00000000000E+00  0.45593999997E+02  0.45594000000E+02  0.51100000000E-03 0. -1.
         11   -1    0    0    0    0 -0.00000000000E+00 -0.00000000000E+00 -0.45593999997E+02  0.45594000000E+02  0.51100000000E-03 0.  1.
    9900012    2    1    2    0    0 -0.95716040557E+00 -0.11188923036E+02  0.14985411870E+02  0.72461795802E+02  0.70000293765E+02 0.  0.
        -12    1    1    2    0    0  0.95716040557E+00  0.11188923036E+02 -0.14985411870E+02  0.18726204198E+02  0.00000000000E+00 0.  1.
         11    1    3    3    0    0 -0.23003162816E+02 -0.10087377076E+02 -0.71020438726E+01  0.26102484618E+02  0.51100000000E-03 0.  1.
        -11    1    3    3    0    0  0.27589479924E+02  0.75095886846E+01  0.94959016541E+01  0.30128814666E+02  0.51100000000E-03 0. -1.
         12    1    3    3    0    0 -0.55434775135E+01 -0.86111346448E+01  0.12591554089E+02  0.16230496517E+02  0.00000000000E+00 0. -1.
</event>
<event>
 7    1  0.1826069E-013  0.7246142E+02  0.7816164E-02  0.1226708E+00
        -11   -1    0    0    0    0  0.00000000000E+00  0.00000000000E+00  0.45593999997E+02  0.45594000000E+02  0.51100000000E-03 0.  1.
         11   -1    0    0    0    0 -0.00000000000E+00 -0.00000000000E+00 -0.45593999997E+02  0.45594000000E+02  0.51100000000E-03 0. -1.
    9900012    2    1    2    0    0 -0.11243402528E+02 -0.73746985314E+01  0.13033982554E+02  0.72461415153E+02  0.69999797899E+02 0.  0.
        -12    1    1    2    0    0  0.11243402528E+02  0.73746985314E+01 -0.13033982554E+02  0.18726584847E+02  0.00000000000E+00 0.  1.
         11    1    3    3    0    0 -0.13210702857E+02  0.63312702253E+01 -0.20219265461E+02  0.24968507138E+02  0.51100000000E-03 0. -1.
        -11    1    3    3    0    0 -0.11729338749E+02  0.15385682166E+01  0.19514284821E+02  0.22819988869E+02  0.51100000000E-03 0.  1.
         12    1    3    3    0    0  0.13696639079E+02 -0.15244536973E+02  0.13738963193E+02  0.24672919146E+02  0.00000000000E+00 0. -1.
</event>
<event>
 7    1  0.1826069E-013  0.7246181E+02  0.7816164E-02  0.1226707E+00
        -11   -1    0    0    0    0  0.00000000000E+00  0.00000000000E+00  0.45593999997E+02  0.45594000000E+02  0.51100000000E-03 0. -1.
         11   -1    0    0    0    0 -0.00000000000E+00 -0.00000000000E+00 -0.45593999997E+02  0.45594000000E+02  0.51100000000E-03 0.  1.
    9900012    2    1    2    0    0 -0.16107645393E+02 -0.67635195909E+01  0.67430590313E+01  0.72461807582E+02  0.70000309111E+02 0.  0.
        -12    1    1    2    0    0  0.16107645393E+02  0.67635195909E+01 -0.67430590313E+01  0.18726192418E+02  0.00000000000E+00 0.  1.
         11    1    3    3    0    0 -0.29261549768E+02 -0.72128735828E+01  0.20253840466E+02  0.36310905993E+02  0.51100000000E-03 0. -1.
        -11    1    3    3    0    0  0.19231881704E+02 -0.73426747792E+00 -0.19597892594E+02  0.27467832405E+02  0.51100000000E-03 0.  1.
        -12    1    3    3    0    0 -0.60779773288E+01  0.11836214698E+01  0.60871111597E+01  0.86830691846E+01  0.00000000000E+00 0.  1.
</event>
<event>
 7    1  0.1826069E-013  0.7246157E+02  0.7816164E-02  0.1226708E+00
        -11   -1    0    0    0    0  0.00000000000E+00  0.00000000000E+00  0.45593999997E+02  0.45594000000E+02  0.51100000000E-03 0.  1.
         11   -1    0    0    0    0 -0.00000000000E+00 -0.00000000000E+00 -0.45593999997E+02  0.45594000000E+02  0.51100000000E-03 0. -1.
    9900012    2    1    2    0    0 -0.72717925989E+01 -0.10135861919E+02 -0.13966549735E+02  0.72461570123E+02  0.69999999776E+02 0.  0.
        -12    1    1    2    0    0  0.72717925989E+01  0.10135861919E+02  0.13966549735E+02  0.18726429877E+02  0.00000000000E+00 0.  1.
         11    1    3    3    0    0  0.28419774634E+02 -0.69995071542E+01  0.52974295545E+01  0.29744570106E+02  0.51100000000E-03 0.  1.
        -11    1    3    3    0    0 -0.20732437918E+02  0.41324684256E+01 -0.13646787243E+02  0.25162394156E+02  0.51100000000E-03 0. -1.
        -12    1    3    3    0    0 -0.14959129315E+02 -0.72688231906E+01 -0.56171920466E+01  0.17554605861E+02  0.00000000000E+00 0.  1.
</event>
<event>
 7    1  0.1826069E-013  0.7246157E+02  0.7816164E-02  0.1226708E+00
        -11   -1    0    0    0    0  0.00000000000E+00  0.00000000000E+00  0.45593999997E+02  0.45594000000E+02  0.51100000000E-03 0. -1.
         11   -1    0    0    0    0 -0.00000000000E+00 -0.00000000000E+00 -0.45593999997E+02  0.45594000000E+02  0.51100000000E-03 0.  1.
    9900012    2    1    2    0    0  0.17183025689E+02  0.45764839247E+01  0.58718530182E+01  0.72461568551E+02  0.69999997729E+02 0.  0.
        -12    1    1    2    0    0 -0.17183025689E+02 -0.45764839247E+01 -0.58718530182E+01  0.18726431449E+02  0.00000000000E+00 0.  1.
         11    1    3    3    0    0  0.25600348194E+02  0.80292159041E+01 -0.42136485594E+01  0.27158810175E+02  0.51100000000E-03 0.  1.
        -11    1    3    3    0    0 -0.14792351829E+02  0.16844865003E+02  0.84760643300E+01  0.23966785692E+02  0.51100000000E-03 0. -1.
        -12    1    3    3    0    0  0.63750293238E+01 -0.20297596983E+02  0.16094372476E+01  0.21335972685E+02  0.00000000000E+00 0.  1.
</event>
<event>
 7    1  0.1826069E-013  0.7246156E+02  0.7816164E-02  0.1226708E+00
        -11   -1    0    0    0    0  0.00000000000E+00  0.00000000000E+00  0.45593999997E+02  0.45594000000E+02  0.51100000000E-03 0. -1.
         11   -1    0    0    0    0 -0.00000000000E+00 -0.00000000000E+00 -0.45593999997E+02  0.45594000000E+02  0.51100000000E-03 0.  1.
    9900012    2    1    2    0    0  0.26573770688E+01  0.51955486336E+01  0.17793939325E+02  0.72461557327E+02  0.69999983108E+02 0.  0.
        -12    1    1    2    0    0 -0.26573770688E+01 -0.51955486336E+01 -0.17793939325E+02  0.18726442673E+02  0.00000000000E+00 0.  1.
         11    1    3    3    0    0 -0.80727329480E+01  0.11357083567E+02 -0.19252356492E+02  0.23765638960E+02  0.51100000000E-03 0. -1.
        -11    1    3    3    0    0  0.12961654866E+02 -0.12859877612E+02  0.10153897751E+02  0.20892165729E+02  0.51100000000E-03 0.  1.
         12    1    3    3    0    0 -0.22315448493E+01  0.66983426780E+01  0.26892398066E+02  0.27803752638E+02  0.00000000000E+00 0. -1.
</event>
<event>
 7    1  0.1826069E-013  0.7246159E+02  0.7816164E-02  0.1226708E+00
        -11   -1    0    0    0    0  0.00000000000E+00  0.00000000000E+00  0.45593999997E+02  0.45594000000E+02  0.51100000000E-03 0. -1.
         11   -1    0    0    0    0 -0.00000000000E+00 -0.00000000000E+00 -0.45593999997E+02  0.45594000000E+02  0.51100000000E-03 0.  1.
    9900012    2    1    2    0    0 -0.21640776516E+00  0.11765480327E+02  0.14567263186E+02  0.72461587733E+02  0.70000022717E+02 0.  0.
        -12    1    1    2    0    0  0.21640776516E+00 -0.11765480327E+02 -0.14567263186E+02  0.18726412267E+02  0.00000000000E+00 0.  1.
         11    1    3    3    0    0 -0.67485640298E+01 -0.92577407067E+01 -0.13366057965E+02  0.17603987765E+02  0.51100000000E-03 0. -1.
        -11    1    3    3    0    0  0.23043193132E+02  0.13749806322E+02  0.80642316487E+01  0.28019239033E+02  0.51100000000E-03 0.  1.
         12    1    3    3    0    0 -0.16511036868E+02  0.72734147123E+01  0.19869089502E+02  0.26838360935E+02  0.00000000000E+00 0. -1.
</event>
<event>
 7    1  0.2768168E-013  0.7246145E+02  0.7816164E-02  0.1226708E+00
        -11   -1    0    0    0    0  0.00000000000E+00  0.00000000000E+00  0.45593999997E+02  0.45594000000E+02  0.51100000000E-03 0. -1.
         11   -1    0    0    0    0 -0.00000000000E+00 -0.00000000000E+00 -0.45593999997E+02  0.45594000000E+02  0.51100000000E-03 0.  1.
    9900012    2    1    2    0    0 -0.97661193473E+01  0.20247929368E+00  0.15977038296E+02  0.72461445654E+02  0.69999837632E+02 0.  0.
        -12    1    1    2    0    0  0.97661193473E+01 -0.20247929368E+00 -0.15977038296E+02  0.18726554346E+02  0.00000000000E+00 0.  1.
         11    1    3    3    0    0 -0.86115908023E+01 -0.45704430407E+01  0.32563989969E+02  0.33992085677E+02  0.51100000000E-03 0. -1.
        -11    1    3    3    0    0 -0.14372717034E+02  0.12708892917E+02 -0.10687773757E+02  0.21961772748E+02  0.51100000000E-03 0.  1.
        -12    1    3    3    0    0  0.13218188489E+02 -0.79359705822E+01 -0.58991779162E+01  0.16507587228E+02  0.00000000000E+00 0.  1.
</event>
<event>
 7    1  0.1826069E-013  0.7246158E+02  0.7816164E-02  0.1226708E+00
        -11   -1    0    0    0    0  0.00000000000E+00  0.00000000000E+00  0.45593999997E+02  0.45594000000E+02  0.51100000000E-03 0. -1.
         11   -1    0    0    0    0 -0.00000000000E+00 -0.00000000000E+00 -0.45593999997E+02  0.45594000000E+02  0.51100000000E-03 0.  1.
    9900012    2    1    2    0    0 -0.95983672421E+01  0.12744010978E+02 -0.98051097867E+01  0.72461584234E+02  0.70000018158E+02 0.  0.
        -12    1    1    2    0    0  0.95983672421E+01 -0.12744010978E+02  0.98051097867E+01  0.18726415766E+02  0.00000000000E+00 0.  1.
         11    1    3    3    0    0  0.26532739024E+02  0.17817152345E+02 -0.10255727875E+02  0.33565117493E+02  0.51100000000E-03 0.  1.
        -11    1    3    3    0    0 -0.24830903409E+02 -0.91991264030E-01 -0.51125002230E+01  0.25351920741E+02  0.51100000000E-03 0. -1.
         12    1    3    3    0    0 -0.11300202857E+02 -0.49811501030E+01  0.55631183116E+01  0.13544545999E+02  0.00000000000E+00 0. -1.
</event>
<event>
 7    1  0.1826069E-013  0.7246157E+02  0.7816164E-02  0.1226708E+00
        -11   -1    0    0    0    0  0.00000000000E+00  0.00000000000E+00  0.45593999997E+02  0.45594000000E+02  0.51100000000E-03 0.  1.
         11   -1    0    0    0    0 -0.00000000000E+00 -0.00000000000E+00 -0.45593999997E+02  0.45594000000E+02  0.51100000000E-03 0. -1.
    9900012    2    1    2    0    0 -0.39469050831E+01  0.89166496545E+01 -0.15987327274E+02  0.72461565898E+02  0.69999994273E+02 0.  0.
        -12    1    1    2    0    0  0.39469050831E+01 -0.89166496545E+01  0.15987327274E+02  0.18726434102E+02  0.00000000000E+00 0.  1.
         11    1    3    3    0    0 -0.10667645128E+02 -0.14825187736E+02 -0.14160230333E+02  0.23110538015E+02  0.51100000000E-03 0. -1.
        -11    1    3    3    0    0  0.24620042850E+02  0.11964613428E+02 -0.45619551725E+01  0.27750854396E+02  0.51100000000E-03 0.  1.
        -12    1    3    3    0    0 -0.17899302805E+02  0.11777223962E+02  0.27348582313E+01  0.21600173488E+02  0.00000000000E+00 0.  1.
</event>
<event>
 7    1  0.1826069E-013  0.7246159E+02  0.7816164E-02  0.1226708E+00
        -11   -1    0    0    0    0  0.00000000000E+00  0.00000000000E+00  0.45593999997E+02  0.45594000000E+02  0.51100000000E-03 0.  1.
         11   -1    0    0    0    0 -0.00000000000E+00 -0.00000000000E+00 -0.45593999997E+02  0.45594000000E+02  0.51100000000E-03 0. -1.
    9900012    2    1    2    0    0 -0.87209923571E+01 -0.23555159796E+01 -0.16403483851E+02  0.72461589621E+02  0.70000025177E+02 0.  0.
        -12    1    1    2    0    0  0.87209923571E+01  0.23555159796E+01  0.16403483851E+02  0.18726410379E+02  0.00000000000E+00 0.  1.
         11    1    3    3    0    0  0.12927486052E+01 -0.17551756993E+01 -0.54932287877E+01  0.59099410714E+01  0.51100000000E-03 0. -1.
        -11    1    3    3    0    0 -0.31893849707E+02  0.36026917941E+01 -0.24566641298E+02  0.40419263999E+02  0.51100000000E-03 0.  1.
        -12    1    3    3    0    0  0.21880108745E+02 -0.42030320743E+01  0.13656386235E+02  0.26132384551E+02  0.00000000000E+00 0.  1.
</event>
<event>
 7    1  0.1826069E-013  0.7246162E+02  0.7816164E-02  0.1226708E+00
        -11   -1    0    0    0    0  0.00000000000E+00  0.00000000000E+00  0.45593999997E+02  0.45594000000E+02  0.51100000000E-03 0.  1.
         11   -1    0    0    0    0 -0.00000000000E+00 -0.00000000000E+00 -0.45593999997E+02  0.45594000000E+02  0.51100000000E-03 0. -1.
    9900012    2    1    2    0    0  0.10260699122E+02  0.90859240727E+01  0.12760934435E+02  0.72461617264E+02  0.70000061186E+02 0.  0.
        -12    1    1    2    0    0 -0.10260699122E+02 -0.90859240727E+01 -0.12760934435E+02  0.18726382736E+02  0.00000000000E+00 0.  1.
         11    1    3    3    0    0  0.20072252133E+01 -0.28622326828E+01 -0.10119470957E+01  0.36394183839E+01  0.51100000000E-03 0. -1.
        -11    1    3    3    0    0 -0.13711686351E+02  0.23964253326E+02 -0.14393804420E+02  0.31136431812E+02  0.51100000000E-03 0.  1.
        -12    1    3    3    0    0  0.21965160260E+02 -0.12016096570E+02  0.28166685951E+02  0.37685767068E+02  0.00000000000E+00 0.  1.
</event>
<event>
 7    1  0.1826069E-013  0.7246155E+02  0.7816164E-02  0.1226708E+00
        -11   -1    0    0    0    0  0.00000000000E+00  0.00000000000E+00  0.45593999997E+02  0.45594000000E+02  0.51100000000E-03 0.  1.
         11   -1    0    0    0    0 -0.00000000000E+00 -0.00000000000E+00 -0.45593999997E+02  0.45594000000E+02  0.51100000000E-03 0. -1.
    9900012    2    1    2    0    0  0.74261856655E+01  0.12459674986E+02 -0.11844332729E+02  0.72461549400E+02  0.69999972781E+02 0.  0.
        -12    1    1    2    0    0 -0.74261856655E+01 -0.12459674986E+02  0.11844332729E+02  0.18726450600E+02  0.00000000000E+00 0.  1.
         11    1    3    3    0    0  0.32043983411E+02 -0.69663494086E+01  0.66557385456E+01  0.33461108063E+02  0.51100000000E-03 0.  1.
        -11    1    3    3    0    0 -0.16923897351E+02  0.97365134644E+01 -0.18096123463E+02  0.26621188565E+02  0.51100000000E-03 0. -1.
        -12    1    3    3    0    0 -0.76939003944E+01  0.96895109303E+01 -0.40394781162E+00  0.12379252772E+02  0.00000000000E+00 0.  1.
</event>
<event>
 7    1  0.1826069E-013  0.7246160E+02  0.7816164E-02  0.1226708E+00
        -11   -1    0    0    0    0  0.00000000000E+00  0.00000000000E+00  0.45593999997E+02  0.45594000000E+02  0.51100000000E-03 0. -1.
         11   -1    0    0    0    0 -0.00000000000E+00 -0.00000000000E+00 -0.45593999997E+02  0.45594000000E+02  0.51100000000E-03 0.  1.
    9900012    2    1    2    0    0  0.14065337763E+02  0.10720696944E+02  0.61572007595E+01  0.72461596433E+02  0.70000034051E+02 0.  0.
        -12    1    1    2    0    0 -0.14065337763E+02 -0.10720696944E+02 -0.61572007595E+01  0.18726403567E+02  0.00000000000E+00 0.  1.
         11    1    3    3    0    0  0.12998281606E+01  0.11976705138E+02  0.24354832843E+02  0.27171472214E+02  0.51100000000E-03 0. -1.
        -11    1    3    3    0    0  0.20198032468E+02  0.22431987058E+01 -0.26642655659E+02  0.33508559456E+02  0.51100000000E-03 0.  1.
         12    1    3    3    0    0 -0.74325228661E+01 -0.34992068998E+01  0.84450235747E+01  0.11781564763E+02  0.00000000000E+00 0. -1.
</event>
<event>
 7    1  0.1826069E-013  0.7246151E+02  0.7816164E-02  0.1226708E+00
        -11   -1    0    0    0    0  0.00000000000E+00  0.00000000000E+00  0.45593999997E+02  0.45594000000E+02  0.51100000000E-03 0. -1.
         11   -1    0    0    0    0 -0.00000000000E+00 -0.00000000000E+00 -0.45593999997E+02  0.45594000000E+02  0.51100000000E-03 0.  1.
    9900012    2    1    2    0    0 -0.94064048532E+01 -0.70786389111E+01  0.14563436729E+02  0.72461514199E+02  0.69999926925E+02 0.  0.
        -12    1    1    2    0    0  0.94064048532E+01  0.70786389111E+01 -0.14563436729E+02  0.18726485801E+02  0.00000000000E+00 0.  1.
         11    1    3    3    0    0  0.62069236467E+01 -0.18581027903E+02 -0.19938491432E+02  0.27952172365E+02  0.51100000000E-03 0. -1.
        -11    1    3    3    0    0 -0.61498967370E+01 -0.54592296755E+01  0.67674698068E+01  0.10650026590E+02  0.51100000000E-03 0.  1.
         12    1    3    3    0    0 -0.94634317629E+01  0.16961618667E+02  0.27734458355E+02  0.33859315244E+02  0.00000000000E+00 0. -1.
</event>
<event>
 7    1  0.1826069E-013  0.7246160E+02  0.7816164E-02  0.1226708E+00
        -11   -1    0    0    0    0  0.00000000000E+00  0.00000000000E+00  0.45593999997E+02  0.45594000000E+02  0.51100000000E-03 0. -1.
         11   -1    0    0    0    0 -0.00000000000E+00 -0.00000000000E+00 -0.45593999997E+02  0.45594000000E+02  0.51100000000E-03 0.  1.
    9900012    2    1    2    0    0  0.14840386767E+02  0.11357950853E+02  0.11990793256E+01  0.72461603705E+02  0.70000043523E+02 0.  0.
        -12    1    1    2    0    0 -0.14840386767E+02 -0.11357950853E+02 -0.11990793256E+01  0.18726396295E+02  0.00000000000E+00 0.  1.
         11    1    3    3    0    0 -0.19162542469E+02 -0.21307319825E+01 -0.21584921815E+00  0.19281847521E+02  0.51100000000E-03 0. -1.
        -11    1    3    3    0    0  0.31148188994E+02  0.22391284369E+01 -0.13717905595E+02  0.34108713080E+02  0.51100000000E-03 0.  1.
        -12    1    3    3    0    0  0.28547402422E+01  0.11249554399E+02  0.15132834138E+02  0.19071043104E+02  0.00000000000E+00 0.  1.
</event>
<event>
 7    1  0.1826069E-013  0.7246154E+02  0.7816164E-02  0.1226708E+00
        -11   -1    0    0    0    0  0.00000000000E+00  0.00000000000E+00  0.45593999997E+02  0.45594000000E+02  0.51100000000E-03 0. -1.
         11   -1    0    0    0    0 -0.00000000000E+00 -0.00000000000E+00 -0.45593999997E+02  0.45594000000E+02  0.51100000000E-03 0.  1.
    9900012    2    1    2    0    0 -0.13996160226E+02 -0.12376808123E+02  0.12659158318E+01  0.72461536819E+02  0.69999956392E+02 0.  0.
        -12    1    1    2    0    0  0.13996160226E+02  0.12376808123E+02 -0.12659158318E+01  0.18726463181E+02  0.00000000000E+00 0.  1.
         11    1    3    3    0    0  0.66490396995E+00 -0.10880235000E+02  0.26518223726E+01  0.11218456806E+02  0.51100000000E-03 0. -1.
        -11    1    3    3    0    0 -0.27236442419E+02  0.19476189528E+02 -0.10583931468E+02  0.35116454260E+02  0.51100000000E-03 0.  1.
        -12    1    3    3    0    0  0.12575378223E+02 -0.20972762651E+02  0.91980249269E+01  0.26126625753E+02  0.00000000000E+00 0.  1.
</event>
<event>
 7    1  0.1826069E-013  0.7246153E+02  0.7816164E-02  0.1226708E+00
        -11   -1    0    0    0    0  0.00000000000E+00  0.00000000000E+00  0.45593999997E+02  0.45594000000E+02  0.51100000000E-03 0.  1.
         11   -1    0    0    0    0 -0.00000000000E+00 -0.00000000000E+00 -0.45593999997E+02  0.45594000000E+02  0.51100000000E-03 0. -1.
    9900012    2    1    2    0    0  0.18515280285E+02  0.26399732322E+01  0.94630032498E+00  0.72461533516E+02  0.69999952089E+02 0.  0.
        -12    1    1    2    0    0 -0.18515280285E+02 -0.26399732322E+01 -0.94630032498E+00  0.18726466484E+02  0.00000000000E+00 0.  1.
         11    1    3    3    0    0  0.62517065249E+01  0.22458718351E+02 -0.11979681542E+02  0.26210506186E+02  0.51100000000E-03 0. -1.
        -11    1    3    3    0    0 -0.57676914578E+01 -0.15387257294E+02  0.20434765113E+02  0.26222386948E+02  0.51100000000E-03 0.  1.
         12    1    3    3    0    0  0.18031265217E+02 -0.44314878245E+01 -0.75087832461E+01  0.20028640381E+02  0.00000000000E+00 0. -1.
</event>
<event>
 7    1  0.1826069E-013  0.7246160E+02  0.7816164E-02  0.1226708E+00
        -11   -1    0    0    0    0  0.00000000000E+00  0.00000000000E+00  0.45593999997E+02  0.45594000000E+02  0.51100000000E-03 0.  1.
         11   -1    0    0    0    0 -0.00000000000E+00 -0.00000000000E+00 -0.45593999997E+02  0.45594000000E+02  0.51100000000E-03 0. -1.
    9900012    2    1    2    0    0  0.15447896651E+02 -0.58568904732E+01 -0.88168890347E+01  0.72461595935E+02  0.70000033402E+02 0.  0.
        -12    1    1    2    0    0 -0.15447896651E+02  0.58568904732E+01  0.88168890347E+01  0.18726404065E+02  0.00000000000E+00 0.  1.
         11    1    3    3    0    0 -0.88653242644E+01 -0.63645917726E+01 -0.13141887320E+02  0.17082482411E+02  0.51100000000E-03 0. -1.
        -11    1    3    3    0    0  0.29552440252E+02  0.91296940653E+01 -0.14392934739E+02  0.34115313412E+02  0.51100000000E-03 0.  1.
        -12    1    3    3    0    0 -0.52392193363E+01 -0.86219927659E+01  0.18717933024E+02  0.21263800112E+02  0.00000000000E+00 0.  1.
</event>
<event>
 7    1  0.1826069E-013  0.7246156E+02  0.7816164E-02  0.1226708E+00
        -11   -1    0    0    0    0  0.00000000000E+00  0.00000000000E+00  0.45593999997E+02  0.45594000000E+02  0.51100000000E-03 0.  1.
         11   -1    0    0    0    0 -0.00000000000E+00 -0.00000000000E+00 -0.45593999997E+02  0.45594000000E+02  0.51100000000E-03 0. -1.
    9900012    2    1    2    0    0  0.15168631050E+02 -0.19501030956E+00 -0.10979718601E+02  0.72461558333E+02  0.69999984418E+02 0.  0.
        -12    1    1    2    0    0 -0.15168631050E+02  0.19501030956E+00  0.10979718601E+02  0.18726441667E+02  0.00000000000E+00 0.  1.
         11    1    3    3    0    0  0.26395665242E+01  0.25091057859E+02 -0.51801719037E+01  0.25755828023E+02  0.51100000000E-03 0.  1.
        -11    1    3    3    0    0 -0.75094291632E+01 -0.25182287034E+02 -0.40853616729E+01  0.26593782862E+02  0.51100000000E-03 0. -1.
         12    1    3    3    0    0  0.20038493689E+02 -0.10378113444E+00 -0.17141850241E+01  0.20111947448E+02  0.00000000000E+00 0. -1.
</event>
<event>
 7    1  0.1826069E-013  0.7246158E+02  0.7816164E-02  0.1226708E+00
        -11   -1    0    0    0    0  0.00000000000E+00  0.00000000000E+00  0.45593999997E+02  0.45594000000E+02  0.51100000000E-03 0.  1.
         11   -1    0    0    0    0 -0.00000000000E+00 -0.00000000000E+00 -0.45593999997E+02  0.45594000000E+02  0.51100000000E-03 0. -1.
    9900012    2    1    2    0    0  0.74816375246E+01  0.76387669988E+01 -0.15373777924E+02  0.72461582591E+02  0.70000016019E+02 0.  0.
        -12    1    1    2    0    0 -0.74816375246E+01 -0.76387669988E+01  0.15373777924E+02  0.18726417409E+02  0.00000000000E+00 0.  1.
         11    1    3    3    0    0 -0.43787450628E+01  0.43905682556E+01 -0.15616493461E+02  0.16802540469E+02  0.51100000000E-03 0. -1.
        -11    1    3    3    0    0  0.10702618471E+02 -0.21527177918E+02  0.13462313277E+02  0.27553571643E+02  0.51100000000E-03 0.  1.
        -12    1    3    3    0    0  0.11577641164E+01  0.24775376661E+02 -0.13219597740E+02  0.28105470479E+02  0.00000000000E+00 0.  1.
</event>
<event>
 7    1  0.1826069E-013  0.7246150E+02  0.7816164E-02  0.1226708E+00
        -11   -1    0    0    0    0  0.00000000000E+00  0.00000000000E+00  0.45593999997E+02  0.45594000000E+02  0.51100000000E-03 0. -1.
         11   -1    0    0    0    0 -0.00000000000E+00 -0.00000000000E+00 -0.45593999997E+02  0.45594000000E+02  0.51100000000E-03 0.  1.
    9900012    2    1    2    0    0  0.70275376227E+01 -0.17260843227E+02 -0.18327106287E+01  0.72461499468E+02  0.69999907735E+02 0.  0.
        -12    1    1    2    0    0 -0.70275376227E+01  0.17260843227E+02  0.18327106287E+01  0.18726500532E+02  0.00000000000E+00 0.  1.
         11    1    3    3    0    0  0.25597267507E+02 -0.11627154069E+02 -0.16128122260E+02  0.32411836472E+02  0.51100000000E-03 0.  1.
        -11    1    3    3    0    0 -0.67890652257E+01  0.86684170000E+01  0.18050570562E+02  0.21143697827E+02  0.51100000000E-03 0. -1.
        -12    1    3    3    0    0 -0.11780664659E+02 -0.14302106158E+02 -0.37551589309E+01  0.18905965168E+02  0.00000000000E+00 0.  1.
</event>
<event>
 7    1  0.1826069E-013  0.7246158E+02  0.7816164E-02  0.1226708E+00
        -11   -1    0    0    0    0  0.00000000000E+00  0.00000000000E+00  0.45593999997E+02  0.45594000000E+02  0.51100000000E-03 0.  1.
         11   -1    0    0    0    0 -0.00000000000E+00 -0.00000000000E+00 -0.45593999997E+02  0.45594000000E+02  0.51100000000E-03 0. -1.
    9900012    2    1    2    0    0 -0.35552694987E+01 -0.18384443647E+02  0.22637472323E+00  0.72461576024E+02  0.70000007464E+02 0.  0.
        -12    1    1    2    0    0  0.35552694987E+01  0.18384443647E+02 -0.22637472323E+00  0.18726423976E+02  0.00000000000E+00 0.  1.
         11    1    3    3    0    0 -0.15945024402E+02 -0.32309507999E+02 -0.16854358393E+02  0.39777097776E+02  0.51100000000E-03 0. -1.
        -11    1    3    3    0    0  0.17494346299E+02  0.67625424446E+01  0.92705566943E+01  0.20921934768E+02  0.51100000000E-03 0.  1.
         12    1    3    3    0    0 -0.51045913954E+01  0.71625219080E+01  0.78101764224E+01  0.11762543481E+02  0.00000000000E+00 0. -1.
</event>
<event>
 7    1  0.1826069E-013  0.7246155E+02  0.7816164E-02  0.1226708E+00
        -11   -1    0    0    0    0  0.00000000000E+00  0.00000000000E+00  0.45593999997E+02  0.45594000000E+02  0.51100000000E-03 0.  1.
         11   -1    0    0    0    0 -0.00000000000E+00 -0.00000000000E+00 -0.45593999997E+02  0.45594000000E+02  0.51100000000E-03 0. -1.
    9900012    2    1    2    0    0  0.38403847802E+01  0.17894526790E+02  0.39644835838E+01  0.72461554144E+02  0.69999978961E+02 0.  0.
        -12    1    1    2    0    0 -0.38403847802E+01 -0.17894526790E+02 -0.39644835838E+01  0.18726445856E+02  0.00000000000E+00 0.  1.
         11    1    3    3    0    0  0.11210706903E+02  0.29639201731E+02  0.10642208598E+02  0.33427815253E+02  0.51100000000E-03 0. -1.
        -11    1    3    3    0    0 -0.17685929791E+02  0.38152589832E+01 -0.90235941702E+01  0.20218149413E+02  0.51100000000E-03 0.  1.
        -12    1    3    3    0    0  0.10315607669E+02 -0.15559933924E+02  0.23458691558E+01  0.18815589478E+02  0.00000000000E+00 0.  1.
</event>
<event>
 7    1  0.1826069E-013  0.7246156E+02  0.7816164E-02  0.1226708E+00
        -11   -1    0    0    0    0  0.00000000000E+00  0.00000000000E+00  0.45593999997E+02  0.45594000000E+02  0.51100000000E-03 0. -1.
         11   -1    0    0    0    0 -0.00000000000E+00 -0.00000000000E+00 -0.45593999997E+02  0.45594000000E+02  0.51100000000E-03 0.  1.
    9900012    2    1    2    0    0 -0.47314032414E+01 -0.13737703763E+02  0.11813930025E+02  0.72461558161E+02  0.69999984194E+02 0.  0.
        -12    1    1    2    0    0  0.47314032414E+01  0.13737703763E+02 -0.11813930025E+02  0.18726441839E+02  0.00000000000E+00 0.  1.
         11    1    3    3    0    0  0.12721517188E+02 -0.45476116529E+01 -0.19447473957E+02  0.23679569567E+02  0.51100000000E-03 0. -1.
        -11    1    3    3    0    0  0.46694620235E+01 -0.13339779592E+02  0.17119490814E+02  0.22199787412E+02  0.51100000000E-03 0.  1.
         12    1    3    3    0    0 -0.22122382453E+02  0.41496874817E+01  0.14141913169E+02  0.26582201182E+02  0.00000000000E+00 0. -1.
</event>
<event>
 7    1  0.1928790E-013  0.7246155E+02  0.7816164E-02  0.1226708E+00
        -11   -1    0    0    0    0  0.00000000000E+00  0.00000000000E+00  0.45593999997E+02  0.45594000000E+02  0.51100000000E-03 0. -1.
         11   -1    0    0    0    0 -0.00000000000E+00 -0.00000000000E+00 -0.45593999997E+02  0.45594000000E+02  0.51100000000E-03 0.  1.
    9900012    2    1    2    0    0 -0.14833114461E+02 -0.67116823825E+01  0.92526689884E+01  0.72461552168E+02  0.69999976387E+02 0.  0.
        -12    1    1    2    0    0  0.14833114461E+02  0.67116823825E+01 -0.92526689884E+01  0.18726447832E+02  0.00000000000E+00 0.  1.
         11    1    3    3    0    0  0.29792329006E+01 -0.51837330482E+01  0.31037950062E+02  0.31608563100E+02  0.51100000000E-03 0. -1.
        -11    1    3    3    0    0 -0.17995565462E+01  0.12887856688E+02 -0.80631640845E+01  0.15308490098E+02  0.51100000000E-03 0.  1.
         12    1    3    3    0    0 -0.16012790815E+02 -0.14415806022E+02 -0.13722116989E+02  0.25544498969E+02  0.00000000000E+00 0. -1.
</event>
<event>
 7    1  0.1826069E-013  0.7246155E+02  0.7816164E-02  0.1226708E+00
        -11   -1    0    0    0    0  0.00000000000E+00  0.00000000000E+00  0.45593999997E+02  0.45594000000E+02  0.51100000000E-03 0.  1.
         11   -1    0    0    0    0 -0.00000000000E+00 -0.00000000000E+00 -0.45593999997E+02  0.45594000000E+02  0.51100000000E-03 0. -1.
    9900012    2    1    2    0    0 -0.97510989861E+01 -0.15710323750E+02  0.29634139278E+01  0.72461547429E+02  0.69999970214E+02 0.  0.
        -12    1    1    2    0    0  0.97510989861E+01  0.15710323750E+02 -0.29634139278E+01  0.18726452571E+02  0.00000000000E+00 0.  1.
         11    1    3    3    0    0 -0.59533147559E+01 -0.34746346944E+02 -0.56251000952E+01  0.35698632101E+02  0.51100000000E-03 0. -1.
        -11    1    3    3    0    0 -0.14728034107E+02  0.89498986109E+01 -0.35133026382E+01  0.17588603398E+02  0.51100000000E-03 0.  1.
         12    1    3    3    0    0  0.10930249877E+02  0.10086124583E+02  0.12101816661E+02  0.19174311930E+02  0.00000000000E+00 0. -1.
</event>
<event>
 7    1  0.1826069E-013  0.7246091E+02  0.7816164E-02  0.1226710E+00
        -11   -1    0    0    0    0  0.00000000000E+00  0.00000000000E+00  0.45593999997E+02  0.45594000000E+02  0.51100000000E-03 0. -1.
         11   -1    0    0    0    0 -0.00000000000E+00 -0.00000000000E+00 -0.45593999997E+02  0.45594000000E+02  0.51100000000E-03 0.  1.
    9900012    2    1    2    0    0  0.10327003393E+02  0.57320329012E+01  0.14532747900E+02  0.72460908347E+02  0.69999137685E+02 0.  0.
        -12    1    1    2    0    0 -0.10327003393E+02 -0.57320329012E+01 -0.14532747900E+02  0.18727091653E+02  0.00000000000E+00 0.  1.
         11    1    3    3    0    0  0.22562595263E+01 -0.19400871044E+02  0.16820097307E+02  0.25775961243E+02  0.51100000000E-03 0. -1.
        -11    1    3    3    0    0  0.95780109238E+01  0.19881649599E+02 -0.18988296301E+02  0.29113118704E+02  0.51100000000E-03 0.  1.
        -12    1    3    3    0    0 -0.15072670571E+01  0.52512543458E+01  0.16700946893E+02  0.17571828400E+02  0.00000000000E+00 0.  1.
</event>
<event>
 7    1  0.1826069E-013  0.7246166E+02  0.7816164E-02  0.1226708E+00
        -11   -1    0    0    0    0  0.00000000000E+00  0.00000000000E+00  0.45593999997E+02  0.45594000000E+02  0.51100000000E-03 0.  1.
         11   -1    0    0    0    0 -0.00000000000E+00 -0.00000000000E+00 -0.45593999997E+02  0.45594000000E+02  0.51100000000E-03 0. -1.
    9900012    2    1    2    0    0  0.13104384285E+02 -0.11971365960E+02 -0.59696878980E+01  0.72461663892E+02  0.70000121928E+02 0.  0.
        -12    1    1    2    0    0 -0.13104384285E+02  0.11971365960E+02  0.59696878980E+01  0.18726336108E+02  0.00000000000E+00 0.  1.
         11    1    3    3    0    0  0.17629516942E+02 -0.58874481977E+01 -0.15354788449E+00  0.18587240008E+02  0.51100000000E-03 0. -1.
        -11    1    3    3    0    0 -0.21686575213E+02 -0.21406884542E+02 -0.47750318287E+01  0.30844175779E+02  0.51100000000E-03 0.  1.
        -12    1    3    3    0    0  0.17161442555E+02  0.15322966779E+02 -0.10411081848E+01  0.23030248105E+02  0.00000000000E+00 0.  1.
</event>
<event>
 7    1  0.1826069E-013  0.7246158E+02  0.7816164E-02  0.1226708E+00
        -11   -1    0    0    0    0  0.00000000000E+00  0.00000000000E+00  0.45593999997E+02  0.45594000000E+02  0.51100000000E-03 0.  1.
         11   -1    0    0    0    0 -0.00000000000E+00 -0.00000000000E+00 -0.45593999997E+02  0.45594000000E+02  0.51100000000E-03 0. -1.
    9900012    2    1    2    0    0 -0.55328901740E+00  0.52547777392E+01 -0.17965527206E+02  0.72461575205E+02  0.70000006397E+02 0.  0.
        -12    1    1    2    0    0  0.55328901740E+00 -0.52547777392E+01  0.17965527206E+02  0.18726424795E+02  0.00000000000E+00 0.  1.
         11    1    3    3    0    0 -0.16470898374E+02 -0.22869950770E+02 -0.22992092386E+02  0.36372537085E+02  0.51100000000E-03 0. -1.
        -11    1    3    3    0    0  0.12464216577E+02  0.28643821088E+02  0.17290439694E+01  0.31286015641E+02  0.51100000000E-03 0.  1.
        -12    1    3    3    0    0  0.34533927794E+01 -0.51909257830E+00  0.32975212110E+01  0.48030224787E+01  0.00000000000E+00 0.  1.
</event>
<event>
 7    1  0.1826069E-013  0.7246158E+02  0.7816164E-02  0.1226708E+00
        -11   -1    0    0    0    0  0.00000000000E+00  0.00000000000E+00  0.45593999997E+02  0.45594000000E+02  0.51100000000E-03 0.  1.
         11   -1    0    0    0    0 -0.00000000000E+00 -0.00000000000E+00 -0.45593999997E+02  0.45594000000E+02  0.51100000000E-03 0. -1.
    9900012    2    1    2    0    0  0.50636177425E+01  0.92210782705E+01 -0.15492263018E+02  0.72461582229E+02  0.70000015547E+02 0.  0.
        -12    1    1    2    0    0 -0.50636177425E+01 -0.92210782705E+01  0.15492263018E+02  0.18726417771E+02  0.00000000000E+00 0.  1.
         11    1    3    3    0    0 -0.27295012843E+02 -0.12466246812E+02 -0.95405473067E+01  0.31487252641E+02  0.51100000000E-03 0.  1.
        -11    1    3    3    0    0  0.20127436443E+02  0.10307286116E+02 -0.83316108787E+01  0.24099161499E+02  0.51100000000E-03 0. -1.
        -12    1    3    3    0    0  0.12231194143E+02  0.11380038966E+02  0.23798951674E+01  0.16875168089E+02  0.00000000000E+00 0.  1.
</event>
<event>
 7    1  0.1826069E-013  0.7246093E+02  0.7816164E-02  0.1226710E+00
        -11   -1    0    0    0    0  0.00000000000E+00  0.00000000000E+00  0.45593999997E+02  0.45594000000E+02  0.51100000000E-03 0. -1.
         11   -1    0    0    0    0 -0.00000000000E+00 -0.00000000000E+00 -0.45593999997E+02  0.45594000000E+02  0.51100000000E-03 0.  1.
    9900012    2    1    2    0    0 -0.33409625335E+01 -0.17924014558E+02  0.42744409761E+01  0.72460929376E+02  0.69999165079E+02 0.  0.
        -12    1    1    2    0    0  0.33409625335E+01  0.17924014558E+02 -0.42744409761E+01  0.18727070624E+02  0.00000000000E+00 0.  1.
         11    1    3    3    0    0  0.24752207374E+02 -0.61519925397E+01 -0.22297046386E+00  0.25506244298E+02  0.51100000000E-03 0. -1.
        -11    1    3    3    0    0 -0.18866697135E+02  0.60630800969E+01  0.14466857518E+02  0.24535752847E+02  0.51100000000E-03 0.  1.
         12    1    3    3    0    0 -0.92264727725E+01 -0.17835102115E+02 -0.99694460779E+01  0.22418932231E+02  0.00000000000E+00 0. -1.
</event>
<event>
 7    1  0.1826069E-013  0.7246158E+02  0.7816164E-02  0.1226708E+00
        -11   -1    0    0    0    0  0.00000000000E+00  0.00000000000E+00  0.45593999997E+02  0.45594000000E+02  0.51100000000E-03 0.  1.
         11   -1    0    0    0    0 -0.00000000000E+00 -0.00000000000E+00 -0.45593999997E+02  0.45594000000E+02  0.51100000000E-03 0. -1.
    9900012    2    1    2    0    0 -0.15709829856E+02 -0.85676076614E+01  0.55205059462E+01  0.72461584405E+02  0.70000018382E+02 0.  0.
        -12    1    1    2    0    0  0.15709829856E+02  0.85676076614E+01 -0.55205059462E+01  0.18726415595E+02  0.00000000000E+00 0.  1.
         11    1    3    3    0    0  0.11722679764E+02  0.26900341524E+01 -0.10320317562E+01  0.12071561390E+02  0.51100000000E-03 0. -1.
        -11    1    3    3    0    0 -0.30047637412E+02 -0.14574915516E+02 -0.16292154126E+02  0.37158080718E+02  0.51100000000E-03 0.  1.
        -12    1    3    3    0    0  0.26151277923E+01  0.33172737020E+01  0.22844691828E+02  0.23231942297E+02  0.00000000000E+00 0.  1.
</event>
<event>
 7    1  0.1826069E-013  0.7246158E+02  0.7816164E-02  0.1226708E+00
        -11   -1    0    0    0    0  0.00000000000E+00  0.00000000000E+00  0.45593999997E+02  0.45594000000E+02  0.51100000000E-03 0.  1.
         11   -1    0    0    0    0 -0.00000000000E+00 -0.00000000000E+00 -0.45593999997E+02  0.45594000000E+02  0.51100000000E-03 0. -1.
    9900012    2    1    2    0    0  0.15417277415E+02 -0.87437315542E+01 -0.60442870923E+01  0.72461583075E+02  0.70000016650E+02 0.  0.
        -12    1    1    2    0    0 -0.15417277415E+02  0.87437315542E+01  0.60442870923E+01  0.18726416925E+02  0.00000000000E+00 0.  1.
         11    1    3    3    0    0 -0.17813962013E+02  0.84211485071E+01  0.56644147537E+00  0.19712276403E+02  0.51100000000E-03 0. -1.
        -11    1    3    3    0    0  0.38957100114E+02 -0.20968011188E+02 -0.16498169559E+01  0.44272282962E+02  0.51100000000E-03 0.  1.
        -12    1    3    3    0    0 -0.57258606862E+01  0.38031311268E+01 -0.49609116118E+01  0.84770237103E+01  0.00000000000E+00 0.  1.
</event>
<event>
 7    1  0.1826069E-013  0.7246160E+02  0.7816164E-02  0.1226708E+00
        -11   -1    0    0    0    0  0.00000000000E+00  0.00000000000E+00  0.45593999997E+02  0.45594000000E+02  0.51100000000E-03 0.  1.
         11   -1    0    0    0    0 -0.00000000000E+00 -0.00000000000E+00 -0.45593999997E+02  0.45594000000E+02  0.51100000000E-03 0. -1.
    9900012    2    1    2    0    0  0.97047678315E+01  0.16013518057E+02 -0.25028151973E+00  0.72461603656E+02  0.70000043459E+02 0.  0.
        -12    1    1    2    0    0 -0.97047678315E+01 -0.16013518057E+02  0.25028151973E+00  0.18726396344E+02  0.00000000000E+00 0.  1.
         11    1    3    3    0    0  0.26607264176E+02  0.18288336326E+01  0.49690605663E+01  0.27129001135E+02  0.51100000000E-03 0. -1.
        -11    1    3    3    0    0 -0.13957012397E+02  0.14588605473E+02  0.14838214320E+02  0.25055901683E+02  0.51100000000E-03 0.  1.
         12    1    3    3    0    0 -0.29454839478E+01 -0.40392104919E+00 -0.20057556406E+02  0.20276700838E+02  0.00000000000E+00 0. -1.
</event>
<event>
 7    1  0.1826069E-013  0.7246160E+02  0.7816164E-02  0.1226708E+00
        -11   -1    0    0    0    0  0.00000000000E+00  0.00000000000E+00  0.45593999997E+02  0.45594000000E+02  0.51100000000E-03 0.  1.
         11   -1    0    0    0    0 -0.00000000000E+00 -0.00000000000E+00 -0.45593999997E+02  0.45594000000E+02  0.51100000000E-03 0. -1.
    9900012    2    1    2    0    0  0.18352654026E+02  0.29061427118E+01 -0.23264347840E+01  0.72461604883E+02  0.70000045058E+02 0.  0.
        -12    1    1    2    0    0 -0.18352654026E+02 -0.29061427118E+01  0.23264347840E+01  0.18726395117E+02  0.00000000000E+00 0.  1.
         11    1    3    3    0    0 -0.70009760360E+01  0.11229458169E+02 -0.10340697395E+02  0.16794178132E+02  0.51100000000E-03 0. -1.
        -11    1    3    3    0    0  0.19985308035E+02 -0.19912132501E+02 -0.13010576813E+02  0.31067356941E+02  0.51100000000E-03 0.  1.
        -12    1    3    3    0    0  0.53683220271E+01  0.11588817044E+02  0.21024839425E+02  0.24600069811E+02  0.00000000000E+00 0.  1.
</event>
<event>
 7    1  0.1826069E-013  0.7246156E+02  0.7816164E-02  0.1226708E+00
        -11   -1    0    0    0    0  0.00000000000E+00  0.00000000000E+00  0.45593999997E+02  0.45594000000E+02  0.51100000000E-03 0.  1.
         11   -1    0    0    0    0 -0.00000000000E+00 -0.00000000000E+00 -0.45593999997E+02  0.45594000000E+02  0.51100000000E-03 0. -1.
    9900012    2    1    2    0    0  0.40994810848E+00 -0.13786325397E+02 -0.12666835744E+02  0.72461560051E+02  0.69999986656E+02 0.  0.
        -12    1    1    2    0    0 -0.40994810848E+00  0.13786325397E+02  0.12666835744E+02  0.18726439949E+02  0.00000000000E+00 0.  1.
         11    1    3    3    0    0 -0.68759991504E+01 -0.29359647234E+02  0.69683635822E+01  0.30948769625E+02  0.51100000000E-03 0. -1.
        -11    1    3    3    0    0  0.10767035369E+02  0.16083479886E+02 -0.27075852258E+02  0.33282264822E+02  0.51100000000E-03 0.  1.
        -12    1    3    3    0    0 -0.34810881105E+01 -0.51015804941E+00  0.74406529316E+01  0.82305256040E+01  0.00000000000E+00 0.  1.
</event>
<event>
 7    1  0.1826069E-013  0.7246153E+02  0.7816164E-02  0.1226708E+00
        -11   -1    0    0    0    0  0.00000000000E+00  0.00000000000E+00  0.45593999997E+02  0.45594000000E+02  0.51100000000E-03 0. -1.
         11   -1    0    0    0    0 -0.00000000000E+00 -0.00000000000E+00 -0.45593999997E+02  0.45594000000E+02  0.51100000000E-03 0.  1.
    9900012    2    1    2    0    0 -0.94974939039E+01 -0.12112677646E+02  0.10665892968E+02  0.72461531486E+02  0.69999949445E+02 0.  0.
        -12    1    1    2    0    0  0.94974939039E+01  0.12112677646E+02 -0.10665892968E+02  0.18726468514E+02  0.00000000000E+00 0.  1.
         11    1    3    3    0    0 -0.30764600318E+02 -0.11183052436E+02  0.91687885444E+00  0.32746938202E+02  0.51100000000E-03 0. -1.
        -11    1    3    3    0    0  0.21270326121E+02 -0.13505423831E+02  0.10072958809E+02  0.27134622636E+02  0.51100000000E-03 0.  1.
        -12    1    3    3    0    0 -0.32197072516E-02  0.12575798621E+02 -0.32394469596E+00  0.12579970648E+02  0.00000000000E+00 0.  1.
</event>
<event>
 7    1  0.1826069E-013  0.7246151E+02  0.7816164E-02  0.1226708E+00
        -11   -1    0    0    0    0  0.00000000000E+00  0.00000000000E+00  0.45593999997E+02  0.45594000000E+02  0.51100000000E-03 0.  1.
         11   -1    0    0    0    0 -0.00000000000E+00 -0.00000000000E+00 -0.45593999997E+02  0.45594000000E+02  0.51100000000E-03 0. -1.
    9900012    2    1    2    0    0 -0.17239759687E+02 -0.21775039181E+01  0.69807370808E+01  0.72461507334E+02  0.69999917982E+02 0.  0.
        -12    1    1    2    0    0  0.17239759687E+02  0.21775039181E+01 -0.69807370808E+01  0.18726492666E+02  0.00000000000E+00 0.  1.
         11    1    3    3    0    0 -0.63063664673E+01 -0.19303201811E+01  0.66570878239E+01  0.93708704279E+01  0.51100000000E-03 0. -1.
        -11    1    3    3    0    0  0.20636362049E+02  0.75238333291E+01  0.15825076496E+02  0.27072136098E+02  0.51100000000E-03 0.  1.
        -12    1    3    3    0    0 -0.31569755269E+02 -0.77710170661E+01 -0.15501427239E+02  0.36018500807E+02  0.00000000000E+00 0.  1.
</event>
<event>
 7    1  0.1826069E-013  0.7246152E+02  0.7816164E-02  0.1226708E+00
        -11   -1    0    0    0    0  0.00000000000E+00  0.00000000000E+00  0.45593999997E+02  0.45594000000E+02  0.51100000000E-03 0.  1.
         11   -1    0    0    0    0 -0.00000000000E+00 -0.00000000000E+00 -0.45593999997E+02  0.45594000000E+02  0.51100000000E-03 0. -1.
    9900012    2    1    2    0    0  0.13847135416E+02  0.26687112801E+01 -0.12321360566E+02  0.72461518608E+02  0.69999932669E+02 0.  0.
        -12    1    1    2    0    0 -0.13847135416E+02 -0.26687112801E+01  0.12321360566E+02  0.18726481392E+02  0.00000000000E+00 0.  1.
         11    1    3    3    0    0 -0.22769193283E+02 -0.10002684856E+02 -0.11923556831E+01  0.24898023604E+02  0.51100000000E-03 0.  1.
        -11    1    3    3    0    0  0.24636597321E+02  0.23659282115E+01  0.47049607031E+01  0.25193177635E+02  0.51100000000E-03 0. -1.
         12    1    3    3    0    0  0.11979731377E+02  0.10305467924E+02 -0.15833965586E+02  0.22370317369E+02  0.00000000000E+00 0. -1.
</event>
<event>
 7    1  0.1826069E-013  0.7246165E+02  0.7816164E-02  0.1226708E+00
        -11   -1    0    0    0    0  0.00000000000E+00  0.00000000000E+00  0.45593999997E+02  0.45594000000E+02  0.51100000000E-03 0. -1.
         11   -1    0    0    0    0 -0.00000000000E+00 -0.00000000000E+00 -0.45593999997E+02  0.45594000000E+02  0.51100000000E-03 0.  1.
    9900012    2    1    2    0    0  0.18504925365E+01  0.42767037689E+01  0.18137297507E+02  0.72461652822E+02  0.70000107508E+02 0.  0.
        -12    1    1    2    0    0 -0.18504925365E+01 -0.42767037689E+01 -0.18137297507E+02  0.18726347178E+02  0.00000000000E+00 0.  1.
         11    1    3    3    0    0 -0.15544083124E+02 -0.46251009580E+01 -0.18456839145E+02  0.24569594839E+02  0.51100000000E-03 0. -1.
        -11    1    3    3    0    0  0.12682221247E+02  0.45943290287E+01  0.31601943867E+01  0.13854003891E+02  0.51100000000E-03 0.  1.
         12    1    3    3    0    0  0.47123544140E+01  0.43074756983E+01  0.33433942266E+02  0.34038054093E+02  0.00000000000E+00 0. -1.
</event>
<event>
 7    1  0.1826069E-013  0.7246169E+02  0.7816164E-02  0.1226708E+00
        -11   -1    0    0    0    0  0.00000000000E+00  0.00000000000E+00  0.45593999997E+02  0.45594000000E+02  0.51100000000E-03 0. -1.
         11   -1    0    0    0    0 -0.00000000000E+00 -0.00000000000E+00 -0.45593999997E+02  0.45594000000E+02  0.51100000000E-03 0.  1.
    9900012    2    1    2    0    0 -0.11967033413E+02  0.13255822257E+02  0.56345309678E+01  0.72461690923E+02  0.70000157142E+02 0.  0.
        -12    1    1    2    0    0  0.11967033413E+02 -0.13255822257E+02 -0.56345309678E+01  0.18726309077E+02  0.00000000000E+00 0.  1.
         11    1    3    3    0    0  0.14365114886E+02 -0.21226994382E+02  0.11566425658E+02  0.28119815415E+02  0.51100000000E-03 0. -1.
        -11    1    3    3    0    0 -0.15854800495E+02  0.19871334084E+02 -0.39936567310E-01  0.25421373138E+02  0.51100000000E-03 0.  1.
         12    1    3    3    0    0 -0.10477347803E+02  0.14611482555E+02 -0.58919581233E+01  0.18920502371E+02  0.00000000000E+00 0. -1.
</event>
<event>
 7    1  0.1826069E-013  0.7246170E+02  0.7816164E-02  0.1226708E+00
        -11   -1    0    0    0    0  0.00000000000E+00  0.00000000000E+00  0.45593999997E+02  0.45594000000E+02  0.51100000000E-03 0.  1.
         11   -1    0    0    0    0 -0.00000000000E+00 -0.00000000000E+00 -0.45593999997E+02  0.45594000000E+02  0.51100000000E-03 0. -1.
    9900012    2    1    2    0    0  0.37923917225E+01 -0.19194838301E+01 -0.18237536742E+02  0.72461697653E+02  0.70000165909E+02 0.  0.
        -12    1    1    2    0    0 -0.37923917225E+01  0.19194838301E+01  0.18237536742E+02  0.18726302347E+02  0.00000000000E+00 0.  1.
         11    1    3    3    0    0  0.27562987531E+00  0.57005341790E+01 -0.43465144297E+02  0.43838234805E+02  0.51100000000E-03 0. -1.
        -11    1    3    3    0    0  0.45594856499E+01 -0.99593170913E+01  0.20041645520E+02  0.22839537249E+02  0.51100000000E-03 0.  1.
         12    1    3    3    0    0 -0.10427238027E+01  0.23392990822E+01  0.51859620344E+01  0.57839256000E+01  0.00000000000E+00 0. -1.
</event>
<event>
 7    1  0.1826069E-013  0.7246159E+02  0.7816164E-02  0.1226708E+00
        -11   -1    0    0    0    0  0.00000000000E+00  0.00000000000E+00  0.45593999997E+02  0.45594000000E+02  0.51100000000E-03 0.  1.
         11   -1    0    0    0    0 -0.00000000000E+00 -0.00000000000E+00 -0.45593999997E+02  0.45594000000E+02  0.51100000000E-03 0. -1.
    9900012    2    1    2    0    0 -0.12808185406E+02 -0.92893447290E+01  0.10016821593E+02  0.72461594747E+02  0.70000031854E+02 0.  0.
        -12    1    1    2    0    0  0.12808185406E+02  0.92893447290E+01 -0.10016821593E+02  0.18726405253E+02  0.00000000000E+00 0.  1.
         11    1    3    3    0    0  0.19464216990E+00 -0.16011947998E+02 -0.21351572164E+01  0.16154852549E+02  0.51100000000E-03 0. -1.
        -11    1    3    3    0    0  0.15314044793E+02  0.12197727376E+02  0.18320477790E+02  0.26813139088E+02  0.51100000000E-03 0.  1.
        -12    1    3    3    0    0 -0.28316872369E+02 -0.54751241066E+01 -0.61684989808E+01  0.29493603110E+02  0.00000000000E+00 0.  1.
</event>
<event>
 7    1  0.1826069E-013  0.7246125E+02  0.7816164E-02  0.1226709E+00
        -11   -1    0    0    0    0  0.00000000000E+00  0.00000000000E+00  0.45593999997E+02  0.45594000000E+02  0.51100000000E-03 0.  1.
         11   -1    0    0    0    0 -0.00000000000E+00 -0.00000000000E+00 -0.45593999997E+02  0.45594000000E+02  0.51100000000E-03 0. -1.
    9900012    2    1    2    0    0 -0.54225258682E+01 -0.14937069994E+02 -0.99081516546E+01  0.72461245983E+02  0.69999577523E+02 0.  0.
        -12    1    1    2    0    0  0.54225258682E+01  0.14937069994E+02  0.99081516546E+01  0.18726754017E+02  0.00000000000E+00 0.  1.
         11    1    3    3    0    0  0.16476489871E+02 -0.20984180029E+02  0.17600260212E+02  0.31962160279E+02  0.51100000000E-03 0.  1.
        -11    1    3    3    0    0 -0.20752930302E+02  0.10323084334E+02 -0.15989335631E+02  0.28158640600E+02  0.51100000000E-03 0. -1.
        -12    1    3    3    0    0 -0.11460854371E+01 -0.42759742989E+01 -0.11519076236E+02  0.12340445104E+02  0.00000000000E+00 0.  1.
</event>
<event>
 7    1  0.1826069E-013  0.7246159E+02  0.7816164E-02  0.1226708E+00
        -11   -1    0    0    0    0  0.00000000000E+00  0.00000000000E+00  0.45593999997E+02  0.45594000000E+02  0.51100000000E-03 0.  1.
         11   -1    0    0    0    0 -0.00000000000E+00 -0.00000000000E+00 -0.45593999997E+02  0.45594000000E+02  0.51100000000E-03 0. -1.
    9900012    2    1    2    0    0 -0.74147281016E+01 -0.93985597368E+01 -0.14400254580E+02  0.72461589508E+02  0.70000025030E+02 0.  0.
        -12    1    1    2    0    0  0.74147281016E+01  0.93985597368E+01  0.14400254580E+02  0.18726410492E+02  0.00000000000E+00 0.  1.
         11    1    3    3    0    0 -0.21627478082E+02 -0.89365910313E+00  0.18418730454E+02  0.28421753404E+02  0.51100000000E-03 0. -1.
        -11    1    3    3    0    0  0.47335722792E+01 -0.11922420838E+01  0.33635815170E+01  0.59280543681E+01  0.51100000000E-03 0.  1.
         12    1    3    3    0    0  0.94791777007E+01 -0.73126585499E+01 -0.36182566550E+02  0.38111781736E+02  0.00000000000E+00 0. -1.
</event>
<event>
 7    1  0.1826069E-013  0.7246161E+02  0.7816164E-02  0.1226708E+00
        -11   -1    0    0    0    0  0.00000000000E+00  0.00000000000E+00  0.45593999997E+02  0.45594000000E+02  0.51100000000E-03 0.  1.
         11   -1    0    0    0    0 -0.00000000000E+00 -0.00000000000E+00 -0.45593999997E+02  0.45594000000E+02  0.51100000000E-03 0. -1.
    9900012    2    1    2    0    0  0.40245233619E+01 -0.12676587134E+02 -0.13182752485E+02  0.72461611861E+02  0.70000054148E+02 0.  0.
        -12    1    1    2    0    0 -0.40245233619E+01  0.12676587134E+02  0.13182752485E+02  0.18726388139E+02  0.00000000000E+00 0.  1.
         11    1    3    3    0    0  0.28014759069E+02 -0.17107859181E+02 -0.20048230736E+01  0.32886545688E+02  0.51100000000E-03 0. -1.
        -11    1    3    3    0    0 -0.24010325911E+02  0.13691200401E+02 -0.41482679596E+01  0.27949111723E+02  0.51100000000E-03 0.  1.
         12    1    3    3    0    0  0.20090203247E-01 -0.92599283541E+01 -0.70296614521E+01  0.11625954450E+02  0.00000000000E+00 0. -1.
</event>
<event>
 7    1  0.1826069E-013  0.7246159E+02  0.7816164E-02  0.1226708E+00
        -11   -1    0    0    0    0  0.00000000000E+00  0.00000000000E+00  0.45593999997E+02  0.45594000000E+02  0.51100000000E-03 0.  1.
         11   -1    0    0    0    0 -0.00000000000E+00 -0.00000000000E+00 -0.45593999997E+02  0.45594000000E+02  0.51100000000E-03 0. -1.
    9900012    2    1    2    0    0 -0.17241571773E+02 -0.31141845695E+01  0.66112519511E+01  0.72461585631E+02  0.70000019979E+02 0.  0.
        -12    1    1    2    0    0  0.17241571773E+02  0.31141845695E+01 -0.66112519511E+01  0.18726414369E+02  0.00000000000E+00 0.  1.
         11    1    3    3    0    0 -0.10273847567E+02 -0.30926568186E+02  0.15215119683E+01  0.32623910902E+02  0.51100000000E-03 0. -1.
        -11    1    3    3    0    0  0.22354360580E+01  0.14057170507E+02  0.14893850535E+02  0.20601650445E+02  0.51100000000E-03 0.  1.
         12    1    3    3    0    0 -0.92031602647E+01  0.13755213110E+02 -0.98041105523E+01  0.19236024285E+02  0.00000000000E+00 0. -1.
</event>
<event>
 7    1  0.1826069E-013  0.7246195E+02  0.7816164E-02  0.1226707E+00
        -11   -1    0    0    0    0  0.00000000000E+00  0.00000000000E+00  0.45593999997E+02  0.45594000000E+02  0.51100000000E-03 0.  1.
         11   -1    0    0    0    0 -0.00000000000E+00 -0.00000000000E+00 -0.45593999997E+02  0.45594000000E+02  0.51100000000E-03 0. -1.
    9900012    2    1    2    0    0  0.18143010903E+02 -0.17694261869E+01  0.42854472343E+01  0.72461954725E+02  0.70000500790E+02 0.  0.
        -12    1    1    2    0    0 -0.18143010903E+02  0.17694261869E+01 -0.42854472343E+01  0.18726045275E+02  0.00000000000E+00 0.  1.
         11    1    3    3    0    0  0.73102359872E+01 -0.23124805885E+02  0.13671499317E+02  0.27840727204E+02  0.51100000000E-03 0. -1.
        -11    1    3    3    0    0 -0.11929729928E+02  0.14058125332E+02 -0.94481677604E+01  0.20717558213E+02  0.51100000000E-03 0.  1.
        -12    1    3    3    0    0  0.22762504843E+02  0.72972543659E+01  0.62115678015E-01  0.23903669308E+02  0.00000000000E+00 0.  1.
</event>
<event>
 7    1  0.1826069E-013  0.7246156E+02  0.7816164E-02  0.1226708E+00
        -11   -1    0    0    0    0  0.00000000000E+00  0.00000000000E+00  0.45593999997E+02  0.45594000000E+02  0.51100000000E-03 0.  1.
         11   -1    0    0    0    0 -0.00000000000E+00 -0.00000000000E+00 -0.45593999997E+02  0.45594000000E+02  0.51100000000E-03 0. -1.
    9900012    2    1    2    0    0  0.40633490407E+01  0.16073409934E+02 -0.87071323833E+01  0.72461562360E+02  0.69999989664E+02 0.  0.
        -12    1    1    2    0    0 -0.40633490407E+01 -0.16073409934E+02  0.87071323833E+01  0.18726437640E+02  0.00000000000E+00 0.  1.
         11    1    3    3    0    0  0.23676672148E+02  0.19899085875E+02 -0.22028085212E+02  0.37970975245E+02  0.51100000000E-03 0. -1.
        -11    1    3    3    0    0  0.60257881996E+00  0.41534646964E+01  0.12004659981E+02  0.12717162881E+02  0.51100000000E-03 0.  1.
         12    1    3    3    0    0 -0.20215901927E+02 -0.79791406374E+01  0.13162928472E+01  0.21773424234E+02  0.00000000000E+00 0. -1.
</event>
<event>
 7    1  0.1826069E-013  0.7246170E+02  0.7816164E-02  0.1226708E+00
        -11   -1    0    0    0    0  0.00000000000E+00  0.00000000000E+00  0.45593999997E+02  0.45594000000E+02  0.51100000000E-03 0.  1.
         11   -1    0    0    0    0 -0.00000000000E+00 -0.00000000000E+00 -0.45593999997E+02  0.45594000000E+02  0.51100000000E-03 0. -1.
    9900012    2    1    2    0    0 -0.98250700722E+00 -0.18395466823E+02 -0.33638873646E+01  0.72461701438E+02  0.70000170838E+02 0.  0.
        -12    1    1    2    0    0  0.98250700722E+00  0.18395466823E+02  0.33638873646E+01  0.18726298562E+02  0.00000000000E+00 0.  1.
         11    1    3    3    0    0  0.24196410963E+02 -0.13808503814E+02 -0.24826380434E+02  0.37316085631E+02  0.51100000000E-03 0. -1.
        -11    1    3    3    0    0 -0.14070063420E+02  0.28912080453E+01  0.98103881986E+01  0.17394524583E+02  0.51100000000E-03 0.  1.
         12    1    3    3    0    0 -0.11108854551E+02 -0.74781710538E+01  0.11652104871E+02  0.17751091224E+02  0.00000000000E+00 0. -1.
</event>
<event>
 7    1  0.1826069E-013  0.7246160E+02  0.7816164E-02  0.1226708E+00
        -11   -1    0    0    0    0  0.00000000000E+00  0.00000000000E+00  0.45593999997E+02  0.45594000000E+02  0.51100000000E-03 0.  1.
         11   -1    0    0    0    0 -0.00000000000E+00 -0.00000000000E+00 -0.45593999997E+02  0.45594000000E+02  0.51100000000E-03 0. -1.
    9900012    2    1    2    0    0 -0.79691006166E+01  0.10988978100E+02 -0.12900148736E+02  0.72461600406E+02  0.70000039227E+02 0.  0.
        -12    1    1    2    0    0  0.79691006166E+01 -0.10988978100E+02  0.12900148736E+02  0.18726399594E+02  0.00000000000E+00 0.  1.
         11    1    3    3    0    0  0.85475111033E+01 -0.12344613337E+02 -0.29503105584E+02  0.33104118533E+02  0.51100000000E-03 0. -1.
        -11    1    3    3    0    0 -0.16405698937E+02  0.47558886479E+01  0.72191383418E+01  0.18544039287E+02  0.51100000000E-03 0.  1.
         12    1    3    3    0    0 -0.11091278313E+00  0.18577702789E+02  0.93838185054E+01  0.20813442586E+02  0.00000000000E+00 0. -1.
</event>
<event>
 7    1  0.1826069E-013  0.7246196E+02  0.7816164E-02  0.1226707E+00
        -11   -1    0    0    0    0  0.00000000000E+00  0.00000000000E+00  0.45593999997E+02  0.45594000000E+02  0.51100000000E-03 0.  1.
         11   -1    0    0    0    0 -0.00000000000E+00 -0.00000000000E+00 -0.45593999997E+02  0.45594000000E+02  0.51100000000E-03 0. -1.
    9900012    2    1    2    0    0 -0.23014745866E+01  0.13206102005E+02  0.13075422239E+02  0.72461959784E+02  0.70000507381E+02 0.  0.
        -12    1    1    2    0    0  0.23014745866E+01 -0.13206102005E+02 -0.13075422239E+02  0.18726040216E+02  0.00000000000E+00 0.  1.
         11    1    3    3    0    0  0.14460933212E+02  0.22832989439E+02  0.15214489496E+02  0.31015233144E+02  0.51100000000E-03 0. -1.
        -11    1    3    3    0    0  0.85961581234E+00 -0.14062139684E+02 -0.13908042710E+02  0.19796877636E+02  0.51100000000E-03 0.  1.
         12    1    3    3    0    0 -0.17622023611E+02  0.44352522502E+01  0.11768975453E+02  0.21649849004E+02  0.00000000000E+00 0. -1.
</event>
<event>
 7    1  0.1826069E-013  0.7246150E+02  0.7816164E-02  0.1226708E+00
        -11   -1    0    0    0    0  0.00000000000E+00  0.00000000000E+00  0.45593999997E+02  0.45594000000E+02  0.51100000000E-03 0. -1.
         11   -1    0    0    0    0 -0.00000000000E+00 -0.00000000000E+00 -0.45593999997E+02  0.45594000000E+02  0.51100000000E-03 0.  1.
    9900012    2    1    2    0    0 -0.15556593135E+02 -0.56960981566E+01  0.87308993794E+01  0.72461501978E+02  0.69999911006E+02 0.  0.
        -12    1    1    2    0    0  0.15556593135E+02  0.56960981566E+01 -0.87308993794E+01  0.18726498022E+02  0.00000000000E+00 0.  1.
         11    1    3    3    0    0 -0.14567758500E+01 -0.33391777415E+01  0.15283158884E+02  0.15711373257E+02  0.51100000000E-03 0. -1.
        -11    1    3    3    0    0 -0.10235298126E+02  0.19519859264E+02 -0.20843026328E+02  0.30335094861E+02  0.51100000000E-03 0.  1.
        -12    1    3    3    0    0 -0.38645191596E+01 -0.21876779679E+02  0.14290766823E+02  0.26415033861E+02  0.00000000000E+00 0.  1.
</event>
<event>
 7    1  0.1826069E-013  0.7246157E+02  0.7816164E-02  0.1226708E+00
        -11   -1    0    0    0    0  0.00000000000E+00  0.00000000000E+00  0.45593999997E+02  0.45594000000E+02  0.51100000000E-03 0.  1.
         11   -1    0    0    0    0 -0.00000000000E+00 -0.00000000000E+00 -0.45593999997E+02  0.45594000000E+02  0.51100000000E-03 0. -1.
    9900012    2    1    2    0    0  0.37460236513E+01  0.45575929111E+01 -0.17772871023E+02  0.72461567058E+02  0.69999995784E+02 0.  0.
        -12    1    1    2    0    0 -0.37460236513E+01 -0.45575929111E+01  0.17772871023E+02  0.18726432942E+02  0.00000000000E+00 0.  1.
         11    1    3    3    0    0 -0.92750177927E+01 -0.38984568656E+01  0.67487897175E+01  0.12114870362E+02  0.51100000000E-03 0. -1.
        -11    1    3    3    0    0 -0.52064591359E+01 -0.95484983687E+00 -0.36305563252E+02  0.36689410982E+02  0.51100000000E-03 0.  1.
        -12    1    3    3    0    0  0.18227500580E+02  0.94108996136E+01  0.11783902511E+02  0.23657285713E+02  0.00000000000E+00 0.  1.
</event>
<event>
 7    1  0.1826069E-013  0.7246169E+02  0.7816164E-02  0.1226708E+00
        -11   -1    0    0    0    0  0.00000000000E+00  0.00000000000E+00  0.45593999997E+02  0.45594000000E+02  0.51100000000E-03 0.  1.
         11   -1    0    0    0    0 -0.00000000000E+00 -0.00000000000E+00 -0.45593999997E+02  0.45594000000E+02  0.51100000000E-03 0. -1.
    9900012    2    1    2    0    0  0.11273256685E+02 -0.76477650894E+01 -0.12849125775E+02  0.72461690691E+02  0.70000156839E+02 0.  0.
        -12    1    1    2    0    0 -0.11273256685E+02  0.76477650894E+01  0.12849125775E+02  0.18726309309E+02  0.00000000000E+00 0.  1.
         11    1    3    3    0    0  0.32767276249E+02 -0.17716808728E+02 -0.76495011939E+01  0.38027550184E+02  0.51100000000E-03 0. -1.
        -11    1    3    3    0    0 -0.18818188438E+02  0.30472591293E+01 -0.13407502807E+02  0.23306032182E+02  0.51100000000E-03 0.  1.
        -12    1    3    3    0    0 -0.26758311255E+01  0.70217845090E+01  0.82078782260E+01  0.11128108324E+02  0.00000000000E+00 0.  1.
</event>
<event>
 7    1  0.1826069E-013  0.7246160E+02  0.7816164E-02  0.1226708E+00
        -11   -1    0    0    0    0  0.00000000000E+00  0.00000000000E+00  0.45593999997E+02  0.45594000000E+02  0.51100000000E-03 0. -1.
         11   -1    0    0    0    0 -0.00000000000E+00 -0.00000000000E+00 -0.45593999997E+02  0.45594000000E+02  0.51100000000E-03 0.  1.
    9900012    2    1    2    0    0 -0.11499005203E+02 -0.17197730686E+01  0.14679692156E+02  0.72461598801E+02  0.70000037135E+02 0.  0.
        -12    1    1    2    0    0  0.11499005203E+02  0.17197730686E+01 -0.14679692156E+02  0.18726401199E+02  0.00000000000E+00 0.  1.
         11    1    3    3    0    0  0.14230915647E+02 -0.37158497964E+01 -0.62624663959E+01  0.15985774472E+02  0.51100000000E-03 0. -1.
        -11    1    3    3    0    0 -0.25294499193E+02  0.21027732725E+02  0.93868023321E+01  0.34206567955E+02  0.51100000000E-03 0.  1.
        -12    1    3    3    0    0 -0.43542165689E+00 -0.19031655998E+02  0.11555356220E+02  0.22269256373E+02  0.00000000000E+00 0.  1.
</event>
<event>
 7    1  0.1826069E-013  0.7246155E+02  0.7816164E-02  0.1226708E+00
        -11   -1    0    0    0    0  0.00000000000E+00  0.00000000000E+00  0.45593999997E+02  0.45594000000E+02  0.51100000000E-03 0. -1.
         11   -1    0    0    0    0 -0.00000000000E+00 -0.00000000000E+00 -0.45593999997E+02  0.45594000000E+02  0.51100000000E-03 0.  1.
    9900012    2    1    2    0    0  0.93268724178E+01 -0.34055460103E+01  0.15877395958E+02  0.72461548250E+02  0.69999971283E+02 0.  0.
        -12    1    1    2    0    0 -0.93268724178E+01  0.34055460103E+01 -0.15877395958E+02  0.18726451750E+02  0.00000000000E+00 0.  1.
         11    1    3    3    0    0 -0.13310007439E+02 -0.10175007656E+02  0.43527648065E+01  0.17309928958E+02  0.51100000000E-03 0. -1.
        -11    1    3    3    0    0  0.25968189948E+02 -0.99256236656E+00  0.27029227755E+02  0.37495482695E+02  0.51100000000E-03 0.  1.
        -12    1    3    3    0    0 -0.33313100914E+01  0.77620240124E+01 -0.15504596603E+02  0.17656136597E+02  0.00000000000E+00 0.  1.
</event>
<event>
 7    1  0.1826069E-013  0.7246224E+02  0.7816164E-02  0.1226706E+00
        -11   -1    0    0    0    0  0.00000000000E+00  0.00000000000E+00  0.45593999997E+02  0.45594000000E+02  0.51100000000E-03 0. -1.
         11   -1    0    0    0    0 -0.00000000000E+00 -0.00000000000E+00 -0.45593999997E+02  0.45594000000E+02  0.51100000000E-03 0.  1.
    9900012    2    1    2    0    0 -0.11341472980E+02  0.13583223181E+02  0.61254372191E+01  0.72462243874E+02  0.70000877458E+02 0.  0.
        -12    1    1    2    0    0  0.11341472980E+02 -0.13583223181E+02 -0.61254372191E+01  0.18725756126E+02  0.00000000000E+00 0.  1.
         11    1    3    3    0    0 -0.67225216791E+01 -0.11181053474E+02  0.19496050017E+02  0.23458563917E+02  0.51100000000E-03 0. -1.
        -11    1    3    3    0    0 -0.89406349228E+01  0.32531901986E+02 -0.97734979933E+00  0.33752256406E+02  0.51100000000E-03 0.  1.
        -12    1    3    3    0    0  0.43216836214E+01 -0.77676253305E+01 -0.12393262998E+02  0.15251423551E+02  0.00000000000E+00 0.  1.
</event>
<event>
 7    1  0.1826069E-013  0.7246156E+02  0.7816164E-02  0.1226708E+00
        -11   -1    0    0    0    0  0.00000000000E+00  0.00000000000E+00  0.45593999997E+02  0.45594000000E+02  0.51100000000E-03 0.  1.
         11   -1    0    0    0    0 -0.00000000000E+00 -0.00000000000E+00 -0.45593999997E+02  0.45594000000E+02  0.51100000000E-03 0. -1.
    9900012    2    1    2    0    0  0.94771604206E+01 -0.12166510116E+02 -0.10622578379E+02  0.72461555878E+02  0.69999981219E+02 0.  0.
        -12    1    1    2    0    0 -0.94771604206E+01  0.12166510116E+02  0.10622578379E+02  0.18726444122E+02  0.00000000000E+00 0.  1.
         11    1    3    3    0    0 -0.11484621859E+02 -0.50682418465E+01 -0.35110132596E+02  0.37286794255E+02  0.51100000000E-03 0. -1.
        -11    1    3    3    0    0  0.42823213460E+01 -0.11538898676E-01  0.13074288525E+02  0.13757740729E+02  0.51100000000E-03 0.  1.
         12    1    3    3    0    0  0.16679460934E+02 -0.70867293712E+01  0.11413265692E+02  0.21417020894E+02  0.00000000000E+00 0. -1.
</event>
<event>
 7    1  0.1826069E-013  0.7246150E+02  0.7816164E-02  0.1226708E+00
        -11   -1    0    0    0    0  0.00000000000E+00  0.00000000000E+00  0.45593999997E+02  0.45594000000E+02  0.51100000000E-03 0. -1.
         11   -1    0    0    0    0 -0.00000000000E+00 -0.00000000000E+00 -0.45593999997E+02  0.45594000000E+02  0.51100000000E-03 0.  1.
    9900012    2    1    2    0    0  0.12105297968E+01  0.12970072145E+02  0.13453393998E+02  0.72461495684E+02  0.69999902807E+02 0.  0.
        -12    1    1    2    0    0 -0.12105297968E+01 -0.12970072145E+02 -0.13453393998E+02  0.18726504316E+02  0.00000000000E+00 0.  1.
         11    1    3    3    0    0 -0.21118517049E+02 -0.90794783312E+00  0.25380089277E+02  0.33029760271E+02  0.51100000000E-03 0. -1.
        -11    1    3    3    0    0  0.12257784212E+02 -0.67915538534E+01 -0.79070706179E+01  0.16090377358E+02  0.51100000000E-03 0.  1.
         12    1    3    3    0    0  0.10071262634E+02  0.20669573831E+02 -0.40196246619E+01  0.23341358055E+02  0.00000000000E+00 0. -1.
</event>
<event>
 7    1  0.1826069E-013  0.7246150E+02  0.7816164E-02  0.1226708E+00
        -11   -1    0    0    0    0  0.00000000000E+00  0.00000000000E+00  0.45593999997E+02  0.45594000000E+02  0.51100000000E-03 0.  1.
         11   -1    0    0    0    0 -0.00000000000E+00 -0.00000000000E+00 -0.45593999997E+02  0.45594000000E+02  0.51100000000E-03 0. -1.
    9900012    2    1    2    0    0  0.15033914643E+02 -0.94676853955E+01  0.59182858019E+01  0.72461501046E+02  0.69999909791E+02 0.  0.
        -12    1    1    2    0    0 -0.15033914643E+02  0.94676853955E+01 -0.59182858019E+01  0.18726498954E+02  0.00000000000E+00 0.  1.
         11    1    3    3    0    0  0.99823666263E+01  0.12142160714E+01 -0.26051745275E+02  0.27925174955E+02  0.51100000000E-03 0. -1.
        -11    1    3    3    0    0  0.13817430330E+02 -0.52653060673E+01  0.30800233445E+02  0.34165760776E+02  0.51100000000E-03 0.  1.
         12    1    3    3    0    0 -0.87658823129E+01 -0.54165953996E+01  0.11697976316E+01  0.10370565315E+02  0.00000000000E+00 0. -1.
</event>
<event>
 7    1  0.1826069E-013  0.7246160E+02  0.7816164E-02  0.1226708E+00
        -11   -1    0    0    0    0  0.00000000000E+00  0.00000000000E+00  0.45593999997E+02  0.45594000000E+02  0.51100000000E-03 0.  1.
         11   -1    0    0    0    0 -0.00000000000E+00 -0.00000000000E+00 -0.45593999997E+02  0.45594000000E+02  0.51100000000E-03 0. -1.
    9900012    2    1    2    0    0  0.32069035234E+01  0.17938873957E+02  0.43116927467E+01  0.72461598226E+02  0.70000036386E+02 0.  0.
        -12    1    1    2    0    0 -0.32069035234E+01 -0.17938873957E+02 -0.43116927467E+01  0.18726401774E+02  0.00000000000E+00 0.  1.
         11    1    3    3    0    0 -0.70323654957E+01 -0.11791648363E+02 -0.10254534409E+02  0.17136295159E+02  0.51100000000E-03 0. -1.
        -11    1    3    3    0    0  0.10290262319E+02 -0.12157709030E+01  0.21271356154E+02  0.23660900033E+02  0.51100000000E-03 0.  1.
         12    1    3    3    0    0 -0.50993299727E-01  0.30946293223E+02 -0.67051289987E+01  0.31664403034E+02  0.00000000000E+00 0. -1.
</event>
<event>
 7    1  0.1826069E-013  0.7246157E+02  0.7816164E-02  0.1226708E+00
        -11   -1    0    0    0    0  0.00000000000E+00  0.00000000000E+00  0.45593999997E+02  0.45594000000E+02  0.51100000000E-03 0.  1.
         11   -1    0    0    0    0 -0.00000000000E+00 -0.00000000000E+00 -0.45593999997E+02  0.45594000000E+02  0.51100000000E-03 0. -1.
    9900012    2    1    2    0    0 -0.86561351486E+01 -0.15616187457E+02 -0.56466926776E+01  0.72461571494E+02  0.70000001562E+02 0.  0.
        -12    1    1    2    0    0  0.86561351486E+01  0.15616187457E+02  0.56466926776E+01  0.18726428506E+02  0.00000000000E+00 0.  1.
         11    1    3    3    0    0 -0.24241770392E+02 -0.29158524825E+02 -0.12701133111E+02  0.39990021059E+02  0.51100000000E-03 0. -1.
        -11    1    3    3    0    0  0.12382942957E+02  0.16759308584E+02 -0.33636204318E+01  0.21107478371E+02  0.51100000000E-03 0.  1.
        -12    1    3    3    0    0  0.32026922871E+01 -0.32169712168E+01  0.10418060865E+02  0.11364072064E+02  0.00000000000E+00 0.  1.
</event>
<event>
 7    1  0.1826069E-013  0.7246152E+02  0.7816164E-02  0.1226708E+00
        -11   -1    0    0    0    0  0.00000000000E+00  0.00000000000E+00  0.45593999997E+02  0.45594000000E+02  0.51100000000E-03 0. -1.
         11   -1    0    0    0    0 -0.00000000000E+00 -0.00000000000E+00 -0.45593999997E+02  0.45594000000E+02  0.51100000000E-03 0.  1.
    9900012    2    1    2    0    0  0.96169477847E+01 -0.15307138068E+02  0.48874129637E+01  0.72461522328E+02  0.69999937515E+02 0.  0.
        -12    1    1    2    0    0 -0.96169477847E+01  0.15307138068E+02 -0.48874129637E+01  0.18726477672E+02  0.00000000000E+00 0.  1.
         11    1    3    3    0    0  0.22641466276E+02 -0.12438753238E+02  0.80198850962E+01  0.27049531132E+02  0.51100000000E-03 0. -1.
        -11    1    3    3    0    0 -0.92382007949E+01 -0.95437425104E+01 -0.21631618751E+02  0.25384134909E+02  0.51100000000E-03 0.  1.
         12    1    3    3    0    0 -0.37863176959E+01  0.66753576808E+01  0.18499146618E+02  0.20027856287E+02  0.00000000000E+00 0. -1.
</event>
<event>
 7    1  0.1879750E-013  0.7246148E+02  0.7816164E-02  0.1226708E+00
        -11   -1    0    0    0    0  0.00000000000E+00  0.00000000000E+00  0.45593999997E+02  0.45594000000E+02  0.51100000000E-03 0. -1.
         11   -1    0    0    0    0 -0.00000000000E+00 -0.00000000000E+00 -0.45593999997E+02  0.45594000000E+02  0.51100000000E-03 0.  1.
    9900012    2    1    2    0    0 -0.74834868921E+01 -0.12910413151E+02  0.11313760374E+02  0.72461480901E+02  0.69999883548E+02 0.  0.
        -12    1    1    2    0    0  0.74834868921E+01  0.12910413151E+02 -0.11313760374E+02  0.18726519099E+02  0.00000000000E+00 0.  1.
         11    1    3    3    0    0  0.47603652149E+00 -0.23933212066E+02 -0.16657175830E+02  0.29163106101E+02  0.51100000000E-03 0. -1.
        -11    1    3    3    0    0  0.57887957450E+01  0.11625013216E+02  0.10067828482E+01  0.13025540312E+02  0.51100000000E-03 0.  1.
         12    1    3    3    0    0 -0.13748319159E+02 -0.60221430093E+00  0.26964153356E+02  0.30272834488E+02  0.00000000000E+00 0. -1.
</event>
<event>
 7    1  0.1826069E-013  0.7246155E+02  0.7816164E-02  0.1226708E+00
        -11   -1    0    0    0    0  0.00000000000E+00  0.00000000000E+00  0.45593999997E+02  0.45594000000E+02  0.51100000000E-03 0. -1.
         11   -1    0    0    0    0 -0.00000000000E+00 -0.00000000000E+00 -0.45593999997E+02  0.45594000000E+02  0.51100000000E-03 0.  1.
    9900012    2    1    2    0    0  0.44483918945E+00 -0.16793654539E+01  0.18645694996E+02  0.72461545661E+02  0.69999967910E+02 0.  0.
        -12    1    1    2    0    0 -0.44483918945E+00  0.16793654539E+01 -0.18645694996E+02  0.18726454339E+02  0.00000000000E+00 0.  1.
         11    1    3    3    0    0 -0.12604705090E+02  0.22373769692E+02  0.91133549990E+01  0.27249172469E+02  0.51100000000E-03 0. -1.
        -11    1    3    3    0    0  0.17788987689E+02 -0.18706670405E+02 -0.73834310971E+01  0.26849630457E+02  0.51100000000E-03 0.  1.
         12    1    3    3    0    0 -0.47394434092E+01 -0.53464647410E+01  0.16915771094E+02  0.18362742735E+02  0.00000000000E+00 0. -1.
</event>
<event>
 7    1  0.1826069E-013  0.7246137E+02  0.7816164E-02  0.1226709E+00
        -11   -1    0    0    0    0  0.00000000000E+00  0.00000000000E+00  0.45593999997E+02  0.45594000000E+02  0.51100000000E-03 0. -1.
         11   -1    0    0    0    0 -0.00000000000E+00 -0.00000000000E+00 -0.45593999997E+02  0.45594000000E+02  0.51100000000E-03 0.  1.
    9900012    2    1    2    0    0  0.17670571814E+02 -0.55790827552E+01  0.27039915139E+01  0.72461365419E+02  0.69999733111E+02 0.  0.
        -12    1    1    2    0    0 -0.17670571814E+02  0.55790827552E+01 -0.27039915139E+01  0.18726634581E+02  0.00000000000E+00 0.  1.
         11    1    3    3    0    0 -0.45389031402E+01 -0.10882992615E+02 -0.11504492029E+02  0.16474055575E+02  0.51100000000E-03 0.  1.
        -11    1    3    3    0    0  0.28381675465E+02  0.11858496118E+02 -0.82034723854E+01  0.31834578555E+02  0.51100000000E-03 0. -1.
        -12    1    3    3    0    0 -0.61722005101E+01 -0.65545862580E+01  0.22411955929E+02  0.24152731289E+02  0.00000000000E+00 0.  1.
</event>
<event>
 7    1  0.1826069E-013  0.7246156E+02  0.7816164E-02  0.1226708E+00
        -11   -1    0    0    0    0  0.00000000000E+00  0.00000000000E+00  0.45593999997E+02  0.45594000000E+02  0.51100000000E-03 0.  1.
         11   -1    0    0    0    0 -0.00000000000E+00 -0.00000000000E+00 -0.45593999997E+02  0.45594000000E+02  0.51100000000E-03 0. -1.
    9900012    2    1    2    0    0  0.10433769978E+02  0.14375571805E+02 -0.59294903589E+01  0.72461562096E+02  0.69999989320E+02 0.  0.
        -12    1    1    2    0    0 -0.10433769978E+02 -0.14375571805E+02  0.59294903589E+01  0.18726437904E+02  0.00000000000E+00 0.  1.
         11    1    3    3    0    0 -0.22144901881E+02  0.70263839861E+01 -0.20753406131E+01  0.23325389390E+02  0.51100000000E-03 0. -1.
        -11    1    3    3    0    0  0.24366565441E+02 -0.12403150226E+02 -0.46287201341E+01  0.27730717576E+02  0.51100000000E-03 0.  1.
         12    1    3    3    0    0  0.82121064180E+01  0.19752338045E+02  0.77457038828E+00  0.21405455130E+02  0.00000000000E+00 0. -1.
</event>
<event>
 7    1  0.1826069E-013  0.7246136E+02  0.7816164E-02  0.1226709E+00
        -11   -1    0    0    0    0  0.00000000000E+00  0.00000000000E+00  0.45593999997E+02  0.45594000000E+02  0.51100000000E-03 0.  1.
         11   -1    0    0    0    0 -0.00000000000E+00 -0.00000000000E+00 -0.45593999997E+02  0.45594000000E+02  0.51100000000E-03 0. -1.
    9900012    2    1    2    0    0 -0.13117922569E+02 -0.11808455202E+02  0.62583918214E+01  0.72461361888E+02  0.69999728512E+02 0.  0.
        -12    1    1    2    0    0  0.13117922569E+02  0.11808455202E+02 -0.62583918214E+01  0.18726638112E+02  0.00000000000E+00 0.  1.
         11    1    3    3    0    0 -0.19581045406E+02 -0.33876213414E+02 -0.68525118334E+01  0.39723696871E+02  0.51100000000E-03 0. -1.
        -11    1    3    3    0    0 -0.64322191123E+01  0.97911585001E+01  0.80959472068E+01  0.14240245395E+02  0.51100000000E-03 0.  1.
         12    1    3    3    0    0  0.12895341950E+02  0.12276599711E+02  0.50149564480E+01  0.18497419621E+02  0.00000000000E+00 0. -1.
</event>
<event>
 7    1  0.1826069E-013  0.7246156E+02  0.7816164E-02  0.1226708E+00
        -11   -1    0    0    0    0  0.00000000000E+00  0.00000000000E+00  0.45593999997E+02  0.45594000000E+02  0.51100000000E-03 0.  1.
         11   -1    0    0    0    0 -0.00000000000E+00 -0.00000000000E+00 -0.45593999997E+02  0.45594000000E+02  0.51100000000E-03 0. -1.
    9900012    2    1    2    0    0  0.12648401048E+02 -0.99944428788E+01  0.95293613304E+01  0.72461557068E+02  0.69999982770E+02 0.  0.
        -12    1    1    2    0    0 -0.12648401048E+02  0.99944428788E+01 -0.95293613304E+01  0.18726442932E+02  0.00000000000E+00 0.  1.
         11    1    3    3    0    0 -0.48926642278E+01  0.27526151402E+02  0.44377044788E+00  0.27961117766E+02  0.51100000000E-03 0. -1.
        -11    1    3    3    0    0  0.11381300089E+02 -0.22901141472E+02 -0.11868194536E+01  0.25600875241E+02  0.51100000000E-03 0.  1.
        -12    1    3    3    0    0  0.61597651871E+01 -0.14619452808E+02  0.10272410336E+02  0.18899564061E+02  0.00000000000E+00 0.  1.
</event>
<event>
 7    1  0.1826069E-013  0.7246164E+02  0.7816164E-02  0.1226708E+00
        -11   -1    0    0    0    0  0.00000000000E+00  0.00000000000E+00  0.45593999997E+02  0.45594000000E+02  0.51100000000E-03 0. -1.
         11   -1    0    0    0    0 -0.00000000000E+00 -0.00000000000E+00 -0.45593999997E+02  0.45594000000E+02  0.51100000000E-03 0.  1.
    9900012    2    1    2    0    0 -0.61023859304E+01  0.15926657051E+02  0.77316998394E+01  0.72461636197E+02  0.70000085850E+02 0.  0.
        -12    1    1    2    0    0  0.61023859304E+01 -0.15926657051E+02 -0.77316998394E+01  0.18726363803E+02  0.00000000000E+00 0.  1.
         11    1    3    3    0    0 -0.16246800947E+02  0.13584169372E+02 -0.11524779144E+02  0.24110344940E+02  0.51100000000E-03 0. -1.
        -11    1    3    3    0    0  0.26610950163E+02  0.10906874952E+01  0.17212488497E+02  0.31711228742E+02  0.51100000000E-03 0.  1.
        -12    1    3    3    0    0 -0.16466535146E+02  0.12518001843E+01  0.20439904862E+01  0.16640062516E+02  0.00000000000E+00 0.  1.
</event>
<event>
 7    1  0.1826069E-013  0.7246157E+02  0.7816164E-02  0.1226708E+00
        -11   -1    0    0    0    0  0.00000000000E+00  0.00000000000E+00  0.45593999997E+02  0.45594000000E+02  0.51100000000E-03 0.  1.
         11   -1    0    0    0    0 -0.00000000000E+00 -0.00000000000E+00 -0.45593999997E+02  0.45594000000E+02  0.51100000000E-03 0. -1.
    9900012    2    1    2    0    0 -0.61397698769E+01 -0.38685416825E+01 -0.17263163851E+02  0.72461569079E+02  0.69999998417E+02 0.  0.
        -12    1    1    2    0    0  0.61397698769E+01  0.38685416825E+01  0.17263163851E+02  0.18726430921E+02  0.00000000000E+00 0.  1.
         11    1    3    3    0    0 -0.12348855829E+02 -0.13607697958E+02 -0.41137857408E+02  0.45055376997E+02  0.51100000000E-03 0. -1.
        -11    1    3    3    0    0 -0.14017408587E+01  0.24905617907E+01  0.64886015617E+01  0.70901146645E+01  0.51100000000E-03 0.  1.
         12    1    3    3    0    0  0.76108268109E+01  0.72485944848E+01  0.17386091996E+02  0.20316077417E+02  0.00000000000E+00 0. -1.
</event>
<event>
 7    1  0.1826069E-013  0.7246157E+02  0.7816164E-02  0.1226708E+00
        -11   -1    0    0    0    0  0.00000000000E+00  0.00000000000E+00  0.45593999997E+02  0.45594000000E+02  0.51100000000E-03 0. -1.
         11   -1    0    0    0    0 -0.00000000000E+00 -0.00000000000E+00 -0.45593999997E+02  0.45594000000E+02  0.51100000000E-03 0.  1.
    9900012    2    1    2    0    0 -0.10970031927E+02 -0.13047849620E+02  0.77518407306E+01  0.72461574423E+02  0.70000005378E+02 0.  0.
        -12    1    1    2    0    0  0.10970031927E+02  0.13047849620E+02 -0.77518407306E+01  0.18726425577E+02  0.00000000000E+00 0.  1.
         11    1    3    3    0    0 -0.57275245624E+01 -0.25913011252E+02 -0.52312018235E+01  0.27049106501E+02  0.51100000000E-03 0. -1.
        -11    1    3    3    0    0 -0.23162295728E+02  0.94832267937E+01  0.99112183620E+01  0.26919431337E+02  0.51100000000E-03 0.  1.
        -12    1    3    3    0    0  0.17919788364E+02  0.33819348382E+01  0.30718241921E+01  0.18493036585E+02  0.00000000000E+00 0.  1.
</event>
<event>
 7    1  0.1826069E-013  0.7246157E+02  0.7816164E-02  0.1226708E+00
        -11   -1    0    0    0    0  0.00000000000E+00  0.00000000000E+00  0.45593999997E+02  0.45594000000E+02  0.51100000000E-03 0. -1.
         11   -1    0    0    0    0 -0.00000000000E+00 -0.00000000000E+00 -0.45593999997E+02  0.45594000000E+02  0.51100000000E-03 0.  1.
    9900012    2    1    2    0    0 -0.67578500198E+01 -0.15733045247E+02  0.75816862747E+01  0.72461569043E+02  0.69999998370E+02 0.  0.
        -12    1    1    2    0    0  0.67578500198E+01  0.15733045247E+02 -0.75816862747E+01  0.18726430957E+02  0.00000000000E+00 0.  1.
         11    1    3    3    0    0 -0.20957383965E+02 -0.25416607797E+02  0.16354593588E+01  0.32983186962E+02  0.51100000000E-03 0. -1.
        -11    1    3    3    0    0  0.48485709434E+01  0.17364543484E+02 -0.90792208960E+01  0.20185843132E+02  0.51100000000E-03 0.  1.
        -12    1    3    3    0    0  0.93509630017E+01 -0.76809809333E+01  0.15025447812E+02  0.19292538949E+02  0.00000000000E+00 0.  1.
</event>
<event>
 7    1  0.1995189E-013  0.7246161E+02  0.7816164E-02  0.1226708E+00
        -11   -1    0    0    0    0  0.00000000000E+00  0.00000000000E+00  0.45593999997E+02  0.45594000000E+02  0.51100000000E-03 0.  1.
         11   -1    0    0    0    0 -0.00000000000E+00 -0.00000000000E+00 -0.45593999997E+02  0.45594000000E+02  0.51100000000E-03 0. -1.
    9900012    2    1    2    0    0  0.50850250420E+01 -0.14292549580E+02 -0.10979217207E+02  0.72461610502E+02  0.70000052378E+02 0.  0.
        -12    1    1    2    0    0 -0.50850250420E+01  0.14292549580E+02  0.10979217207E+02  0.18726389498E+02  0.00000000000E+00 0.  1.
         11    1    3    3    0    0 -0.17678183628E+01 -0.35527509234E+02 -0.65189634428E+01  0.36163876711E+02  0.51100000000E-03 0. -1.
        -11    1    3    3    0    0  0.16108705100E+01  0.12045794658E+02  0.11773738429E+02  0.16920903924E+02  0.51100000000E-03 0.  1.
         12    1    3    3    0    0  0.52419728948E+01  0.91891649960E+01 -0.16233992193E+02  0.19376829867E+02  0.00000000000E+00 0. -1.
</event>
<event>
 7    1  0.1826069E-013  0.7246157E+02  0.7816164E-02  0.1226708E+00
        -11   -1    0    0    0    0  0.00000000000E+00  0.00000000000E+00  0.45593999997E+02  0.45594000000E+02  0.51100000000E-03 0.  1.
         11   -1    0    0    0    0 -0.00000000000E+00 -0.00000000000E+00 -0.45593999997E+02  0.45594000000E+02  0.51100000000E-03 0. -1.
    9900012    2    1    2    0    0 -0.46782613732E+00 -0.11305310118E+02 -0.14921470266E+02  0.72461570200E+02  0.69999999878E+02 0.  0.
        -12    1    1    2    0    0  0.46782613732E+00  0.11305310118E+02  0.14921470266E+02  0.18726429800E+02  0.00000000000E+00 0.  1.
         11    1    3    3    0    0 -0.92295407945E+01 -0.12288187252E+01  0.78647262823E+01  0.12188040798E+02  0.51100000000E-03 0. -1.
        -11    1    3    3    0    0  0.13493248974E+02  0.56296997501E+01 -0.36227450467E+02  0.39066474819E+02  0.51100000000E-03 0.  1.
        -12    1    3    3    0    0 -0.47315343167E+01 -0.15706191142E+02  0.13441253919E+02  0.21207054584E+02  0.00000000000E+00 0.  1.
</event>
<event>
 7    1  0.1826069E-013  0.7246158E+02  0.7816164E-02  0.1226708E+00
        -11   -1    0    0    0    0  0.00000000000E+00  0.00000000000E+00  0.45593999997E+02  0.45594000000E+02  0.51100000000E-03 0. -1.
         11   -1    0    0    0    0 -0.00000000000E+00 -0.00000000000E+00 -0.45593999997E+02  0.45594000000E+02  0.51100000000E-03 0.  1.
    9900012    2    1    2    0    0 -0.16401873954E+02 -0.32397174064E+01  0.84357389553E+01  0.72461576695E+02  0.70000008338E+02 0.  0.
        -12    1    1    2    0    0  0.16401873954E+02  0.32397174064E+01 -0.84357389553E+01  0.18726423305E+02  0.00000000000E+00 0.  1.
         11    1    3    3    0    0 -0.30743275860E+01 -0.15133868543E+02 -0.48459801079E+01  0.16185456146E+02  0.51100000000E-03 0. -1.
        -11    1    3    3    0    0  0.18588310182E+02  0.95133084024E+01  0.12345747032E+02  0.24257901438E+02  0.51100000000E-03 0.  1.
        -12    1    3    3    0    0 -0.31915856549E+02  0.23808427340E+01  0.93597203155E+00  0.32018219111E+02  0.00000000000E+00 0.  1.
</event>
<event>
 7    1  0.1826069E-013  0.7246158E+02  0.7816164E-02  0.1226708E+00
        -11   -1    0    0    0    0  0.00000000000E+00  0.00000000000E+00  0.45593999997E+02  0.45594000000E+02  0.51100000000E-03 0.  1.
         11   -1    0    0    0    0 -0.00000000000E+00 -0.00000000000E+00 -0.45593999997E+02  0.45594000000E+02  0.51100000000E-03 0. -1.
    9900012    2    1    2    0    0 -0.12385626951E+02 -0.65075754507E+01 -0.12446942361E+02  0.72461583702E+02  0.70000017466E+02 0.  0.
        -12    1    1    2    0    0  0.12385626951E+02  0.65075754507E+01  0.12446942361E+02  0.18726416298E+02  0.00000000000E+00 0.  1.
         11    1    3    3    0    0  0.24537480559E+02 -0.12098882665E+02 -0.15795397049E+02  0.31590591671E+02  0.51100000000E-03 0. -1.
        -11    1    3    3    0    0 -0.22109359577E+02 -0.37655119100E+01  0.58343772603E+01  0.23174184325E+02  0.51100000000E-03 0.  1.
         12    1    3    3    0    0 -0.14813747933E+02  0.93568191246E+01 -0.24859225730E+01  0.17696807706E+02  0.00000000000E+00 0. -1.
</event>
<event>
 7    1  0.1826069E-013  0.7246150E+02  0.7816164E-02  0.1226708E+00
        -11   -1    0    0    0    0  0.00000000000E+00  0.00000000000E+00  0.45593999997E+02  0.45594000000E+02  0.51100000000E-03 0.  1.
         11   -1    0    0    0    0 -0.00000000000E+00 -0.00000000000E+00 -0.45593999997E+02  0.45594000000E+02  0.51100000000E-03 0. -1.
    9900012    2    1    2    0    0  0.14022120230E+02 -0.10660571046E+02 -0.63572228993E+01  0.72461497022E+02  0.69999904549E+02 0.  0.
        -12    1    1    2    0    0 -0.14022120230E+02  0.10660571046E+02  0.63572228993E+01  0.18726502978E+02  0.00000000000E+00 0.  1.
         11    1    3    3    0    0  0.27160727564E+02  0.10811276511E+02 -0.16358654801E+02  0.33499170270E+02  0.51100000000E-03 0. -1.
        -11    1    3    3    0    0 -0.88841606840E+01 -0.10386946889E+02  0.19461149646E+02  0.23781365027E+02  0.51100000000E-03 0.  1.
         12    1    3    3    0    0 -0.42544466497E+01 -0.11084900668E+02 -0.94597177440E+01  0.15180961725E+02  0.00000000000E+00 0. -1.
</event>
<event>
 7    1  0.1826069E-013  0.7246156E+02  0.7816164E-02  0.1226708E+00
        -11   -1    0    0    0    0  0.00000000000E+00  0.00000000000E+00  0.45593999997E+02  0.45594000000E+02  0.51100000000E-03 0. -1.
         11   -1    0    0    0    0 -0.00000000000E+00 -0.00000000000E+00 -0.45593999997E+02  0.45594000000E+02  0.51100000000E-03 0.  1.
    9900012    2    1    2    0    0  0.99093417868E+01 -0.96945672239E+01 -0.12589667485E+02  0.72461563721E+02  0.69999991437E+02 0.  0.
        -12    1    1    2    0    0 -0.99093417868E+01  0.96945672239E+01  0.12589667485E+02  0.18726436279E+02  0.00000000000E+00 0.  1.
         11    1    3    3    0    0 -0.41329961945E+01  0.10724917063E+02  0.21883608277E+02  0.24718369992E+02  0.51100000000E-03 0. -1.
        -11    1    3    3    0    0  0.26090598611E+01 -0.21358153959E+02 -0.21329543055E+02  0.30297315740E+02  0.51100000000E-03 0.  1.
         12    1    3    3    0    0  0.11433278120E+02  0.93866967157E+00 -0.13143732708E+02  0.17445877989E+02  0.00000000000E+00 0. -1.
</event>
<event>
 7    1  0.1826069E-013  0.7246161E+02  0.7816164E-02  0.1226708E+00
        -11   -1    0    0    0    0  0.00000000000E+00  0.00000000000E+00  0.45593999997E+02  0.45594000000E+02  0.51100000000E-03 0.  1.
         11   -1    0    0    0    0 -0.00000000000E+00 -0.00000000000E+00 -0.45593999997E+02  0.45594000000E+02  0.51100000000E-03 0. -1.
    9900012    2    1    2    0    0  0.12564103027E+02 -0.69721064027E+01 -0.12008783439E+02  0.72461606000E+02  0.70000046513E+02 0.  0.
        -12    1    1    2    0    0 -0.12564103027E+02  0.69721064027E+01  0.12008783439E+02  0.18726394000E+02  0.00000000000E+00 0.  1.
         11    1    3    3    0    0 -0.13320452723E+02 -0.47936294449E+01 -0.24992638031E+02  0.28723601794E+02  0.51100000000E-03 0. -1.
        -11    1    3    3    0    0  0.26256872087E+02 -0.56344010505E+01 -0.33278935160E+01  0.27060020002E+02  0.51100000000E-03 0.  1.
         12    1    3    3    0    0 -0.37231633768E+00  0.34559240927E+01  0.16311748108E+02  0.16677984204E+02  0.00000000000E+00 0. -1.
</event>
<event>
 7    1  0.1826069E-013  0.7246162E+02  0.7816164E-02  0.1226708E+00
        -11   -1    0    0    0    0  0.00000000000E+00  0.00000000000E+00  0.45593999997E+02  0.45594000000E+02  0.51100000000E-03 0. -1.
         11   -1    0    0    0    0 -0.00000000000E+00 -0.00000000000E+00 -0.45593999997E+02  0.45594000000E+02  0.51100000000E-03 0.  1.
    9900012    2    1    2    0    0  0.34250733892E+01  0.50124799535E+01  0.17715001174E+02  0.72461618887E+02  0.70000063301E+02 0.  0.
        -12    1    1    2    0    0 -0.34250733892E+01 -0.50124799535E+01 -0.17715001174E+02  0.18726381113E+02  0.00000000000E+00 0.  1.
         11    1    3    3    0    0  0.18152174596E+02 -0.26487724904E+02  0.17281759389E+02  0.36465877488E+02  0.51100000000E-03 0. -1.
        -11    1    3    3    0    0 -0.34346562865E+01  0.55755665734E+01 -0.35343100204E+01  0.74414483806E+01  0.51100000000E-03 0.  1.
         12    1    3    3    0    0 -0.11292444920E+02  0.25924638284E+02  0.39675518050E+01  0.28554293018E+02  0.00000000000E+00 0. -1.
</event>
<event>
 7    1  0.1826069E-013  0.7246168E+02  0.7816164E-02  0.1226708E+00
        -11   -1    0    0    0    0  0.00000000000E+00  0.00000000000E+00  0.45593999997E+02  0.45594000000E+02  0.51100000000E-03 0. -1.
         11   -1    0    0    0    0 -0.00000000000E+00 -0.00000000000E+00 -0.45593999997E+02  0.45594000000E+02  0.51100000000E-03 0.  1.
    9900012    2    1    2    0    0  0.13092976622E+02  0.68007650282E+01  0.11532508253E+02  0.72461676591E+02  0.70000138472E+02 0.  0.
        -12    1    1    2    0    0 -0.13092976622E+02 -0.68007650282E+01 -0.11532508253E+02  0.18726323409E+02  0.00000000000E+00 0.  1.
         11    1    3    3    0    0 -0.14286070473E+02 -0.20534912286E+02 -0.20378502833E+01  0.25098351862E+02  0.51100000000E-03 0. -1.
        -11    1    3    3    0    0  0.12702046162E+02  0.25283957387E+02  0.16480459470E+01  0.28343192014E+02  0.51100000000E-03 0.  1.
        -12    1    3    3    0    0  0.14677000933E+02  0.20517199274E+01  0.11922312589E+02  0.19020132716E+02  0.00000000000E+00 0.  1.
</event>
<event>
 7    1  0.1826069E-013  0.7246160E+02  0.7816164E-02  0.1226708E+00
        -11   -1    0    0    0    0  0.00000000000E+00  0.00000000000E+00  0.45593999997E+02  0.45594000000E+02  0.51100000000E-03 0. -1.
         11   -1    0    0    0    0 -0.00000000000E+00 -0.00000000000E+00 -0.45593999997E+02  0.45594000000E+02  0.51100000000E-03 0.  1.
    9900012    2    1    2    0    0  0.95494303581E+01  0.85552101311E+01  0.13648986428E+02  0.72461599623E+02  0.70000038207E+02 0.  0.
        -12    1    1    2    0    0 -0.95494303581E+01 -0.85552101311E+01 -0.13648986428E+02  0.18726400377E+02  0.00000000000E+00 0.  1.
         11    1    3    3    0    0 -0.18976616990E+02  0.24838306731E+02  0.70523894926E+01  0.32043558970E+02  0.51100000000E-03 0. -1.
        -11    1    3    3    0    0  0.23723416759E+02 -0.21694695805E+01 -0.67254090468E+00  0.23831899054E+02  0.51100000000E-03 0.  1.
         12    1    3    3    0    0  0.48026305885E+01 -0.14113627019E+02  0.72691378402E+01  0.16586141599E+02  0.00000000000E+00 0. -1.
</event>
<event>
 7    1  0.1826069E-013  0.7246157E+02  0.7816164E-02  0.1226708E+00
        -11   -1    0    0    0    0  0.00000000000E+00  0.00000000000E+00  0.45593999997E+02  0.45594000000E+02  0.51100000000E-03 0.  1.
         11   -1    0    0    0    0 -0.00000000000E+00 -0.00000000000E+00 -0.45593999997E+02  0.45594000000E+02  0.51100000000E-03 0. -1.
    9900012    2    1    2    0    0 -0.96906315495E+01 -0.15909246090E+02  0.19149010179E+01  0.72461566894E+02  0.69999995570E+02 0.  0.
        -12    1    1    2    0    0  0.96906315495E+01  0.15909246090E+02 -0.19149010179E+01  0.18726433106E+02  0.00000000000E+00 0.  1.
         11    1    3    3    0    0 -0.15048435277E+02 -0.22529545743E+02  0.79326152687E+01  0.28230519317E+02  0.51100000000E-03 0.  1.
        -11    1    3    3    0    0  0.11602117704E+01  0.24441677781E+02 -0.81672850228E+01  0.25796244862E+02  0.51100000000E-03 0. -1.
         12    1    3    3    0    0  0.41975919568E+01 -0.17821378128E+02  0.21495707721E+01  0.18434802714E+02  0.00000000000E+00 0. -1.
</event>
<event>
 7    1  0.1826069E-013  0.7246128E+02  0.7816164E-02  0.1226709E+00
        -11   -1    0    0    0    0  0.00000000000E+00  0.00000000000E+00  0.45593999997E+02  0.45594000000E+02  0.51100000000E-03 0.  1.
         11   -1    0    0    0    0 -0.00000000000E+00 -0.00000000000E+00 -0.45593999997E+02  0.45594000000E+02  0.51100000000E-03 0. -1.
    9900012    2    1    2    0    0 -0.17080907035E+02  0.28760755586E+01  0.71176561109E+01  0.72461275133E+02  0.69999615496E+02 0.  0.
        -12    1    1    2    0    0  0.17080907035E+02 -0.28760755586E+01 -0.71176561109E+01  0.18726724867E+02  0.00000000000E+00 0.  1.
         11    1    3    3    0    0 -0.18080381014E+02 -0.70493600608E+01 -0.14572112678E+01  0.19460655689E+02  0.51100000000E-03 0. -1.
        -11    1    3    3    0    0  0.29751440872E+01  0.30648105045E+02  0.87196188919E+00  0.30804514978E+02  0.51100000000E-03 0.  1.
        -12    1    3    3    0    0 -0.19756701075E+01 -0.20722669426E+02  0.77029054895E+01  0.22196104466E+02  0.00000000000E+00 0.  1.
</event>
<event>
 7    1  0.1826069E-013  0.7246161E+02  0.7816164E-02  0.1226708E+00
        -11   -1    0    0    0    0  0.00000000000E+00  0.00000000000E+00  0.45593999997E+02  0.45594000000E+02  0.51100000000E-03 0.  1.
         11   -1    0    0    0    0 -0.00000000000E+00 -0.00000000000E+00 -0.45593999997E+02  0.45594000000E+02  0.51100000000E-03 0. -1.
    9900012    2    1    2    0    0 -0.15535840664E+02 -0.92061288083E+01 -0.49560534103E+01  0.72461611716E+02  0.70000053959E+02 0.  0.
        -12    1    1    2    0    0  0.15535840664E+02  0.92061288083E+01  0.49560534103E+01  0.18726388284E+02  0.00000000000E+00 0.  1.
         11    1    3    3    0    0 -0.10481702314E+02  0.22876816605E+02 -0.83228806596E+01  0.26504436688E+02  0.51100000000E-03 0. -1.
        -11    1    3    3    0    0  0.94393431842E+01 -0.20309150191E+02  0.11974253767E+02  0.25395777893E+02  0.51100000000E-03 0.  1.
        -12    1    3    3    0    0 -0.14493481534E+02 -0.11773795223E+02 -0.86074265178E+01  0.20561397136E+02  0.00000000000E+00 0.  1.
</event>
<event>
 7    1  0.1826069E-013  0.7246153E+02  0.7816164E-02  0.1226708E+00
        -11   -1    0    0    0    0  0.00000000000E+00  0.00000000000E+00  0.45593999997E+02  0.45594000000E+02  0.51100000000E-03 0. -1.
         11   -1    0    0    0    0 -0.00000000000E+00 -0.00000000000E+00 -0.45593999997E+02  0.45594000000E+02  0.51100000000E-03 0.  1.
    9900012    2    1    2    0    0 -0.33101366332E+01 -0.12132530677E+02  0.13875354486E+02  0.72461527634E+02  0.69999944427E+02 0.  0.
        -12    1    1    2    0    0  0.33101366332E+01  0.12132530677E+02 -0.13875354486E+02  0.18726472366E+02  0.00000000000E+00 0.  1.
         11    1    3    3    0    0 -0.31883752901E+01  0.18987914220E+02  0.74563803205E+01  0.20647136149E+02  0.51100000000E-03 0. -1.
        -11    1    3    3    0    0  0.11734487218E+02 -0.30152292592E+02 -0.77934858930E+01  0.33280585353E+02  0.51100000000E-03 0.  1.
         12    1    3    3    0    0 -0.11856248561E+02 -0.96815230472E+00  0.14212460059E+02  0.18533806132E+02  0.00000000000E+00 0. -1.
</event>
<event>
 7    1  0.1826069E-013  0.7246155E+02  0.7816164E-02  0.1226708E+00
        -11   -1    0    0    0    0  0.00000000000E+00  0.00000000000E+00  0.45593999997E+02  0.45594000000E+02  0.51100000000E-03 0.  1.
         11   -1    0    0    0    0 -0.00000000000E+00 -0.00000000000E+00 -0.45593999997E+02  0.45594000000E+02  0.51100000000E-03 0. -1.
    9900012    2    1    2    0    0 -0.55887088658E+01 -0.56928993920E+01 -0.16942167166E+02  0.72461553499E+02  0.69999978121E+02 0.  0.
        -12    1    1    2    0    0  0.55887088658E+01  0.56928993920E+01  0.16942167166E+02  0.18726446501E+02  0.00000000000E+00 0.  1.
         11    1    3    3    0    0  0.15363585296E+02 -0.25029923339E+02 -0.14191056624E+02  0.32617831073E+02  0.51100000000E-03 0. -1.
        -11    1    3    3    0    0 -0.10970763012E+02  0.18148054553E+02 -0.13490648138E+02  0.25133784286E+02  0.51100000000E-03 0.  1.
         12    1    3    3    0    0 -0.99815311496E+01  0.11889693947E+01  0.10739537596E+02  0.14709938140E+02  0.00000000000E+00 0. -1.
</event>
<event>
 7    1  0.1826069E-013  0.7246157E+02  0.7816164E-02  0.1226708E+00
        -11   -1    0    0    0    0  0.00000000000E+00  0.00000000000E+00  0.45593999997E+02  0.45594000000E+02  0.51100000000E-03 0. -1.
         11   -1    0    0    0    0 -0.00000000000E+00 -0.00000000000E+00 -0.45593999997E+02  0.45594000000E+02  0.51100000000E-03 0.  1.
    9900012    2    1    2    0    0 -0.94121089055E+01  0.14028530084E+02  0.80803273084E+01  0.72461571089E+02  0.70000001035E+02 0.  0.
        -12    1    1    2    0    0  0.94121089055E+01 -0.14028530084E+02 -0.80803273084E+01  0.18726428911E+02  0.00000000000E+00 0.  1.
         11    1    3    3    0    0 -0.64339358144E+00  0.67319199772E+00  0.37068059518E+02  0.37079754306E+02  0.51100000000E-03 0. -1.
        -11    1    3    3    0    0 -0.11759717549E+02  0.93930425597E+01 -0.19095493497E+02  0.24313742565E+02  0.51100000000E-03 0.  1.
         12    1    3    3    0    0  0.29910022247E+01  0.39622955261E+01 -0.98922387126E+01  0.11068074218E+02  0.00000000000E+00 0. -1.
</event>
<event>
 7    1  0.1826069E-013  0.7246158E+02  0.7816164E-02  0.1226708E+00
        -11   -1    0    0    0    0  0.00000000000E+00  0.00000000000E+00  0.45593999997E+02  0.45594000000E+02  0.51100000000E-03 0. -1.
         11   -1    0    0    0    0 -0.00000000000E+00 -0.00000000000E+00 -0.45593999997E+02  0.45594000000E+02  0.51100000000E-03 0.  1.
    9900012    2    1    2    0    0 -0.11450440018E+02  0.97471413016E+01  0.11160624913E+02  0.72461577795E+02  0.70000009771E+02 0.  0.
        -12    1    1    2    0    0  0.11450440018E+02 -0.97471413016E+01 -0.11160624913E+02  0.18726422205E+02  0.00000000000E+00 0.  1.
         11    1    3    3    0    0 -0.51806921343E+01 -0.15856499770E+02 -0.36525311794E+01  0.17076566992E+02  0.51100000000E-03 0. -1.
        -11    1    3    3    0    0 -0.49608641832E+01  0.28665539158E+02 -0.96851239452E+01  0.30661456827E+02  0.51100000000E-03 0.  1.
        -12    1    3    3    0    0 -0.13088837003E+01 -0.30618980862E+01  0.24498280038E+02  0.24723553976E+02  0.00000000000E+00 0.  1.
</event>
<event>
 7    1  0.1826069E-013  0.7246169E+02  0.7816164E-02  0.1226708E+00
        -11   -1    0    0    0    0  0.00000000000E+00  0.00000000000E+00  0.45593999997E+02  0.45594000000E+02  0.51100000000E-03 0.  1.
         11   -1    0    0    0    0 -0.00000000000E+00 -0.00000000000E+00 -0.45593999997E+02  0.45594000000E+02  0.51100000000E-03 0. -1.
    9900012    2    1    2    0    0  0.16668453721E+02 -0.83779319834E+01 -0.16271805665E+01  0.72461686685E+02  0.70000151621E+02 0.  0.
        -12    1    1    2    0    0 -0.16668453721E+02  0.83779319834E+01  0.16271805665E+01  0.18726313315E+02  0.00000000000E+00 0.  1.
         11    1    3    3    0    0  0.12629562334E+01  0.13118420058E+02  0.25298781652E+02  0.28525713954E+02  0.51100000000E-03 0.  1.
        -11    1    3    3    0    0  0.14488908843E+02 -0.26167228110E+02 -0.23995468108E+02  0.38346248791E+02  0.51100000000E-03 0. -1.
        -12    1    3    3    0    0  0.91658864505E+00  0.46708760684E+01 -0.29304941105E+01  0.55897239397E+01  0.00000000000E+00 0.  1.
</event>
<event>
 7    1  0.1826069E-013  0.7246160E+02  0.7816164E-02  0.1226708E+00
        -11   -1    0    0    0    0  0.00000000000E+00  0.00000000000E+00  0.45593999997E+02  0.45594000000E+02  0.51100000000E-03 0. -1.
         11   -1    0    0    0    0 -0.00000000000E+00 -0.00000000000E+00 -0.45593999997E+02  0.45594000000E+02  0.51100000000E-03 0.  1.
    9900012    2    1    2    0    0 -0.12621816556E+02 -0.11979081144E+02 -0.69187823706E+01  0.72461596509E+02  0.70000034149E+02 0.  0.
        -12    1    1    2    0    0  0.12621816556E+02  0.11979081144E+02  0.69187823706E+01  0.18726403491E+02  0.00000000000E+00 0.  1.
         11    1    3    3    0    0 -0.14533669871E+02  0.85812378434E+01 -0.24090524845E+02  0.29414598253E+02  0.51100000000E-03 0. -1.
        -11    1    3    3    0    0  0.13544673009E+02  0.23700382675E+01  0.64676299342E+01  0.15195574538E+02  0.51100000000E-03 0.  1.
         12    1    3    3    0    0 -0.11632819693E+02 -0.22930357255E+02  0.10704112540E+02  0.27851423718E+02  0.00000000000E+00 0. -1.
</event>
<event>
 7    1  0.1826069E-013  0.7246161E+02  0.7816164E-02  0.1226708E+00
        -11   -1    0    0    0    0  0.00000000000E+00  0.00000000000E+00  0.45593999997E+02  0.45594000000E+02  0.51100000000E-03 0.  1.
         11   -1    0    0    0    0 -0.00000000000E+00 -0.00000000000E+00 -0.45593999997E+02  0.45594000000E+02  0.51100000000E-03 0. -1.
    9900012    2    1    2    0    0  0.32365681228E+01  0.15176419544E+02 -0.10482301894E+02  0.72461608559E+02  0.70000049847E+02 0.  0.
        -12    1    1    2    0    0 -0.32365681228E+01 -0.15176419544E+02  0.10482301894E+02  0.18726391441E+02  0.00000000000E+00 0.  1.
         11    1    3    3    0    0  0.22841000876E+01 -0.26505209263E+01  0.20574134002E+01  0.40589807281E+01  0.51100000000E-03 0. -1.
        -11    1    3    3    0    0  0.17231462945E+02  0.37622413778E+02 -0.49666510193E+01  0.41677775329E+02  0.51100000000E-03 0.  1.
        -12    1    3    3    0    0 -0.16278994910E+02 -0.19795473308E+02 -0.75730642752E+01  0.26724852503E+02  0.00000000000E+00 0.  1.
</event>
<event>
 7    1  0.1826069E-013  0.7246155E+02  0.7816164E-02  0.1226708E+00
        -11   -1    0    0    0    0  0.00000000000E+00  0.00000000000E+00  0.45593999997E+02  0.45594000000E+02  0.51100000000E-03 0. -1.
         11   -1    0    0    0    0 -0.00000000000E+00 -0.00000000000E+00 -0.45593999997E+02  0.45594000000E+02  0.51100000000E-03 0.  1.
    9900012    2    1    2    0    0 -0.15959804243E+02 -0.18043865769E+01  0.96285422499E+01  0.72461548434E+02  0.69999971523E+02 0.  0.
        -12    1    1    2    0    0  0.15959804243E+02  0.18043865769E+01 -0.96285422499E+01  0.18726451566E+02  0.00000000000E+00 0.  1.
         11    1    3    3    0    0 -0.44142789843E+01  0.20338321487E+02  0.25963441045E+02  0.33275117595E+02  0.51100000000E-03 0. -1.
        -11    1    3    3    0    0 -0.18828573493E+02 -0.20299405414E+02 -0.10267729252E+02  0.29529769796E+02  0.51100000000E-03 0.  1.
        -12    1    3    3    0    0  0.72830482343E+01 -0.18433026494E+01 -0.60671695432E+01  0.96566610434E+01  0.00000000000E+00 0.  1.
</event>
<event>
 7    1  0.1826069E-013  0.7246157E+02  0.7816164E-02  0.1226708E+00
        -11   -1    0    0    0    0  0.00000000000E+00  0.00000000000E+00  0.45593999997E+02  0.45594000000E+02  0.51100000000E-03 0. -1.
         11   -1    0    0    0    0 -0.00000000000E+00 -0.00000000000E+00 -0.45593999997E+02  0.45594000000E+02  0.51100000000E-03 0.  1.
    9900012    2    1    2    0    0 -0.11614881310E+02 -0.12614418999E+02  0.75266360892E+01  0.72461567201E+02  0.69999995971E+02 0.  0.
        -12    1    1    2    0    0  0.11614881310E+02  0.12614418999E+02 -0.75266360892E+01  0.18726432799E+02  0.00000000000E+00 0.  1.
         11    1    3    3    0    0 -0.29553765490E+02 -0.19717626213E+02  0.24980010631E+02  0.43430528082E+02  0.51100000000E-03 0. -1.
        -11    1    3    3    0    0  0.10063623856E+02 -0.11174551535E+01 -0.13717056942E+02  0.17049424698E+02  0.51100000000E-03 0.  1.
         12    1    3    3    0    0  0.78752603241E+01  0.82206623669E+01 -0.37363175999E+01  0.11981614421E+02  0.00000000000E+00 0. -1.
</event>
<event>
 7    1  0.1826069E-013  0.7246160E+02  0.7816164E-02  0.1226708E+00
        -11   -1    0    0    0    0  0.00000000000E+00  0.00000000000E+00  0.45593999997E+02  0.45594000000E+02  0.51100000000E-03 0. -1.
         11   -1    0    0    0    0 -0.00000000000E+00 -0.00000000000E+00 -0.45593999997E+02  0.45594000000E+02  0.51100000000E-03 0.  1.
    9900012    2    1    2    0    0  0.75876847753E+01 -0.12439104246E+02  0.11763238671E+02  0.72461599953E+02  0.70000038637E+02 0.  0.
        -12    1    1    2    0    0 -0.75876847753E+01  0.12439104246E+02 -0.11763238671E+02  0.18726400047E+02  0.00000000000E+00 0.  1.
         11    1    3    3    0    0  0.65351358447E+01  0.20725639664E+02  0.13462221233E+02  0.25563480608E+02  0.51100000000E-03 0. -1.
        -11    1    3    3    0    0  0.29429341769E+01 -0.36091856890E+02  0.75712157199E+01  0.36994679389E+02  0.51100000000E-03 0.  1.
         12    1    3    3    0    0 -0.18903852463E+01  0.29271129807E+01 -0.92701982822E+01  0.99034399565E+01  0.00000000000E+00 0. -1.
</event>
<event>
 7    1  0.1826069E-013  0.7246185E+02  0.7816164E-02  0.1226707E+00
        -11   -1    0    0    0    0  0.00000000000E+00  0.00000000000E+00  0.45593999997E+02  0.45594000000E+02  0.51100000000E-03 0.  1.
         11   -1    0    0    0    0 -0.00000000000E+00 -0.00000000000E+00 -0.45593999997E+02  0.45594000000E+02  0.51100000000E-03 0. -1.
    9900012    2    1    2    0    0  0.16882378340E+02 -0.76083355127E+01 -0.27870075085E+01  0.72461845068E+02  0.70000357943E+02 0.  0.
        -12    1    1    2    0    0 -0.16882378340E+02  0.76083355127E+01  0.27870075085E+01  0.18726154932E+02  0.00000000000E+00 0.  1.
         11    1    3    3    0    0  0.11831059129E+02 -0.21538660420E+02 -0.19652614026E+02  0.31466062530E+02  0.51100000000E-03 0. -1.
        -11    1    3    3    0    0 -0.76383102929E+00 -0.77678214040E+01  0.16807929453E+02  0.18531836929E+02  0.51100000000E-03 0.  1.
         12    1    3    3    0    0  0.58151502407E+01  0.21698146311E+02  0.57677064714E-01  0.22463945609E+02  0.00000000000E+00 0. -1.
</event>
<event>
 7    1  0.1826069E-013  0.7246157E+02  0.7816164E-02  0.1226708E+00
        -11   -1    0    0    0    0  0.00000000000E+00  0.00000000000E+00  0.45593999997E+02  0.45594000000E+02  0.51100000000E-03 0. -1.
         11   -1    0    0    0    0 -0.00000000000E+00 -0.00000000000E+00 -0.45593999997E+02  0.45594000000E+02  0.51100000000E-03 0.  1.
    9900012    2    1    2    0    0 -0.66910633280E+01 -0.13535305877E+01  0.17437801952E+02  0.72461566532E+02  0.69999995099E+02 0.  0.
        -12    1    1    2    0    0  0.66910633280E+01  0.13535305877E+01 -0.17437801952E+02  0.18726433468E+02  0.00000000000E+00 0.  1.
         11    1    3    3    0    0  0.14529586104E+01 -0.28687078976E+01  0.12128522538E+02  0.12547574783E+02  0.51100000000E-03 0. -1.
        -11    1    3    3    0    0 -0.32993742425E+02  0.76863341569E+01  0.61568253179E+00  0.33882825107E+02  0.51100000000E-03 0.  1.
        -12    1    3    3    0    0  0.24849720487E+02 -0.61711568470E+01  0.46935968823E+01  0.26031166643E+02  0.00000000000E+00 0.  1.
</event>
<event>
 7    1  0.1826069E-013  0.7246155E+02  0.7816164E-02  0.1226708E+00
        -11   -1    0    0    0    0  0.00000000000E+00  0.00000000000E+00  0.45593999997E+02  0.45594000000E+02  0.51100000000E-03 0. -1.
         11   -1    0    0    0    0 -0.00000000000E+00 -0.00000000000E+00 -0.45593999997E+02  0.45594000000E+02  0.51100000000E-03 0.  1.
    9900012    2    1    2    0    0  0.17844247187E+02 -0.54450508203E+01  0.16168418968E+01  0.72461550422E+02  0.69999974112E+02 0.  0.
        -12    1    1    2    0    0 -0.17844247187E+02  0.54450508203E+01 -0.16168418968E+01  0.18726449578E+02  0.00000000000E+00 0.  1.
         11    1    3    3    0    0 -0.10386558791E+02 -0.28846738078E+01 -0.14336590606E+02  0.17937106148E+02  0.51100000000E-03 0. -1.
        -11    1    3    3    0    0  0.38065123589E+02  0.62977141252E+01  0.91945393958E+01  0.39663010375E+02  0.51100000000E-03 0.  1.
         12    1    3    3    0    0 -0.98343176121E+01 -0.88580911377E+01  0.67588931066E+01  0.14861433899E+02  0.00000000000E+00 0. -1.
</event>
<event>
 7    1  0.1826069E-013  0.7246147E+02  0.7816164E-02  0.1226708E+00
        -11   -1    0    0    0    0  0.00000000000E+00  0.00000000000E+00  0.45593999997E+02  0.45594000000E+02  0.51100000000E-03 0. -1.
         11   -1    0    0    0    0 -0.00000000000E+00 -0.00000000000E+00 -0.45593999997E+02  0.45594000000E+02  0.51100000000E-03 0.  1.
    9900012    2    1    2    0    0  0.11939710945E+02  0.13315539623E+02  0.55518023124E+01  0.72461473311E+02  0.69999873661E+02 0.  0.
        -12    1    1    2    0    0 -0.11939710945E+02 -0.13315539623E+02 -0.55518023124E+01  0.18726526689E+02  0.00000000000E+00 0.  1.
         11    1    3    3    0    0  0.15662402737E+02  0.81029483896E+01  0.83271011597E+01  0.19501519072E+02  0.51100000000E-03 0. -1.
        -11    1    3    3    0    0 -0.19678583022E+02  0.10415988730E+02 -0.19256835259E+02  0.29437478755E+02  0.51100000000E-03 0.  1.
        -12    1    3    3    0    0  0.15955891230E+02 -0.52033974966E+01  0.16481536411E+02  0.23522475485E+02  0.00000000000E+00 0.  1.
</event>
<event>
 7    1  0.1826069E-013  0.7246147E+02  0.7816164E-02  0.1226708E+00
        -11   -1    0    0    0    0  0.00000000000E+00  0.00000000000E+00  0.45593999997E+02  0.45594000000E+02  0.51100000000E-03 0.  1.
         11   -1    0    0    0    0 -0.00000000000E+00 -0.00000000000E+00 -0.45593999997E+02  0.45594000000E+02  0.51100000000E-03 0. -1.
    9900012    2    1    2    0    0 -0.68395331135E+01 -0.53648543477E+01 -0.16586802922E+02  0.72461470515E+02  0.69999870019E+02 0.  0.
        -12    1    1    2    0    0  0.68395331135E+01  0.53648543477E+01  0.16586802922E+02  0.18726529485E+02  0.00000000000E+00 0.  1.
         11    1    3    3    0    0 -0.32289725969E+02  0.65457062348E+01  0.38363606448E+01  0.33169117210E+02  0.51100000000E-03 0. -1.
        -11    1    3    3    0    0  0.18559471294E+02 -0.77250244230E+01 -0.33080136969E+01  0.20373338753E+02  0.51100000000E-03 0.  1.
         12    1    3    3    0    0  0.68907215609E+01 -0.41855361595E+01 -0.17115149869E+02  0.18919014552E+02  0.00000000000E+00 0. -1.
</event>
<event>
 7    1  0.1826069E-013  0.7246154E+02  0.7816164E-02  0.1226708E+00
        -11   -1    0    0    0    0  0.00000000000E+00  0.00000000000E+00  0.45593999997E+02  0.45594000000E+02  0.51100000000E-03 0. -1.
         11   -1    0    0    0    0 -0.00000000000E+00 -0.00000000000E+00 -0.45593999997E+02  0.45594000000E+02  0.51100000000E-03 0.  1.
    9900012    2    1    2    0    0 -0.21771424054E+01 -0.11111723335E+02  0.14915423178E+02  0.72461542965E+02  0.69999964398E+02 0.  0.
        -12    1    1    2    0    0  0.21771424054E+01  0.11111723335E+02 -0.14915423178E+02  0.18726457035E+02  0.00000000000E+00 0.  1.
         11    1    3    3    0    0  0.28924329519E+02  0.40447101500E+01  0.10280933545E+02  0.30962462970E+02  0.51100000000E-03 0. -1.
        -11    1    3    3    0    0 -0.18468522996E+02 -0.12914526303E+02  0.13157548186E+02  0.26095831196E+02  0.51100000000E-03 0.  1.
         12    1    3    3    0    0 -0.12632948929E+02 -0.22419071820E+01 -0.85230585536E+01  0.15403248799E+02  0.00000000000E+00 0. -1.
</event>
<event>
 7    1  0.1826069E-013  0.7246154E+02  0.7816164E-02  0.1226708E+00
        -11   -1    0    0    0    0  0.00000000000E+00  0.00000000000E+00  0.45593999997E+02  0.45594000000E+02  0.51100000000E-03 0.  1.
         11   -1    0    0    0    0 -0.00000000000E+00 -0.00000000000E+00 -0.45593999997E+02  0.45594000000E+02  0.51100000000E-03 0. -1.
    9900012    2    1    2    0    0 -0.16060888164E+01  0.18352192618E+02  0.33612363275E+01  0.72461537312E+02  0.69999957034E+02 0.  0.
        -12    1    1    2    0    0  0.16060888164E+01 -0.18352192618E+02 -0.33612363275E+01  0.18726462688E+02  0.00000000000E+00 0.  1.
         11    1    3    3    0    0 -0.18484750150E+02  0.53682398669E+01  0.30060374320E+01  0.19481792748E+02  0.51100000000E-03 0. -1.
        -11    1    3    3    0    0  0.25024893782E+02  0.19651927046E+02  0.14810871844E+02  0.35097086353E+02  0.51100000000E-03 0.  1.
        -12    1    3    3    0    0 -0.81462324486E+01 -0.66679742952E+01 -0.14455672948E+02  0.17882658211E+02  0.00000000000E+00 0.  1.
</event>
<event>
 7    1  0.1826069E-013  0.7246155E+02  0.7816164E-02  0.1226708E+00
        -11   -1    0    0    0    0  0.00000000000E+00  0.00000000000E+00  0.45593999997E+02  0.45594000000E+02  0.51100000000E-03 0.  1.
         11   -1    0    0    0    0 -0.00000000000E+00 -0.00000000000E+00 -0.45593999997E+02  0.45594000000E+02  0.51100000000E-03 0. -1.
    9900012    2    1    2    0    0  0.12010255820E+02  0.86964781668E+01 -0.11437002594E+02  0.72461547968E+02  0.69999970916E+02 0.  0.
        -12    1    1    2    0    0 -0.12010255820E+02 -0.86964781668E+01  0.11437002594E+02  0.18726452032E+02  0.00000000000E+00 0.  1.
         11    1    3    3    0    0  0.34646717862E+01  0.51892480538E+01  0.18485341219E+02  0.19509999647E+02  0.51100000000E-03 0.  1.
        -11    1    3    3    0    0 -0.29523389018E+00 -0.84077973452E+01 -0.35961762631E+02  0.36932730620E+02  0.51100000000E-03 0. -1.
        -12    1    3    3    0    0  0.88408179243E+01  0.11915027458E+02  0.60394188180E+01  0.16018817702E+02  0.00000000000E+00 0.  1.
</event>
<event>
 7    1  0.1826069E-013  0.7246159E+02  0.7816164E-02  0.1226708E+00
        -11   -1    0    0    0    0  0.00000000000E+00  0.00000000000E+00  0.45593999997E+02  0.45594000000E+02  0.51100000000E-03 0.  1.
         11   -1    0    0    0    0 -0.00000000000E+00 -0.00000000000E+00 -0.45593999997E+02  0.45594000000E+02  0.51100000000E-03 0. -1.
    9900012    2    1    2    0    0  0.15222173795E+02 -0.45076023266E+01 -0.99320351393E+01  0.72461591487E+02  0.70000027607E+02 0.  0.
        -12    1    1    2    0    0 -0.15222173795E+02  0.45076023266E+01  0.99320351393E+01  0.18726408513E+02  0.00000000000E+00 0.  1.
         11    1    3    3    0    0  0.74359567718E+00  0.21260528468E+02 -0.23653669937E+02  0.31812876434E+02  0.51100000000E-03 0. -1.
        -11    1    3    3    0    0  0.32393387938E+01 -0.31598934665E+01  0.14701167921E+02  0.15381891335E+02  0.51100000000E-03 0.  1.
         12    1    3    3    0    0  0.11239239325E+02 -0.22608237328E+02 -0.97953312290E+00  0.25266823718E+02  0.00000000000E+00 0. -1.
</event>
<event>
 7    1  0.1826069E-013  0.7246159E+02  0.7816164E-02  0.1226708E+00
        -11   -1    0    0    0    0  0.00000000000E+00  0.00000000000E+00  0.45593999997E+02  0.45594000000E+02  0.51100000000E-03 0. -1.
         11   -1    0    0    0    0 -0.00000000000E+00 -0.00000000000E+00 -0.45593999997E+02  0.45594000000E+02  0.51100000000E-03 0.  1.
    9900012    2    1    2    0    0  0.72122342150E+01 -0.12702987944E+02  0.11717350473E+02  0.72461587445E+02  0.70000022342E+02 0.  0.
        -12    1    1    2    0    0 -0.72122342150E+01  0.12702987944E+02 -0.11717350473E+02  0.18726412555E+02  0.00000000000E+00 0.  1.
         11    1    3    3    0    0 -0.76292753078E+01 -0.18624270954E+02  0.13618282276E+02  0.24300759714E+02  0.51100000000E-03 0. -1.
        -11    1    3    3    0    0  0.46616409638E+01  0.24838950066E+02  0.46598279699E+01  0.25698605678E+02  0.51100000000E-03 0.  1.
        -12    1    3    3    0    0  0.10179868559E+02 -0.18917667056E+02 -0.65607597730E+01  0.22462222052E+02  0.00000000000E+00 0.  1.
</event>
<event>
 7    1  0.1826069E-013  0.7246161E+02  0.7816164E-02  0.1226708E+00
        -11   -1    0    0    0    0  0.00000000000E+00  0.00000000000E+00  0.45593999997E+02  0.45594000000E+02  0.51100000000E-03 0.  1.
         11   -1    0    0    0    0 -0.00000000000E+00 -0.00000000000E+00 -0.45593999997E+02  0.45594000000E+02  0.51100000000E-03 0. -1.
    9900012    2    1    2    0    0 -0.47063990732E+01  0.13455727108E+02 -0.12143757378E+02  0.72461611466E+02  0.70000053634E+02 0.  0.
        -12    1    1    2    0    0  0.47063990732E+01 -0.13455727108E+02  0.12143757378E+02  0.18726388534E+02  0.00000000000E+00 0.  1.
         11    1    3    3    0    0 -0.70441380469E+01 -0.11059446207E+02 -0.87565171317E+01  0.15767302362E+02  0.51100000000E-03 0. -1.
        -11    1    3    3    0    0  0.51206275342E+01  0.20374462267E+01  0.21995582107E+02  0.22675485573E+02  0.51100000000E-03 0.  1.
        -12    1    3    3    0    0 -0.27828885604E+01  0.22477727089E+02 -0.25382822354E+02  0.34018823531E+02  0.00000000000E+00 0.  1.
</event>
<event>
 7    1  0.1826069E-013  0.7246174E+02  0.7816164E-02  0.1226708E+00
        -11   -1    0    0    0    0  0.00000000000E+00  0.00000000000E+00  0.45593999997E+02  0.45594000000E+02  0.51100000000E-03 0. -1.
         11   -1    0    0    0    0 -0.00000000000E+00 -0.00000000000E+00 -0.45593999997E+02  0.45594000000E+02  0.51100000000E-03 0.  1.
    9900012    2    1    2    0    0  0.38426694279E+01 -0.18252968048E+02  0.16540014307E+01  0.72461743790E+02  0.70000226010E+02 0.  0.
        -12    1    1    2    0    0 -0.38426694279E+01  0.18252968048E+02 -0.16540014307E+01  0.18726256210E+02  0.00000000000E+00 0.  1.
         11    1    3    3    0    0  0.19704267648E+02 -0.14804618927E+02 -0.35361044743E+01  0.24898573056E+02  0.51100000000E-03 0. -1.
        -11    1    3    3    0    0 -0.25308074521E+01  0.19391972007E+02 -0.32036411132E+01  0.19817085591E+02  0.51100000000E-03 0.  1.
         12    1    3    3    0    0 -0.13330790768E+02 -0.22840321128E+02  0.83937470182E+01  0.27746085143E+02  0.00000000000E+00 0. -1.
</event>
<event>
 7    1  0.1826069E-013  0.7246155E+02  0.7816164E-02  0.1226708E+00
        -11   -1    0    0    0    0  0.00000000000E+00  0.00000000000E+00  0.45593999997E+02  0.45594000000E+02  0.51100000000E-03 0.  1.
         11   -1    0    0    0    0 -0.00000000000E+00 -0.00000000000E+00 -0.45593999997E+02  0.45594000000E+02  0.51100000000E-03 0. -1.
    9900012    2    1    2    0    0  0.17484413990E+02  0.10242948639E+01 -0.66276694966E+01  0.72461550377E+02  0.69999974054E+02 0.  0.
        -12    1    1    2    0    0 -0.17484413990E+02 -0.10242948639E+01  0.66276694966E+01  0.18726449623E+02  0.00000000000E+00 0.  1.
         11    1    3    3    0    0 -0.20069542895E+01 -0.20047801003E+02 -0.11009443699E+02  0.22959748287E+02  0.51100000000E-03 0. -1.
        -11    1    3    3    0    0  0.94557632030E+01  0.29742653721E+02 -0.70460167589E+01  0.31995050563E+02  0.51100000000E-03 0.  1.
         12    1    3    3    0    0  0.10035605076E+02 -0.86705578540E+01  0.11427790962E+02  0.17506751526E+02  0.00000000000E+00 0. -1.
</event>
<event>
 7    1  0.1826069E-013  0.7246161E+02  0.7816164E-02  0.1226708E+00
        -11   -1    0    0    0    0  0.00000000000E+00  0.00000000000E+00  0.45593999997E+02  0.45594000000E+02  0.51100000000E-03 0.  1.
         11   -1    0    0    0    0 -0.00000000000E+00 -0.00000000000E+00 -0.45593999997E+02  0.45594000000E+02  0.51100000000E-03 0. -1.
    9900012    2    1    2    0    0  0.73031097315E+01  0.30134087814E+01 -0.16978270222E+02  0.72461609425E+02  0.70000050975E+02 0.  0.
        -12    1    1    2    0    0 -0.73031097315E+01 -0.30134087814E+01  0.16978270222E+02  0.18726390575E+02  0.00000000000E+00 0.  1.
         11    1    3    3    0    0  0.23258242151E+02  0.19723507730E+02 -0.69352713233E+01  0.31273959994E+02  0.51100000000E-03 0. -1.
        -11    1    3    3    0    0 -0.18373130594E+02 -0.80260334043E+01  0.75464356111E+01  0.21422834330E+02  0.51100000000E-03 0.  1.
        -12    1    3    3    0    0  0.24179981746E+01 -0.86840655442E+01 -0.17589434510E+02  0.19764815100E+02  0.00000000000E+00 0.  1.
</event>
<event>
 7    1  0.1826069E-013  0.7246160E+02  0.7816164E-02  0.1226708E+00
        -11   -1    0    0    0    0  0.00000000000E+00  0.00000000000E+00  0.45593999997E+02  0.45594000000E+02  0.51100000000E-03 0.  1.
         11   -1    0    0    0    0 -0.00000000000E+00 -0.00000000000E+00 -0.45593999997E+02  0.45594000000E+02  0.51100000000E-03 0. -1.
    9900012    2    1    2    0    0  0.81228402450E+01  0.47401876507E+00 -0.16866318733E+02  0.72461603255E+02  0.70000042937E+02 0.  0.
        -12    1    1    2    0    0 -0.81228402450E+01 -0.47401876507E+00  0.16866318733E+02  0.18726396745E+02  0.00000000000E+00 0.  1.
         11    1    3    3    0    0 -0.44262705089E+01 -0.14048251957E+02  0.79912160746E+01  0.16757230925E+02  0.51100000000E-03 0. -1.
        -11    1    3    3    0    0 -0.87911080901E+01  0.24250514561E+02 -0.17318985415E+02  0.31069571835E+02  0.51100000000E-03 0.  1.
        -12    1    3    3    0    0  0.21340218844E+02 -0.97282438390E+01 -0.75385493926E+01  0.24634800495E+02  0.00000000000E+00 0.  1.
</event>
<event>
 7    1  0.1826069E-013  0.7246151E+02  0.7816164E-02  0.1226708E+00
        -11   -1    0    0    0    0  0.00000000000E+00  0.00000000000E+00  0.45593999997E+02  0.45594000000E+02  0.51100000000E-03 0. -1.
         11   -1    0    0    0    0 -0.00000000000E+00 -0.00000000000E+00 -0.45593999997E+02  0.45594000000E+02  0.51100000000E-03 0.  1.
    9900012    2    1    2    0    0 -0.74243978683E+01 -0.58581363151E+01  0.16162977183E+02  0.72461514045E+02  0.69999926725E+02 0.  0.
        -12    1    1    2    0    0  0.74243978683E+01  0.58581363151E+01 -0.16162977183E+02  0.18726485955E+02  0.00000000000E+00 0.  1.
         11    1    3    3    0    0 -0.18778914316E+02  0.11427213115E+01 -0.64923647208E+01  0.19902367568E+02  0.51100000000E-03 0. -1.
        -11    1    3    3    0    0  0.21020057419E+02 -0.15019245971E+02  0.28705693454E+02  0.38619132568E+02  0.51100000000E-03 0.  1.
        -12    1    3    3    0    0 -0.96655409717E+01  0.80183883441E+01 -0.60503515498E+01  0.13940013909E+02  0.00000000000E+00 0.  1.
</event>
<event>
 7    1  0.1826069E-013  0.7246157E+02  0.7816164E-02  0.1226708E+00
        -11   -1    0    0    0    0  0.00000000000E+00  0.00000000000E+00  0.45593999997E+02  0.45594000000E+02  0.51100000000E-03 0.  1.
         11   -1    0    0    0    0 -0.00000000000E+00 -0.00000000000E+00 -0.45593999997E+02  0.45594000000E+02  0.51100000000E-03 0. -1.
    9900012    2    1    2    0    0  0.16734466943E+02 -0.77965688398E+01 -0.31385028663E+01  0.72461572957E+02  0.70000003469E+02 0.  0.
        -12    1    1    2    0    0 -0.16734466943E+02  0.77965688398E+01  0.31385028663E+01  0.18726427043E+02  0.00000000000E+00 0.  1.
         11    1    3    3    0    0  0.23599993962E+02  0.14060864410E+02 -0.17201834853E+02  0.32412509090E+02  0.51100000000E-03 0. -1.
        -11    1    3    3    0    0 -0.89272290359E+01 -0.16171560119E+02 -0.57395736107E+01  0.19343150737E+02  0.51100000000E-03 0.  1.
         12    1    3    3    0    0  0.20617020168E+01 -0.56858731308E+01  0.19802905597E+02  0.20705913130E+02  0.00000000000E+00 0. -1.
</event>
<event>
 7    1  0.1826069E-013  0.7246174E+02  0.7816164E-02  0.1226708E+00
        -11   -1    0    0    0    0  0.00000000000E+00  0.00000000000E+00  0.45593999997E+02  0.45594000000E+02  0.51100000000E-03 0. -1.
         11   -1    0    0    0    0 -0.00000000000E+00 -0.00000000000E+00 -0.45593999997E+02  0.45594000000E+02  0.51100000000E-03 0.  1.
    9900012    2    1    2    0    0  0.18573586805E+02 -0.23758728176E+01  0.22364472335E+00  0.72461737281E+02  0.70000217531E+02 0.  0.
        -12    1    1    2    0    0 -0.18573586805E+02  0.23758728176E+01 -0.22364472335E+00  0.18726262719E+02  0.00000000000E+00 0.  1.
         11    1    3    3    0    0 -0.26900844437E-01  0.10702060107E+02  0.14997336606E+02  0.18424302422E+02  0.51100000000E-03 0. -1.
        -11    1    3    3    0    0 -0.12474385176E+02 -0.87854343730E+01 -0.16684944951E+02  0.22609323982E+02  0.51100000000E-03 0.  1.
        -12    1    3    3    0    0  0.31074872826E+02 -0.42924985517E+01  0.19112530681E+01  0.31428110877E+02  0.00000000000E+00 0.  1.
</event>
<event>
 7    1  0.1826069E-013  0.7246156E+02  0.7816164E-02  0.1226708E+00
        -11   -1    0    0    0    0  0.00000000000E+00  0.00000000000E+00  0.45593999997E+02  0.45594000000E+02  0.51100000000E-03 0.  1.
         11   -1    0    0    0    0 -0.00000000000E+00 -0.00000000000E+00 -0.45593999997E+02  0.45594000000E+02  0.51100000000E-03 0. -1.
    9900012    2    1    2    0    0  0.13237399776E+02 -0.53399577675E+01 -0.12121696135E+02  0.72461563634E+02  0.69999991323E+02 0.  0.
        -12    1    1    2    0    0 -0.13237399776E+02  0.53399577675E+01  0.12121696135E+02  0.18726436366E+02  0.00000000000E+00 0.  1.
         11    1    3    3    0    0  0.24084302687E+02 -0.25201412927E+01  0.21163032799E+02  0.32160203755E+02  0.51100000000E-03 0. -1.
        -11    1    3    3    0    0 -0.12339834699E+02  0.52296591553E+01 -0.14153750329E+02  0.19492293449E+02  0.51100000000E-03 0.  1.
        -12    1    3    3    0    0  0.14929317870E+01 -0.80494756302E+01 -0.19130978606E+02  0.20809066429E+02  0.00000000000E+00 0.  1.
</event>
<event>
 7    1  0.1826069E-013  0.7246140E+02  0.7816164E-02  0.1226708E+00
        -11   -1    0    0    0    0  0.00000000000E+00  0.00000000000E+00  0.45593999997E+02  0.45594000000E+02  0.51100000000E-03 0.  1.
         11   -1    0    0    0    0 -0.00000000000E+00 -0.00000000000E+00 -0.45593999997E+02  0.45594000000E+02  0.51100000000E-03 0. -1.
    9900012    2    1    2    0    0  0.12488783126E+02 -0.13771780598E+02  0.22481047166E+01  0.72461398076E+02  0.69999775653E+02 0.  0.
        -12    1    1    2    0    0 -0.12488783126E+02  0.13771780598E+02 -0.22481047166E+01  0.18726601924E+02  0.00000000000E+00 0.  1.
         11    1    3    3    0    0  0.26939477916E+02 -0.25618065640E+02 -0.16037018552E+02  0.40487117973E+02  0.51100000000E-03 0. -1.
        -11    1    3    3    0    0 -0.11184857158E+00  0.90492519413E+01  0.64895489365E+00  0.90731810031E+01  0.51100000000E-03 0.  1.
         12    1    3    3    0    0 -0.14338846218E+02  0.27970331002E+01  0.17636168375E+02  0.22901099099E+02  0.00000000000E+00 0. -1.
</event>
<event>
 7    1  0.1826069E-013  0.7246155E+02  0.7816164E-02  0.1226708E+00
        -11   -1    0    0    0    0  0.00000000000E+00  0.00000000000E+00  0.45593999997E+02  0.45594000000E+02  0.51100000000E-03 0.  1.
         11   -1    0    0    0    0 -0.00000000000E+00 -0.00000000000E+00 -0.45593999997E+02  0.45594000000E+02  0.51100000000E-03 0. -1.
    9900012    2    1    2    0    0  0.49193251259E+01  0.10985131018E+02 -0.14345973804E+02  0.72461552724E+02  0.69999977112E+02 0.  0.
        -12    1    1    2    0    0 -0.49193251259E+01 -0.10985131018E+02  0.14345973804E+02  0.18726447276E+02  0.00000000000E+00 0.  1.
         11    1    3    3    0    0  0.10945358836E+02  0.13045130874E+02 -0.37555910706E+02  0.41236182519E+02  0.51100000000E-03 0. -1.
        -11    1    3    3    0    0 -0.78736149822E+00  0.87842165691E+01  0.10579818210E+02  0.13773705110E+02  0.51100000000E-03 0.  1.
         12    1    3    3    0    0 -0.52386722114E+01 -0.10844216424E+02  0.12630118692E+02  0.17451665095E+02  0.00000000000E+00 0. -1.
</event>
<event>
 7    1  0.1826069E-013  0.7246157E+02  0.7816164E-02  0.1226708E+00
        -11   -1    0    0    0    0  0.00000000000E+00  0.00000000000E+00  0.45593999997E+02  0.45594000000E+02  0.51100000000E-03 0.  1.
         11   -1    0    0    0    0 -0.00000000000E+00 -0.00000000000E+00 -0.45593999997E+02  0.45594000000E+02  0.51100000000E-03 0. -1.
    9900012    2    1    2    0    0  0.17615570689E+02  0.62894996929E+01 -0.90160318983E+00  0.72461574142E+02  0.70000005013E+02 0.  0.
        -12    1    1    2    0    0 -0.17615570689E+02 -0.62894996929E+01  0.90160318983E+00  0.18726425858E+02  0.00000000000E+00 0.  1.
         11    1    3    3    0    0  0.28961272900E+02  0.25049077481E+02 -0.48348362425E+01  0.38595171362E+02  0.51100000000E-03 0. -1.
        -11    1    3    3    0    0  0.67542866479E+01 -0.48757977951E+01  0.69595820582E+01  0.10854933208E+02  0.51100000000E-03 0.  1.
         12    1    3    3    0    0 -0.18099988859E+02 -0.13883779993E+02 -0.30263490056E+01  0.23011469573E+02  0.00000000000E+00 0. -1.
</event>
<event>
 7    1  0.1826069E-013  0.7246144E+02  0.7816164E-02  0.1226708E+00
        -11   -1    0    0    0    0  0.00000000000E+00  0.00000000000E+00  0.45593999997E+02  0.45594000000E+02  0.51100000000E-03 0. -1.
         11   -1    0    0    0    0 -0.00000000000E+00 -0.00000000000E+00 -0.45593999997E+02  0.45594000000E+02  0.51100000000E-03 0.  1.
    9900012    2    1    2    0    0 -0.44207462348E+01  0.15496773555E+02  0.95389235139E+01  0.72461439993E+02  0.69999830258E+02 0.  0.
        -12    1    1    2    0    0  0.44207462348E+01 -0.15496773555E+02 -0.95389235139E+01  0.18726560007E+02  0.00000000000E+00 0.  1.
         11    1    3    3    0    0  0.51104926509E+01 -0.17629706505E+02 -0.13296923202E+02  0.22665653608E+02  0.51100000000E-03 0. -1.
        -11    1    3    3    0    0 -0.19336988043E+02  0.20217472125E+02  0.15737791457E+02  0.32098962069E+02  0.51100000000E-03 0.  1.
         12    1    3    3    0    0  0.98057491577E+01  0.12909007935E+02  0.70980552592E+01  0.17696824316E+02  0.00000000000E+00 0. -1.
</event>
<event>
 7    1  0.1826069E-013  0.7246156E+02  0.7816164E-02  0.1226708E+00
        -11   -1    0    0    0    0  0.00000000000E+00  0.00000000000E+00  0.45593999997E+02  0.45594000000E+02  0.51100000000E-03 0. -1.
         11   -1    0    0    0    0 -0.00000000000E+00 -0.00000000000E+00 -0.45593999997E+02  0.45594000000E+02  0.51100000000E-03 0.  1.
    9900012    2    1    2    0    0 -0.12777680524E+02 -0.10606924124E+02  0.86546861617E+01  0.72461560095E+02  0.69999986714E+02 0.  0.
        -12    1    1    2    0    0  0.12777680524E+02  0.10606924124E+02 -0.86546861617E+01  0.18726439905E+02  0.00000000000E+00 0.  1.
         11    1    3    3    0    0  0.11599206096E+02 -0.42441586499E+01  0.21257721056E+02  0.24585466631E+02  0.51100000000E-03 0. -1.
        -11    1    3    3    0    0 -0.78006860483E+01 -0.18539775456E+02 -0.17580526290E+02  0.26714207488E+02  0.51100000000E-03 0.  1.
        -12    1    3    3    0    0 -0.16576200572E+02  0.12177009982E+02  0.49774913955E+01  0.21161885977E+02  0.00000000000E+00 0.  1.
</event>
<event>
 8    1  0.1826069E-013  0.7246163E+02  0.7816164E-02  0.1226708E+00
        -11   -1    0    0    0    0  0.00000000000E+00  0.00000000000E+00  0.45593999997E+02  0.45594000000E+02  0.51100000000E-03 0. -1.
         11   -1    0    0    0    0 -0.00000000000E+00 -0.00000000000E+00 -0.45593999997E+02  0.45594000000E+02  0.51100000000E-03 0.  1.
    9900012    2    1    2    0    0 -0.14371192135E+02  0.60926198897E+01  0.10345327469E+02  0.72461628729E+02  0.70000076123E+02 0.  0.
        -24    2    3    3    0    0 -0.15293918868E+02  0.20955662732E+02  0.12403598600E+02  0.57428400617E+02  0.49710443413E+02 0.  0.
        -12    1    1    2    0    0  0.14371192135E+02 -0.60926198897E+01 -0.10345327469E+02  0.18726371271E+02  0.00000000000E+00 0.  1.
         11    1    4    4    0    0 -0.19857294417E+02  0.10383692359E+02  0.29358458450E+02  0.36933078553E+02  0.51100000000E-03 0. -1.
        -11    1    3    3    0    0  0.92272673280E+00 -0.14863042843E+02 -0.20582711306E+01  0.15033228112E+02  0.51100000000E-03 0.  1.
        -12    1    4    4    0    0  0.45633755486E+01  0.10571970374E+02 -0.16954859850E+02  0.20495322064E+02  0.00000000000E+00 0.  1.
</event>
<event>
 7    1  0.1826069E-013  0.7246162E+02  0.7816164E-02  0.1226708E+00
        -11   -1    0    0    0    0  0.00000000000E+00  0.00000000000E+00  0.45593999997E+02  0.45594000000E+02  0.51100000000E-03 0.  1.
         11   -1    0    0    0    0 -0.00000000000E+00 -0.00000000000E+00 -0.45593999997E+02  0.45594000000E+02  0.51100000000E-03 0. -1.
    9900012    2    1    2    0    0  0.45503293772E-01  0.91704699886E+01 -0.16327206644E+02  0.72461621088E+02  0.70000066169E+02 0.  0.
        -12    1    1    2    0    0 -0.45503293772E-01 -0.91704699886E+01  0.16327206644E+02  0.18726378912E+02  0.00000000000E+00 0.  1.
         11    1    3    3    0    0 -0.89514754480E+01  0.26604182925E+02 -0.13300554285E+02  0.31061490730E+02  0.51100000000E-03 0. -1.
        -11    1    3    3    0    0  0.17692218753E+02  0.40157008984E+01 -0.15448762720E+01  0.18207885684E+02  0.51100000000E-03 0.  1.
         12    1    3    3    0    0 -0.86952400111E+01 -0.21449413835E+02 -0.14817760870E+01  0.23192244675E+02  0.00000000000E+00 0. -1.
</event>
<event>
 7    1  0.1826069E-013  0.7246136E+02  0.7816164E-02  0.1226709E+00
        -11   -1    0    0    0    0  0.00000000000E+00  0.00000000000E+00  0.45593999997E+02  0.45594000000E+02  0.51100000000E-03 0.  1.
         11   -1    0    0    0    0 -0.00000000000E+00 -0.00000000000E+00 -0.45593999997E+02  0.45594000000E+02  0.51100000000E-03 0. -1.
    9900012    2    1    2    0    0  0.87454089865E+01 -0.16544547857E+02 -0.69473085102E+00  0.72461364075E+02  0.69999731360E+02 0.  0.
        -12    1    1    2    0    0 -0.87454089865E+01  0.16544547857E+02  0.69473085102E+00  0.18726635925E+02  0.00000000000E+00 0.  1.
         11    1    3    3    0    0  0.10672197875E+02  0.14240152391E+02 -0.16344055578E+02  0.24162075668E+02  0.51100000000E-03 0.  1.
        -11    1    3    3    0    0  0.12938692170E+02 -0.24546779994E+02  0.16269761010E+02  0.32166120169E+02  0.51100000000E-03 0. -1.
        -12    1    3    3    0    0 -0.14865481059E+02 -0.62379202534E+01 -0.62043628321E+00  0.16133168237E+02  0.00000000000E+00 0.  1.
</event>
<event>
 7    1  0.1826069E-013  0.7246165E+02  0.7816164E-02  0.1226708E+00
        -11   -1    0    0    0    0  0.00000000000E+00  0.00000000000E+00  0.45593999997E+02  0.45594000000E+02  0.51100000000E-03 0. -1.
         11   -1    0    0    0    0 -0.00000000000E+00 -0.00000000000E+00 -0.45593999997E+02  0.45594000000E+02  0.51100000000E-03 0.  1.
    9900012    2    1    2    0    0  0.99019667788E+01 -0.10219979838E+01  0.15861359171E+02  0.72461651164E+02  0.70000105348E+02 0.  0.
        -12    1    1    2    0    0 -0.99019667788E+01  0.10219979838E+01 -0.15861359171E+02  0.18726348836E+02  0.00000000000E+00 0.  1.
         11    1    3    3    0    0 -0.12584398258E+01 -0.29427019809E+02 -0.30850908059E+01  0.29615046027E+02  0.51100000000E-03 0. -1.
        -11    1    3    3    0    0  0.15570398334E+02  0.79306070778E+01  0.80789424306E+01  0.19251003713E+02  0.51100000000E-03 0.  1.
         12    1    3    3    0    0 -0.44099917293E+01  0.20474414747E+02  0.10867507546E+02  0.23595601424E+02  0.00000000000E+00 0. -1.
</event>
<event>
 7    1  0.1826069E-013  0.7246146E+02  0.7816164E-02  0.1226708E+00
        -11   -1    0    0    0    0  0.00000000000E+00  0.00000000000E+00  0.45593999997E+02  0.45594000000E+02  0.51100000000E-03 0. -1.
         11   -1    0    0    0    0 -0.00000000000E+00 -0.00000000000E+00 -0.45593999997E+02  0.45594000000E+02  0.51100000000E-03 0.  1.
    9900012    2    1    2    0    0 -0.11991114013E+02  0.13344171374E+02  0.53693066511E+01  0.72461463245E+02  0.69999860548E+02 0.  0.
        -12    1    1    2    0    0  0.11991114013E+02 -0.13344171374E+02 -0.53693066511E+01  0.18726536755E+02  0.00000000000E+00 0.  1.
         11    1    3    3    0    0 -0.24192633978E+02  0.34060424265E+02  0.14375125234E+01  0.41802661188E+02  0.51100000000E-03 0.  1.
        -11    1    3    3    0    0  0.23265354388E+01 -0.12952904117E+02  0.10171837825E+02  0.16633002652E+02  0.51100000000E-03 0. -1.
        -12    1    3    3    0    0  0.98749845268E+01 -0.77633487735E+01 -0.62400436977E+01  0.14025799404E+02  0.00000000000E+00 0.  1.
</event>
<event>
 7    1  0.1826069E-013  0.7246161E+02  0.7816164E-02  0.1226708E+00
        -11   -1    0    0    0    0  0.00000000000E+00  0.00000000000E+00  0.45593999997E+02  0.45594000000E+02  0.51100000000E-03 0. -1.
         11   -1    0    0    0    0 -0.00000000000E+00 -0.00000000000E+00 -0.45593999997E+02  0.45594000000E+02  0.51100000000E-03 0.  1.
    9900012    2    1    2    0    0 -0.78736476568E+00  0.12228660623E+02 -0.14160426481E+02  0.72461607875E+02  0.70000048956E+02 0.  0.
        -12    1    1    2    0    0  0.78736476568E+00 -0.12228660623E+02  0.14160426481E+02  0.18726392125E+02  0.00000000000E+00 0.  1.
         11    1    3    3    0    0 -0.18160064631E+01 -0.26299882883E+02  0.16970721260E+01  0.26417073517E+02  0.51100000000E-03 0. -1.
        -11    1    3    3    0    0 -0.80945278602E+01  0.28648047561E+02 -0.11376072349E+02  0.31869217635E+02  0.51100000000E-03 0.  1.
         12    1    3    3    0    0  0.91231695576E+01  0.98804959454E+01 -0.44814262581E+01  0.14175316723E+02  0.00000000000E+00 0. -1.
</event>
<event>
 8    1  0.1826069E-013  0.7246142E+02  0.7816164E-02  0.1226708E+00
        -11   -1    0    0    0    0  0.00000000000E+00  0.00000000000E+00  0.45593999997E+02  0.45594000000E+02  0.51100000000E-03 0.  1.
         11   -1    0    0    0    0 -0.00000000000E+00 -0.00000000000E+00 -0.45593999997E+02  0.45594000000E+02  0.51100000000E-03 0. -1.
    9900012    2    1    2    0    0  0.17575103094E+02  0.17047069924E+01  0.62365435864E+01  0.72461421279E+02  0.69999805879E+02 0.  0.
         24    2    3    3    0    0 -0.24326823566E+01  0.13554428505E+01 -0.41204849935E+01  0.49929188692E+02  0.49680884836E+02 0.  0.
        -12    1    1    2    0    0 -0.17575103094E+02 -0.17047069924E+01 -0.62365435864E+01  0.18726578721E+02  0.00000000000E+00 0.  1.
         11    1    3    3    0    0  0.20007785451E+02  0.34926414189E+00  0.10357028580E+02  0.22532232587E+02  0.51100000000E-03 0. -1.
        -11    1    4    4    0    0 -0.19349169244E+02 -0.14906328117E+02  0.46773139924E+01  0.24868981379E+02  0.51100000000E-03 0.  1.
         12    1    4    4    0    0  0.16916486888E+02  0.16261770967E+02 -0.87977989858E+01  0.25060207314E+02  0.00000000000E+00 0. -1.
</event>
<event>
 7    1  0.1826069E-013  0.7246162E+02  0.7816164E-02  0.1226708E+00
        -11   -1    0    0    0    0  0.00000000000E+00  0.00000000000E+00  0.45593999997E+02  0.45594000000E+02  0.51100000000E-03 0. -1.
         11   -1    0    0    0    0 -0.00000000000E+00 -0.00000000000E+00 -0.45593999997E+02  0.45594000000E+02  0.51100000000E-03 0.  1.
    9900012    2    1    2    0    0 -0.11625828283E+02  0.90817230842E+01  0.11534289383E+02  0.72461617301E+02  0.70000061235E+02 0.  0.
        -12    1    1    2    0    0  0.11625828283E+02 -0.90817230842E+01 -0.11534289383E+02  0.18726382699E+02  0.00000000000E+00 0.  1.
         11    1    3    3    0    0 -0.28104281023E+02  0.19560346715E+02  0.97302414688E+01  0.35596845011E+02  0.51100000000E-03 0.  1.
        -11    1    3    3    0    0  0.17557779818E+02 -0.11688279987E+02  0.13509285968E+02  0.25047800878E+02  0.51100000000E-03 0. -1.
         12    1    3    3    0    0 -0.10793270776E+01  0.12096563562E+01 -0.11705238054E+02  0.11816971412E+02  0.00000000000E+00 0. -1.
</event>
<event>
 7    1  0.1826069E-013  0.7246126E+02  0.7816164E-02  0.1226709E+00
        -11   -1    0    0    0    0  0.00000000000E+00  0.00000000000E+00  0.45593999997E+02  0.45594000000E+02  0.51100000000E-03 0. -1.
         11   -1    0    0    0    0 -0.00000000000E+00 -0.00000000000E+00 -0.45593999997E+02  0.45594000000E+02  0.51100000000E-03 0.  1.
    9900012    2    1    2    0    0  0.25099184563E+01  0.54401909898E+01  0.17742476344E+02  0.72461258813E+02  0.69999594237E+02 0.  0.
        -12    1    1    2    0    0 -0.25099184563E+01 -0.54401909898E+01 -0.17742476344E+02  0.18726741187E+02  0.00000000000E+00 0.  1.
         11    1    3    3    0    0 -0.50781028358E+01  0.11107373894E+01  0.42077785848E+00  0.52151625312E+01  0.51100000000E-03 0. -1.
        -11    1    3    3    0    0  0.21693799748E+02  0.25956422314E+02  0.22873208738E+02  0.40835529691E+02  0.51100000000E-03 0.  1.
        -12    1    3    3    0    0 -0.14105778456E+02 -0.21626968713E+02 -0.55515102528E+01  0.26410566591E+02  0.00000000000E+00 0.  1.
</event>
<event>
 7    1  0.1826069E-013  0.7246150E+02  0.7816164E-02  0.1226708E+00
        -11   -1    0    0    0    0  0.00000000000E+00  0.00000000000E+00  0.45593999997E+02  0.45594000000E+02  0.51100000000E-03 0. -1.
         11   -1    0    0    0    0 -0.00000000000E+00 -0.00000000000E+00 -0.45593999997E+02  0.45594000000E+02  0.51100000000E-03 0.  1.
    9900012    2    1    2    0    0 -0.45472471296E+01 -0.17113065608E+02  0.60948616539E+01  0.72461499805E+02  0.69999908174E+02 0.  0.
        -12    1    1    2    0    0  0.45472471296E+01  0.17113065608E+02 -0.60948616539E+01  0.18726500195E+02  0.00000000000E+00 0.  1.
         11    1    3    3    0    0 -0.22720943874E+02  0.80726988068E+01  0.23426177560E+02  0.33618381161E+02  0.51100000000E-03 0.  1.
        -11    1    3    3    0    0  0.15837274393E+02 -0.24752912698E+02 -0.19786458995E+02  0.35426401272E+02  0.51100000000E-03 0. -1.
         12    1    3    3    0    0  0.23364223517E+01 -0.43285171698E+00  0.24551430883E+01  0.34167173717E+01  0.00000000000E+00 0. -1.
</event>
<event>
 7    1  0.1826069E-013  0.7246152E+02  0.7816164E-02  0.1226708E+00
        -11   -1    0    0    0    0  0.00000000000E+00  0.00000000000E+00  0.45593999997E+02  0.45594000000E+02  0.51100000000E-03 0. -1.
         11   -1    0    0    0    0 -0.00000000000E+00 -0.00000000000E+00 -0.45593999997E+02  0.45594000000E+02  0.51100000000E-03 0.  1.
    9900012    2    1    2    0    0 -0.10882261867E+02  0.76243671798E+01  0.13195695066E+02  0.72461522314E+02  0.69999937497E+02 0.  0.
        -12    1    1    2    0    0  0.10882261867E+02 -0.76243671798E+01 -0.13195695066E+02  0.18726477686E+02  0.00000000000E+00 0.  1.
         11    1    3    3    0    0 -0.35263063707E+02  0.20417285983E+02  0.15418903736E+02  0.43567095630E+02  0.51100000000E-03 0. -1.
        -11    1    3    3    0    0  0.32102656078E+01 -0.91719050768E+00 -0.31674102012E+01  0.46021224825E+01  0.51100000000E-03 0.  1.
         12    1    3    3    0    0  0.21170536232E+02 -0.11875728296E+02  0.94420153148E+00  0.24292304202E+02  0.00000000000E+00 0. -1.
</event>
<event>
 7    1  0.1826069E-013  0.7246157E+02  0.7816164E-02  0.1226708E+00
        -11   -1    0    0    0    0  0.00000000000E+00  0.00000000000E+00  0.45593999997E+02  0.45594000000E+02  0.51100000000E-03 0. -1.
         11   -1    0    0    0    0 -0.00000000000E+00 -0.00000000000E+00 -0.45593999997E+02  0.45594000000E+02  0.51100000000E-03 0.  1.
    9900012    2    1    2    0    0 -0.15031570273E+02  0.33251712242E+01  0.10661822703E+02  0.72461565959E+02  0.69999994353E+02 0.  0.
        -12    1    1    2    0    0  0.15031570273E+02 -0.33251712242E+01 -0.10661822703E+02  0.18726434041E+02  0.00000000000E+00 0.  1.
         11    1    3    3    0    0  0.16534865126E+02 -0.16027602529E+02 -0.16564578832E+01  0.23087435123E+02  0.51100000000E-03 0.  1.
        -11    1    3    3    0    0 -0.89632512182E+01  0.22714231465E+02  0.10064264214E+02  0.26411467166E+02  0.51100000000E-03 0. -1.
         12    1    3    3    0    0 -0.22603184180E+02 -0.33614577114E+01  0.22540163718E+01  0.22962663670E+02  0.00000000000E+00 0. -1.
</event>
<event>
 7    1  0.1826069E-013  0.7246147E+02  0.7816164E-02  0.1226708E+00
        -11   -1    0    0    0    0  0.00000000000E+00  0.00000000000E+00  0.45593999997E+02  0.45594000000E+02  0.51100000000E-03 0. -1.
         11   -1    0    0    0    0 -0.00000000000E+00 -0.00000000000E+00 -0.45593999997E+02  0.45594000000E+02  0.51100000000E-03 0.  1.
    9900012    2    1    2    0    0 -0.64824486428E+01  0.11372774155E+02  0.13391065891E+02  0.72461473945E+02  0.69999874487E+02 0.  0.
        -12    1    1    2    0    0  0.64824486428E+01 -0.11372774155E+02 -0.13391065891E+02  0.18726526055E+02  0.00000000000E+00 0.  1.
         11    1    3    3    0    0 -0.17956294910E+02  0.16215557782E+02  0.72311131468E+01  0.25251967026E+02  0.51100000000E-03 0. -1.
        -11    1    3    3    0    0  0.20077881517E+02  0.65101204735E+01  0.18724294523E+02  0.28215283101E+02  0.51100000000E-03 0.  1.
        -12    1    3    3    0    0 -0.86040352496E+01 -0.11352904100E+02 -0.12564341779E+02  0.18994223817E+02  0.00000000000E+00 0.  1.
</event>
<event>
 7    1  0.1826069E-013  0.7246157E+02  0.7816164E-02  0.1226708E+00
        -11   -1    0    0    0    0  0.00000000000E+00  0.00000000000E+00  0.45593999997E+02  0.45594000000E+02  0.51100000000E-03 0.  1.
         11   -1    0    0    0    0 -0.00000000000E+00 -0.00000000000E+00 -0.45593999997E+02  0.45594000000E+02  0.51100000000E-03 0. -1.
    9900012    2    1    2    0    0 -0.24624722868E+01 -0.17905140654E+02 -0.49011575927E+01  0.72461570085E+02  0.69999999727E+02 0.  0.
        -12    1    1    2    0    0  0.24624722868E+01  0.17905140654E+02  0.49011575927E+01  0.18726429915E+02  0.00000000000E+00 0.  1.
         11    1    3    3    0    0  0.13228210845E+00 -0.38008902684E+01 -0.14156334359E+02  0.14658310548E+02  0.51100000000E-03 0. -1.
        -11    1    3    3    0    0 -0.18295385336E+01 -0.75714787285E+01  0.32616460853E+02  0.33533684859E+02  0.51100000000E-03 0.  1.
        -12    1    3    3    0    0 -0.76521586160E+00 -0.65327716576E+01 -0.23361284087E+02  0.24269574677E+02  0.00000000000E+00 0.  1.
</event>
<event>
 7    1  0.1826069E-013  0.7246156E+02  0.7816164E-02  0.1226708E+00
        -11   -1    0    0    0    0  0.00000000000E+00  0.00000000000E+00  0.45593999997E+02  0.45594000000E+02  0.51100000000E-03 0. -1.
         11   -1    0    0    0    0 -0.00000000000E+00 -0.00000000000E+00 -0.45593999997E+02  0.45594000000E+02  0.51100000000E-03 0.  1.
    9900012    2    1    2    0    0  0.49809515860E+00  0.11916380820E+02  0.14437146353E+02  0.72461563461E+02  0.69999991098E+02 0.  0.
        -12    1    1    2    0    0 -0.49809515860E+00 -0.11916380820E+02 -0.14437146353E+02  0.18726436539E+02  0.00000000000E+00 0.  1.
         11    1    3    3    0    0 -0.18087440095E+02 -0.89748561023E+01  0.15078005664E+01  0.20247888632E+02  0.51100000000E-03 0. -1.
        -11    1    3    3    0    0  0.26268521928E+02  0.73611083141E+01  0.21239996757E+02  0.34573958732E+02  0.51100000000E-03 0.  1.
         12    1    3    3    0    0 -0.76829866751E+01  0.13530128609E+02 -0.83106509710E+01  0.17639716097E+02  0.00000000000E+00 0. -1.
</event>
<event>
 7    1  0.1826069E-013  0.7246156E+02  0.7816164E-02  0.1226708E+00
        -11   -1    0    0    0    0  0.00000000000E+00  0.00000000000E+00  0.45593999997E+02  0.45594000000E+02  0.51100000000E-03 0.  1.
         11   -1    0    0    0    0 -0.00000000000E+00 -0.00000000000E+00 -0.45593999997E+02  0.45594000000E+02  0.51100000000E-03 0. -1.
    9900012    2    1    2    0    0  0.10243861261E+02  0.14959488123E+02 -0.46857971109E+01  0.72461556851E+02  0.69999982488E+02 0.  0.
        -12    1    1    2    0    0 -0.10243861261E+02 -0.14959488123E+02  0.46857971109E+01  0.18726443149E+02  0.00000000000E+00 0.  1.
         11    1    3    3    0    0 -0.13204918909E+02 -0.12661787469E+02 -0.11616150044E+02  0.21670848793E+02  0.51100000000E-03 0. -1.
        -11    1    3    3    0    0  0.16427318547E+02  0.28494501283E+02 -0.83653351990E+01  0.33937769981E+02  0.51100000000E-03 0.  1.
        -12    1    3    3    0    0  0.70214616227E+01 -0.87322569124E+00  0.15295688132E+02  0.16852938078E+02  0.00000000000E+00 0.  1.
</event>
<event>
 7    1  0.1826069E-013  0.7246157E+02  0.7816164E-02  0.1226708E+00
        -11   -1    0    0    0    0  0.00000000000E+00  0.00000000000E+00  0.45593999997E+02  0.45594000000E+02  0.51100000000E-03 0. -1.
         11   -1    0    0    0    0 -0.00000000000E+00 -0.00000000000E+00 -0.45593999997E+02  0.45594000000E+02  0.51100000000E-03 0.  1.
    9900012    2    1    2    0    0 -0.38541827163E+01  0.18324694345E+02  0.17364289775E+00  0.72461566834E+02  0.69999995493E+02 0.  0.
        -12    1    1    2    0    0  0.38541827163E+01 -0.18324694345E+02 -0.17364289775E+00  0.18726433166E+02  0.00000000000E+00 0.  1.
         11    1    3    3    0    0  0.19444869301E+02  0.99339802364E+01  0.16725496986E+02  0.27505075080E+02  0.51100000000E-03 0. -1.
        -11    1    3    3    0    0 -0.17764042968E+02  0.21302911960E+02 -0.10467210532E+02  0.29646884780E+02  0.51100000000E-03 0.  1.
        -12    1    3    3    0    0 -0.55350090485E+01 -0.12912197851E+02 -0.60846435555E+01  0.15309606975E+02  0.00000000000E+00 0.  1.
</event>
<event>
 7    1  0.1826069E-013  0.7246157E+02  0.7816164E-02  0.1226708E+00
        -11   -1    0    0    0    0  0.00000000000E+00  0.00000000000E+00  0.45593999997E+02  0.45594000000E+02  0.51100000000E-03 0. -1.
         11   -1    0    0    0    0 -0.00000000000E+00 -0.00000000000E+00 -0.45593999997E+02  0.45594000000E+02  0.51100000000E-03 0.  1.
    9900012    2    1    2    0    0  0.29791913460E+01 -0.16128621161E+02  0.90372114673E+01  0.72461569674E+02  0.69999999192E+02 0.  0.
        -12    1    1    2    0    0 -0.29791913460E+01  0.16128621161E+02 -0.90372114673E+01  0.18726430326E+02  0.00000000000E+00 0.  1.
         11    1    3    3    0    0  0.30321600105E+01 -0.18265000882E+02  0.31635027416E+02  0.36654866135E+02  0.51100000000E-03 0. -1.
        -11    1    3    3    0    0  0.10302392678E+02 -0.37247899124E+00 -0.22936060727E+02  0.25146389750E+02  0.51100000000E-03 0.  1.
         12    1    3    3    0    0 -0.10355361342E+02  0.25088587118E+01  0.33824477896E+00  0.10660313790E+02  0.00000000000E+00 0. -1.
</event>
<event>
 7    1  0.1826069E-013  0.7246157E+02  0.7816164E-02  0.1226708E+00
        -11   -1    0    0    0    0  0.00000000000E+00  0.00000000000E+00  0.45593999997E+02  0.45594000000E+02  0.51100000000E-03 0. -1.
         11   -1    0    0    0    0 -0.00000000000E+00 -0.00000000000E+00 -0.45593999997E+02  0.45594000000E+02  0.51100000000E-03 0.  1.
    9900012    2    1    2    0    0 -0.38050441076E+01  0.14873094140E+02  0.10723421876E+02  0.72461573040E+02  0.70000003577E+02 0.  0.
        -12    1    1    2    0    0  0.38050441076E+01 -0.14873094140E+02 -0.10723421876E+02  0.18726426960E+02  0.00000000000E+00 0.  1.
         11    1    3    3    0    0 -0.24103422835E+01 -0.47533776369E+01  0.66401509381E+01  0.85144555683E+01  0.51100000000E-03 0. -1.
        -11    1    3    3    0    0 -0.62700320154E+00 -0.17271283348E+01 -0.26541424237E+02  0.26604948903E+02  0.51100000000E-03 0.  1.
        -12    1    3    3    0    0 -0.76769862250E+00  0.21353600112E+02  0.30624695175E+02  0.37342168569E+02  0.00000000000E+00 0.  1.
</event>
<event>
 7    1  0.1826069E-013  0.7246154E+02  0.7816164E-02  0.1226708E+00
        -11   -1    0    0    0    0  0.00000000000E+00  0.00000000000E+00  0.45593999997E+02  0.45594000000E+02  0.51100000000E-03 0. -1.
         11   -1    0    0    0    0 -0.00000000000E+00 -0.00000000000E+00 -0.45593999997E+02  0.45594000000E+02  0.51100000000E-03 0.  1.
    9900012    2    1    2    0    0  0.97114458632E+01 -0.35225489307E+00  0.16007626080E+02  0.72461538589E+02  0.69999958698E+02 0.  0.
        -12    1    1    2    0    0 -0.97114458632E+01  0.35225489307E+00 -0.16007626080E+02  0.18726461411E+02  0.00000000000E+00 0.  1.
         11    1    3    3    0    0 -0.15904103595E+02  0.36743114196E-01  0.15137756154E+02  0.21956628222E+02  0.51100000000E-03 0. -1.
        -11    1    3    3    0    0  0.26490312783E+02  0.10885618018E+02  0.15061550309E+02  0.32358671928E+02  0.51100000000E-03 0.  1.
        -12    1    3    3    0    0 -0.87476332420E+00 -0.11274616025E+02 -0.14191680384E+02  0.18146238439E+02  0.00000000000E+00 0.  1.
</event>
<event>
 7    1  0.1826069E-013  0.7246104E+02  0.7816164E-02  0.1226709E+00
        -11   -1    0    0    0    0  0.00000000000E+00  0.00000000000E+00  0.45593999997E+02  0.45594000000E+02  0.51100000000E-03 0. -1.
         11   -1    0    0    0    0 -0.00000000000E+00 -0.00000000000E+00 -0.45593999997E+02  0.45594000000E+02  0.51100000000E-03 0.  1.
    9900012    2    1    2    0    0  0.13305400984E+02  0.84707434037E+01  0.10095131263E+02  0.72461044445E+02  0.69999314980E+02 0.  0.
        -12    1    1    2    0    0 -0.13305400984E+02 -0.84707434037E+01 -0.10095131263E+02  0.18726955555E+02  0.00000000000E+00 0.  1.
         11    1    3    3    0    0  0.18153030950E+02  0.55670590749E+01  0.25802773395E+02  0.32036038996E+02  0.51100000000E-03 0. -1.
        -11    1    3    3    0    0 -0.15632641127E+02 -0.11168198341E+02 -0.10750873204E+02  0.22015662554E+02  0.51100000000E-03 0.  1.
         12    1    3    3    0    0  0.10785011161E+02  0.14071882670E+02 -0.49567689276E+01  0.18409342894E+02  0.00000000000E+00 0. -1.
</event>
<event>
 7    1  0.1826069E-013  0.7246158E+02  0.7816164E-02  0.1226708E+00
        -11   -1    0    0    0    0  0.00000000000E+00  0.00000000000E+00  0.45593999997E+02  0.45594000000E+02  0.51100000000E-03 0. -1.
         11   -1    0    0    0    0 -0.00000000000E+00 -0.00000000000E+00 -0.45593999997E+02  0.45594000000E+02  0.51100000000E-03 0.  1.
    9900012    2    1    2    0    0  0.17591473594E+02 -0.32483474649E+01  0.55377858367E+01  0.72461580790E+02  0.70000013672E+02 0.  0.
        -12    1    1    2    0    0 -0.17591473594E+02  0.32483474649E+01 -0.55377858367E+01  0.18726419210E+02  0.00000000000E+00 0.  1.
         11    1    3    3    0    0  0.29559539047E+02 -0.96781939433E+01  0.27607569229E+02  0.41588600189E+02  0.51100000000E-03 0. -1.
        -11    1    3    3    0    0 -0.11970949456E+02  0.72633071257E+01 -0.67742095900E+01  0.15554715590E+02  0.51100000000E-03 0.  1.
         12    1    3    3    0    0  0.28840027435E-02 -0.83346064736E+00 -0.15295573803E+02  0.15318265010E+02  0.00000000000E+00 0. -1.
</event>
<event>
 7    1  0.1826069E-013  0.7246152E+02  0.7816164E-02  0.1226708E+00
        -11   -1    0    0    0    0  0.00000000000E+00  0.00000000000E+00  0.45593999997E+02  0.45594000000E+02  0.51100000000E-03 0. -1.
         11   -1    0    0    0    0 -0.00000000000E+00 -0.00000000000E+00 -0.45593999997E+02  0.45594000000E+02  0.51100000000E-03 0.  1.
    9900012    2    1    2    0    0  0.10025602734E+02 -0.15775484163E+02 -0.11412604225E+01  0.72461519121E+02  0.69999933337E+02 0.  0.
        -12    1    1    2    0    0 -0.10025602734E+02  0.15775484163E+02  0.11412604225E+01  0.18726480879E+02  0.00000000000E+00 0.  1.
         11    1    3    3    0    0  0.10736364687E+02  0.44852249737E+01 -0.53868141967E+01  0.12822033271E+02  0.51100000000E-03 0. -1.
        -11    1    3    3    0    0 -0.15684751078E+02 -0.20336445115E+02 -0.19029150949E+02  0.31963901552E+02  0.51100000000E-03 0.  1.
        -12    1    3    3    0    0  0.14973989126E+02  0.75735978206E-01  0.23274704723E+02  0.27675584298E+02  0.00000000000E+00 0.  1.
</event>
<event>
 7    1  0.1826069E-013  0.7246159E+02  0.7816164E-02  0.1226708E+00
        -11   -1    0    0    0    0  0.00000000000E+00  0.00000000000E+00  0.45593999997E+02  0.45594000000E+02  0.51100000000E-03 0.  1.
         11   -1    0    0    0    0 -0.00000000000E+00 -0.00000000000E+00 -0.45593999997E+02  0.45594000000E+02  0.51100000000E-03 0. -1.
    9900012    2    1    2    0    0 -0.25603380020E+01 -0.17555514556E+02 -0.59939264941E+01  0.72461586120E+02  0.70000020615E+02 0.  0.
        -12    1    1    2    0    0  0.25603380020E+01  0.17555514556E+02  0.59939264941E+01  0.18726413880E+02  0.00000000000E+00 0.  1.
         11    1    3    3    0    0 -0.95362552764E+01  0.10535423559E+02 -0.25866270798E+02  0.29512696920E+02  0.51100000000E-03 0. -1.
        -11    1    3    3    0    0  0.15747013503E+02 -0.22759181362E+02  0.12859323044E+02  0.30517387829E+02  0.51100000000E-03 0.  1.
        -12    1    3    3    0    0 -0.87710962287E+01 -0.53317567531E+01  0.70130212593E+01  0.12431501370E+02  0.00000000000E+00 0.  1.
</event>
<event>
 7    1  0.2677228E-013  0.7246168E+02  0.7816164E-02  0.1226708E+00
        -11   -1    0    0    0    0  0.00000000000E+00  0.00000000000E+00  0.45593999997E+02  0.45594000000E+02  0.51100000000E-03 0. -1.
         11   -1    0    0    0    0 -0.00000000000E+00 -0.00000000000E+00 -0.45593999997E+02  0.45594000000E+02  0.51100000000E-03 0.  1.
    9900012    2    1    2    0    0 -0.76141031607E+01  0.10073730444E+02  0.13828253055E+02  0.72461676427E+02  0.70000138258E+02 0.  0.
        -12    1    1    2    0    0  0.76141031607E+01 -0.10073730444E+02 -0.13828253055E+02  0.18726323573E+02  0.00000000000E+00 0.  1.
         11    1    3    3    0    0 -0.30332639463E+02  0.84575301183E+01  0.11540190357E+02  0.33537662802E+02  0.51100000000E-03 0. -1.
        -11    1    3    3    0    0  0.84686672612E+01 -0.14840922945E+02  0.91931336622E+00  0.17111880562E+02  0.51100000000E-03 0.  1.
         12    1    3    3    0    0  0.14249869041E+02  0.16457123271E+02  0.13687493312E+01  0.21812133063E+02  0.00000000000E+00 0. -1.
</event>
<event>
 7    1  0.1826069E-013  0.7246155E+02  0.7816164E-02  0.1226708E+00
        -11   -1    0    0    0    0  0.00000000000E+00  0.00000000000E+00  0.45593999997E+02  0.45594000000E+02  0.51100000000E-03 0.  1.
         11   -1    0    0    0    0 -0.00000000000E+00 -0.00000000000E+00 -0.45593999997E+02  0.45594000000E+02  0.51100000000E-03 0. -1.
    9900012    2    1    2    0    0 -0.18276336229E+02 -0.27315621201E+01  0.30321556077E+01  0.72461551720E+02  0.69999975803E+02 0.  0.
        -12    1    1    2    0    0  0.18276336229E+02  0.27315621201E+01 -0.30321556077E+01  0.18726448280E+02  0.00000000000E+00 0.  1.
         11    1    3    3    0    0  0.15320348443E+02 -0.16010530811E+02  0.24061601741E+01  0.22289903102E+02  0.51100000000E-03 0. -1.
        -11    1    3    3    0    0 -0.19951392569E+02 -0.35493816538E+01  0.14073445207E+02  0.24672211814E+02  0.51100000000E-03 0.  1.
         12    1    3    3    0    0 -0.13645292103E+02  0.16828350344E+02 -0.13447449773E+02  0.25499436804E+02  0.00000000000E+00 0. -1.
</event>
<event>
 7    1  0.1826069E-013  0.7246159E+02  0.7816164E-02  0.1226708E+00
        -11   -1    0    0    0    0  0.00000000000E+00  0.00000000000E+00  0.45593999997E+02  0.45594000000E+02  0.51100000000E-03 0.  1.
         11   -1    0    0    0    0 -0.00000000000E+00 -0.00000000000E+00 -0.45593999997E+02  0.45594000000E+02  0.51100000000E-03 0. -1.
    9900012    2    1    2    0    0 -0.10325056857E+02 -0.23452288821E+01  0.15445758696E+02  0.72461591927E+02  0.70000028181E+02 0.  0.
        -12    1    1    2    0    0  0.10325056857E+02  0.23452288821E+01 -0.15445758696E+02  0.18726408073E+02  0.00000000000E+00 0.  1.
         11    1    3    3    0    0  0.48577746767E+01 -0.28011273128E+02  0.84505874145E+01  0.29658756295E+02  0.51100000000E-03 0. -1.
        -11    1    3    3    0    0 -0.11704050870E+02  0.18212793652E+02 -0.10056553410E+02  0.23871005972E+02  0.51100000000E-03 0.  1.
        -12    1    3    3    0    0 -0.34787806641E+01  0.74532505941E+01  0.17051724692E+02  0.18931829661E+02  0.00000000000E+00 0.  1.
</event>
<event>
 7    1  0.1826069E-013  0.7246158E+02  0.7816164E-02  0.1226708E+00
        -11   -1    0    0    0    0  0.00000000000E+00  0.00000000000E+00  0.45593999997E+02  0.45594000000E+02  0.51100000000E-03 0. -1.
         11   -1    0    0    0    0 -0.00000000000E+00 -0.00000000000E+00 -0.45593999997E+02  0.45594000000E+02  0.51100000000E-03 0.  1.
    9900012    2    1    2    0    0 -0.29730851178E+01 -0.14762297959E+02 -0.11131678533E+02  0.72461576340E+02  0.70000007875E+02 0.  0.
        -12    1    1    2    0    0  0.29730851178E+01  0.14762297959E+02  0.11131678533E+02  0.18726423660E+02  0.00000000000E+00 0.  1.
         11    1    3    3    0    0  0.30204895380E+00  0.14069142454E+02  0.42173287337E+01  0.14690740787E+02  0.51100000000E-03 0. -1.
        -11    1    3    3    0    0 -0.15490849623E+02 -0.14245327847E+02 -0.27922956963E+02  0.34965516060E+02  0.51100000000E-03 0.  1.
        -12    1    3    3    0    0  0.12215715552E+02 -0.14586112565E+02  0.12573949696E+02  0.22805319493E+02  0.00000000000E+00 0.  1.
</event>
<event>
 7    1  0.1826069E-013  0.7246158E+02  0.7816164E-02  0.1226708E+00
        -11   -1    0    0    0    0  0.00000000000E+00  0.00000000000E+00  0.45593999997E+02  0.45594000000E+02  0.51100000000E-03 0.  1.
         11   -1    0    0    0    0 -0.00000000000E+00 -0.00000000000E+00 -0.45593999997E+02  0.45594000000E+02  0.51100000000E-03 0. -1.
    9900012    2    1    2    0    0  0.11250444414E+02 -0.13421561008E+02 -0.66308441122E+01  0.72461577676E+02  0.70000009616E+02 0.  0.
        -12    1    1    2    0    0 -0.11250444414E+02  0.13421561008E+02  0.66308441122E+01  0.18726422324E+02  0.00000000000E+00 0.  1.
         11    1    3    3    0    0 -0.50788850263E+00 -0.28218394917E+02  0.39074102027E+00  0.28225669899E+02  0.51100000000E-03 0.  1.
        -11    1    3    3    0    0 -0.37555639035E+01  0.24256201947E+02 -0.85734039024E+01  0.25999439376E+02  0.51100000000E-03 0. -1.
         12    1    3    3    0    0  0.15513896820E+02 -0.94593680387E+01  0.15518187699E+01  0.18236468401E+02  0.00000000000E+00 0. -1.
</event>
<event>
 7    1  0.1826069E-013  0.7246134E+02  0.7816164E-02  0.1226709E+00
        -11   -1    0    0    0    0  0.00000000000E+00  0.00000000000E+00  0.45593999997E+02  0.45594000000E+02  0.51100000000E-03 0.  1.
         11   -1    0    0    0    0 -0.00000000000E+00 -0.00000000000E+00 -0.45593999997E+02  0.45594000000E+02  0.51100000000E-03 0. -1.
    9900012    2    1    2    0    0 -0.18594429384E+02  0.67610747961E+00 -0.21161183936E+01  0.72461337657E+02  0.69999696946E+02 0.  0.
        -12    1    1    2    0    0  0.18594429384E+02 -0.67610747961E+00  0.21161183936E+01  0.18726662343E+02  0.00000000000E+00 0.  1.
         11    1    3    3    0    0 -0.11519713248E+02 -0.20792100951E+02  0.18915812384E+02  0.30378005426E+02  0.51100000000E-03 0. -1.
        -11    1    3    3    0    0  0.78186112039E+01  0.16503147561E+02 -0.35798574642E+01  0.18609135937E+02  0.51100000000E-03 0.  1.
         12    1    3    3    0    0 -0.14893327341E+02  0.49650608698E+01 -0.17452073313E+02  0.23474196294E+02  0.00000000000E+00 0. -1.
</event>
<event>
 7    1  0.2301814E-013  0.7246159E+02  0.7816164E-02  0.1226708E+00
        -11   -1    0    0    0    0  0.00000000000E+00  0.00000000000E+00  0.45593999997E+02  0.45594000000E+02  0.51100000000E-03 0.  1.
         11   -1    0    0    0    0 -0.00000000000E+00 -0.00000000000E+00 -0.45593999997E+02  0.45594000000E+02  0.51100000000E-03 0. -1.
    9900012    2    1    2    0    0 -0.11541169857E+02  0.14665317684E+02  0.15518396667E+01  0.72461592155E+02  0.70000028478E+02 0.  0.
        -12    1    1    2    0    0  0.11541169857E+02 -0.14665317684E+02 -0.15518396667E+01  0.18726407845E+02  0.00000000000E+00 0.  1.
         11    1    3    3    0    0  0.20991217445E+01  0.75104228404E+01 -0.28574607582E+02  0.29619604354E+02  0.51100000000E-03 0. -1.
        -11    1    3    3    0    0  0.74156808615E+01 -0.27332179773E+00  0.11878408109E+02  0.14005841885E+02  0.51100000000E-03 0.  1.
         12    1    3    3    0    0 -0.21055972463E+02  0.74282166411E+01  0.18248039140E+02  0.28836145916E+02  0.00000000000E+00 0. -1.
</event>
<event>
 7    1  0.1826069E-013  0.7246158E+02  0.7816164E-02  0.1226708E+00
        -11   -1    0    0    0    0  0.00000000000E+00  0.00000000000E+00  0.45593999997E+02  0.45594000000E+02  0.51100000000E-03 0.  1.
         11   -1    0    0    0    0 -0.00000000000E+00 -0.00000000000E+00 -0.45593999997E+02  0.45594000000E+02  0.51100000000E-03 0. -1.
    9900012    2    1    2    0    0  0.28461578503E+01  0.27163289746E+01 -0.18308465508E+02  0.72461575705E+02  0.70000007049E+02 0.  0.
        -12    1    1    2    0    0 -0.28461578503E+01 -0.27163289746E+01  0.18308465508E+02  0.18726424295E+02  0.00000000000E+00 0.  1.
         11    1    3    3    0    0  0.10684264080E+02 -0.16741300695E+02  0.27827981118E+01  0.20054142053E+02  0.51100000000E-03 0. -1.
        -11    1    3    3    0    0  0.35433687432E+01  0.31329791923E+02 -0.13881231641E+02  0.34449962498E+02  0.51100000000E-03 0.  1.
        -12    1    3    3    0    0 -0.11381474972E+02 -0.11872162254E+02 -0.72100319783E+01  0.17957471154E+02  0.00000000000E+00 0.  1.
</event>
<event>
 7    1  0.1826069E-013  0.7246159E+02  0.7816164E-02  0.1226708E+00
        -11   -1    0    0    0    0  0.00000000000E+00  0.00000000000E+00  0.45593999997E+02  0.45594000000E+02  0.51100000000E-03 0.  1.
         11   -1    0    0    0    0 -0.00000000000E+00 -0.00000000000E+00 -0.45593999997E+02  0.45594000000E+02  0.51100000000E-03 0. -1.
    9900012    2    1    2    0    0  0.16169082236E+01  0.53233382125E+01 -0.17880891683E+02  0.72461585252E+02  0.70000019485E+02 0.  0.
        -12    1    1    2    0    0 -0.16169082236E+01 -0.53233382125E+01  0.17880891683E+02  0.18726414748E+02  0.00000000000E+00 0.  1.
         11    1    3    3    0    0  0.21285945489E+02 -0.92283251747E+01 -0.12575550741E+02  0.26389352732E+02  0.51100000000E-03 0.  1.
        -11    1    3    3    0    0 -0.22118169261E+02  0.22694907984E+02 -0.13330412948E+02  0.34379822127E+02  0.51100000000E-03 0. -1.
         12    1    3    3    0    0  0.24491319957E+01 -0.81432445969E+01  0.80250720059E+01  0.11692410393E+02  0.00000000000E+00 0. -1.
</event>
<event>
 7    1  0.1826069E-013  0.7246157E+02  0.7816164E-02  0.1226708E+00
        -11   -1    0    0    0    0  0.00000000000E+00  0.00000000000E+00  0.45593999997E+02  0.45594000000E+02  0.51100000000E-03 0.  1.
         11   -1    0    0    0    0 -0.00000000000E+00 -0.00000000000E+00 -0.45593999997E+02  0.45594000000E+02  0.51100000000E-03 0. -1.
    9900012    2    1    2    0    0 -0.16200061369E+02 -0.65325531207E+01 -0.67500253742E+01  0.72461572653E+02  0.70000003072E+02 0.  0.
        -12    1    1    2    0    0  0.16200061369E+02  0.65325531207E+01  0.67500253742E+01  0.18726427347E+02  0.00000000000E+00 0.  1.
         11    1    3    3    0    0 -0.17477790736E+02 -0.15269672911E+02  0.24599459111E+02  0.33819660978E+02  0.51100000000E-03 0. -1.
        -11    1    3    3    0    0  0.12209179830E+01  0.62082413873E+01  0.81383151087E+00  0.63792808241E+01  0.51100000000E-03 0.  1.
         12    1    3    3    0    0  0.56811383865E-01  0.25288784030E+01 -0.32163315996E+02  0.32262630851E+02  0.00000000000E+00 0. -1.
</event>
<event>
 7    1  0.1826069E-013  0.7246156E+02  0.7816164E-02  0.1226708E+00
        -11   -1    0    0    0    0  0.00000000000E+00  0.00000000000E+00  0.45593999997E+02  0.45594000000E+02  0.51100000000E-03 0. -1.
         11   -1    0    0    0    0 -0.00000000000E+00 -0.00000000000E+00 -0.45593999997E+02  0.45594000000E+02  0.51100000000E-03 0.  1.
    9900012    2    1    2    0    0 -0.16739902370E+02  0.44899597791E+01 -0.70919329760E+01  0.72461559241E+02  0.69999985601E+02 0.  0.
        -12    1    1    2    0    0  0.16739902370E+02 -0.44899597791E+01  0.70919329760E+01  0.18726440759E+02  0.00000000000E+00 0.  1.
         11    1    3    3    0    0 -0.37953940139E+02  0.15526730715E+02 -0.17089939898E+02  0.44425746868E+02  0.51100000000E-03 0. -1.
        -11    1    3    3    0    0  0.14246280451E+02 -0.16014934310E+01  0.41207065841E+01  0.14916484536E+02  0.51100000000E-03 0.  1.
         12    1    3    3    0    0  0.69677573180E+01 -0.94352775050E+01  0.58773003384E+01  0.13119327837E+02  0.00000000000E+00 0. -1.
</event>
<event>
 7    1  0.1826069E-013  0.7246157E+02  0.7816164E-02  0.1226708E+00
        -11   -1    0    0    0    0  0.00000000000E+00  0.00000000000E+00  0.45593999997E+02  0.45594000000E+02  0.51100000000E-03 0.  1.
         11   -1    0    0    0    0 -0.00000000000E+00 -0.00000000000E+00 -0.45593999997E+02  0.45594000000E+02  0.51100000000E-03 0. -1.
    9900012    2    1    2    0    0 -0.28890164251E+01 -0.18489828589E+02  0.67755163294E+00  0.72461568056E+02  0.69999997084E+02 0.  0.
        -12    1    1    2    0    0  0.28890164251E+01  0.18489828589E+02 -0.67755163294E+00  0.18726431944E+02  0.00000000000E+00 0.  1.
         11    1    3    3    0    0  0.22888187310E+02  0.15566946685E+02  0.32732757396E+01  0.27873164187E+02  0.51100000000E-03 0. -1.
        -11    1    3    3    0    0  0.37626268695E+00 -0.19228319413E+01 -0.24747061316E+01  0.31564262993E+01  0.51100000000E-03 0.  1.
         12    1    3    3    0    0 -0.26153466422E+02 -0.32133943333E+02 -0.12101797513E+00  0.41431977570E+02  0.00000000000E+00 0. -1.
</event>
<event>
 7    1  0.1826069E-013  0.7246145E+02  0.7816164E-02  0.1226708E+00
        -11   -1    0    0    0    0  0.00000000000E+00  0.00000000000E+00  0.45593999997E+02  0.45594000000E+02  0.51100000000E-03 0.  1.
         11   -1    0    0    0    0 -0.00000000000E+00 -0.00000000000E+00 -0.45593999997E+02  0.45594000000E+02  0.51100000000E-03 0. -1.
    9900012    2    1    2    0    0 -0.14131896855E+02  0.11996837793E+02 -0.26549940848E+01  0.72461451483E+02  0.69999845226E+02 0.  0.
        -12    1    1    2    0    0  0.14131896855E+02 -0.11996837793E+02  0.26549940848E+01  0.18726548517E+02  0.00000000000E+00 0.  1.
         11    1    3    3    0    0 -0.58457961783E-01  0.60568279965E+01 -0.78550743383E+01  0.99192124604E+01  0.51100000000E-03 0. -1.
        -11    1    3    3    0    0 -0.37362635615E+02  0.15309083758E+01 -0.28681116686E+01  0.37503816944E+02  0.51100000000E-03 0.  1.
        -12    1    3    3    0    0  0.23289196722E+02  0.44091014211E+01  0.80681919221E+01  0.25038422078E+02  0.00000000000E+00 0.  1.
</event>
<event>
 7    1  0.1826069E-013  0.7246157E+02  0.7816164E-02  0.1226708E+00
        -11   -1    0    0    0    0  0.00000000000E+00  0.00000000000E+00  0.45593999997E+02  0.45594000000E+02  0.51100000000E-03 0.  1.
         11   -1    0    0    0    0 -0.00000000000E+00 -0.00000000000E+00 -0.45593999997E+02  0.45594000000E+02  0.51100000000E-03 0. -1.
    9900012    2    1    2    0    0  0.14477286100E+01  0.21208288882E+01 -0.18549536768E+02  0.72461570879E+02  0.70000000762E+02 0.  0.
        -12    1    1    2    0    0 -0.14477286100E+01 -0.21208288882E+01  0.18549536768E+02  0.18726429121E+02  0.00000000000E+00 0.  1.
         11    1    3    3    0    0 -0.12433016726E+02  0.33740268009E+01 -0.30186763167E+02  0.32820795733E+02  0.51100000000E-03 0. -1.
        -11    1    3    3    0    0 -0.94366841287E+00 -0.12501761734E+01  0.21678963638E+02  0.21735475961E+02  0.51100000000E-03 0.  1.
         12    1    3    3    0    0  0.14824413749E+02 -0.30217392505E-02 -0.10041737240E+02  0.17905299186E+02  0.00000000000E+00 0. -1.
</event>
<event>
 7    1  0.1826069E-013  0.7246153E+02  0.7816164E-02  0.1226708E+00
        -11   -1    0    0    0    0  0.00000000000E+00  0.00000000000E+00  0.45593999997E+02  0.45594000000E+02  0.51100000000E-03 0. -1.
         11   -1    0    0    0    0 -0.00000000000E+00 -0.00000000000E+00 -0.45593999997E+02  0.45594000000E+02  0.51100000000E-03 0.  1.
    9900012    2    1    2    0    0 -0.67085039344E+01 -0.11742805166E+02  0.12953113239E+02  0.72461531011E+02  0.69999948826E+02 0.  0.
        -12    1    1    2    0    0  0.67085039344E+01  0.11742805166E+02 -0.12953113239E+02  0.18726468989E+02  0.00000000000E+00 0.  1.
         11    1    3    3    0    0  0.23614337950E+02 -0.19304866770E+02  0.16946169048E+02  0.34892513287E+02  0.51100000000E-03 0. -1.
        -11    1    3    3    0    0 -0.18795160811E+02  0.14230853369E+02  0.29907801749E+00  0.23576783187E+02  0.51100000000E-03 0.  1.
        -12    1    3    3    0    0 -0.11527681073E+02 -0.66687917654E+01 -0.42921338265E+01  0.13992234536E+02  0.00000000000E+00 0.  1.
</event>
<event>
 7    1  0.1826069E-013  0.7246164E+02  0.7816164E-02  0.1226708E+00
        -11   -1    0    0    0    0  0.00000000000E+00  0.00000000000E+00  0.45593999997E+02  0.45594000000E+02  0.51100000000E-03 0.  1.
         11   -1    0    0    0    0 -0.00000000000E+00 -0.00000000000E+00 -0.45593999997E+02  0.45594000000E+02  0.51100000000E-03 0. -1.
    9900012    2    1    2    0    0 -0.12279829909E+02 -0.14024091105E+02 -0.17908448931E+01  0.72461642123E+02  0.70000093570E+02 0.  0.
        -12    1    1    2    0    0  0.12279829909E+02  0.14024091105E+02  0.17908448931E+01  0.18726357877E+02  0.00000000000E+00 0.  1.
         11    1    3    3    0    0  0.22660129754E+02 -0.37094714696E+01 -0.16504796436E+02  0.28278082762E+02  0.51100000000E-03 0. -1.
        -11    1    3    3    0    0 -0.23910532634E+02 -0.13667685351E+02  0.29267362939E+01  0.27696299018E+02  0.51100000000E-03 0.  1.
         12    1    3    3    0    0 -0.11029427029E+02  0.33530657152E+01  0.11787215249E+02  0.16487260342E+02  0.00000000000E+00 0. -1.
</event>
<event>
 7    1  0.1826069E-013  0.7246158E+02  0.7816164E-02  0.1226708E+00
        -11   -1    0    0    0    0  0.00000000000E+00  0.00000000000E+00  0.45593999997E+02  0.45594000000E+02  0.51100000000E-03 0.  1.
         11   -1    0    0    0    0 -0.00000000000E+00 -0.00000000000E+00 -0.45593999997E+02  0.45594000000E+02  0.51100000000E-03 0. -1.
    9900012    2    1    2    0    0  0.14556616764E+02 -0.86497748794E+01 -0.79978250378E+01  0.72461577426E+02  0.70000009290E+02 0.  0.
        -12    1    1    2    0    0 -0.14556616764E+02  0.86497748794E+01  0.79978250378E+01  0.18726422574E+02  0.00000000000E+00 0.  1.
         11    1    3    3    0    0 -0.34229602497E+01  0.18119423809E+02 -0.93051356744E+01  0.20654678071E+02  0.51100000000E-03 0. -1.
        -11    1    3    3    0    0  0.13781472049E+02 -0.35195561212E+02  0.98873389327E+01  0.39069373840E+02  0.51100000000E-03 0.  1.
        -12    1    3    3    0    0  0.41981049652E+01  0.84263625231E+01 -0.85800282961E+01  0.12737525514E+02  0.00000000000E+00 0.  1.
</event>
<event>
 7    1  0.1826069E-013  0.7246158E+02  0.7816164E-02  0.1226708E+00
        -11   -1    0    0    0    0  0.00000000000E+00  0.00000000000E+00  0.45593999997E+02  0.45594000000E+02  0.51100000000E-03 0. -1.
         11   -1    0    0    0    0 -0.00000000000E+00 -0.00000000000E+00 -0.45593999997E+02  0.45594000000E+02  0.51100000000E-03 0.  1.
    9900012    2    1    2    0    0 -0.95734906195E+01 -0.45231590754E+01  0.15445656042E+02  0.72461575322E+02  0.70000006549E+02 0.  0.
        -12    1    1    2    0    0  0.95734906195E+01  0.45231590754E+01 -0.15445656042E+02  0.18726424678E+02  0.00000000000E+00 0.  1.
         11    1    3    3    0    0 -0.50670308128E+00  0.29500919676E+02  0.35511807005E+01  0.29718208129E+02  0.51100000000E-03 0.  1.
        -11    1    3    3    0    0 -0.75188969129E+00 -0.26685895621E+02  0.29868652265E+00  0.26698156811E+02  0.51100000000E-03 0. -1.
         12    1    3    3    0    0 -0.83148978470E+01 -0.73381831304E+01  0.11595788819E+02  0.16045210382E+02  0.00000000000E+00 0. -1.
</event>
<event>
 7    1  0.1826069E-013  0.7246158E+02  0.7816164E-02  0.1226708E+00
        -11   -1    0    0    0    0  0.00000000000E+00  0.00000000000E+00  0.45593999997E+02  0.45594000000E+02  0.51100000000E-03 0.  1.
         11   -1    0    0    0    0 -0.00000000000E+00 -0.00000000000E+00 -0.45593999997E+02  0.45594000000E+02  0.51100000000E-03 0. -1.
    9900012    2    1    2    0    0 -0.25549795209E+01  0.10132524392E+02 -0.15539722220E+02  0.72461576487E+02  0.70000008068E+02 0.  0.
        -12    1    1    2    0    0  0.25549795209E+01 -0.10132524392E+02  0.15539722220E+02  0.18726423513E+02  0.00000000000E+00 0.  1.
         11    1    3    3    0    0 -0.23585686581E+02  0.82266587974E+00 -0.13758305061E+02  0.27317619755E+02  0.51100000000E-03 0. -1.
        -11    1    3    3    0    0  0.23759758846E+02 -0.13471141171E+01 -0.14858128181E+02  0.28055388611E+02  0.51100000000E-03 0.  1.
        -12    1    3    3    0    0 -0.27290517853E+01  0.10656972630E+02  0.13076711022E+02  0.17088568121E+02  0.00000000000E+00 0.  1.
</event>
<event>
 7    1  0.1826069E-013  0.7246153E+02  0.7816164E-02  0.1226708E+00
        -11   -1    0    0    0    0  0.00000000000E+00  0.00000000000E+00  0.45593999997E+02  0.45594000000E+02  0.51100000000E-03 0. -1.
         11   -1    0    0    0    0 -0.00000000000E+00 -0.00000000000E+00 -0.45593999997E+02  0.45594000000E+02  0.51100000000E-03 0.  1.
    9900012    2    1    2    0    0  0.14977965494E+02 -0.61927970453E+01  0.93803338540E+01  0.72461525458E+02  0.69999941592E+02 0.  0.
        -12    1    1    2    0    0 -0.14977965494E+02  0.61927970453E+01 -0.93803338540E+01  0.18726474542E+02  0.00000000000E+00 0.  1.
         11    1    3    3    0    0  0.23149443353E+02  0.58799226578E+01  0.32351806070E+02  0.40213300961E+02  0.51100000000E-03 0. -1.
        -11    1    3    3    0    0 -0.99872793099E+01  0.24725009654E+00 -0.12317571662E+02  0.15859680089E+02  0.51100000000E-03 0.  1.
        -12    1    3    3    0    0  0.18158014509E+01 -0.12319969800E+02 -0.10653900554E+02  0.16388544407E+02  0.00000000000E+00 0.  1.
</event>
<event>
 7    1  0.1826069E-013  0.7246142E+02  0.7816164E-02  0.1226708E+00
        -11   -1    0    0    0    0  0.00000000000E+00  0.00000000000E+00  0.45593999997E+02  0.45594000000E+02  0.51100000000E-03 0. -1.
         11   -1    0    0    0    0 -0.00000000000E+00 -0.00000000000E+00 -0.45593999997E+02  0.45594000000E+02  0.51100000000E-03 0.  1.
    9900012    2    1    2    0    0  0.62308978864E+01 -0.16506239870E+02  0.62773285523E+01  0.72461417374E+02  0.69999800792E+02 0.  0.
        -12    1    1    2    0    0 -0.62308978864E+01  0.16506239870E+02 -0.62773285523E+01  0.18726582626E+02  0.00000000000E+00 0.  1.
         11    1    3    3    0    0 -0.44546586875E+01 -0.39082318344E+02 -0.30095864919E+01  0.39450338430E+02  0.51100000000E-03 0. -1.
        -11    1    3    3    0    0  0.14319157122E+02  0.17573711034E+02  0.10250881213E+01  0.22691945401E+02  0.51100000000E-03 0.  1.
         12    1    3    3    0    0 -0.36336005479E+01  0.50023674403E+01  0.82618269229E+01  0.10319133542E+02  0.00000000000E+00 0. -1.
</event>
<event>
 7    1  0.1826069E-013  0.7246159E+02  0.7816164E-02  0.1226708E+00
        -11   -1    0    0    0    0  0.00000000000E+00  0.00000000000E+00  0.45593999997E+02  0.45594000000E+02  0.51100000000E-03 0. -1.
         11   -1    0    0    0    0 -0.00000000000E+00 -0.00000000000E+00 -0.45593999997E+02  0.45594000000E+02  0.51100000000E-03 0.  1.
    9900012    2    1    2    0    0 -0.12172718389E+02  0.97936132687E+01 -0.10324172567E+02  0.72461588890E+02  0.70000024225E+02 0.  0.
        -12    1    1    2    0    0  0.12172718389E+02 -0.97936132687E+01  0.10324172567E+02  0.18726411110E+02  0.00000000000E+00 0.  1.
         11    1    3    3    0    0  0.14580342555E+02  0.92879893961E+00  0.67551675873E+01  0.16096004035E+02  0.51100000000E-03 0. -1.
        -11    1    3    3    0    0 -0.17977128662E+02  0.23337670372E+02  0.35604522130E+01  0.29673234295E+02  0.51100000000E-03 0.  1.
        -12    1    3    3    0    0 -0.87759322828E+01 -0.14472856043E+02 -0.20639792368E+02  0.26692350560E+02  0.00000000000E+00 0.  1.
</event>
<event>
 7    1  0.1826069E-013  0.7246157E+02  0.7816164E-02  0.1226708E+00
        -11   -1    0    0    0    0  0.00000000000E+00  0.00000000000E+00  0.45593999997E+02  0.45594000000E+02  0.51100000000E-03 0.  1.
         11   -1    0    0    0    0 -0.00000000000E+00 -0.00000000000E+00 -0.45593999997E+02  0.45594000000E+02  0.51100000000E-03 0. -1.
    9900012    2    1    2    0    0  0.15181694557E+02 -0.10692680350E+02 -0.24211693756E+01  0.72461566174E+02  0.69999994633E+02 0.  0.
        -12    1    1    2    0    0 -0.15181694557E+02  0.10692680350E+02  0.24211693756E+01  0.18726433826E+02  0.00000000000E+00 0.  1.
         11    1    3    3    0    0  0.27218505787E+02  0.90285267440E+01  0.13973035433E+02  0.31899954105E+02  0.51100000000E-03 0. -1.
        -11    1    3    3    0    0 -0.12322549760E+02 -0.12447430037E+02  0.47926471552E+01  0.18159108297E+02  0.51100000000E-03 0.  1.
         12    1    3    3    0    0  0.28573853035E+00 -0.72737770566E+01 -0.21186851963E+02  0.22402503773E+02  0.00000000000E+00 0. -1.
</event>
<event>
 7    1  0.1826069E-013  0.7246168E+02  0.7816164E-02  0.1226708E+00
        -11   -1    0    0    0    0  0.00000000000E+00  0.00000000000E+00  0.45593999997E+02  0.45594000000E+02  0.51100000000E-03 0. -1.
         11   -1    0    0    0    0 -0.00000000000E+00 -0.00000000000E+00 -0.45593999997E+02  0.45594000000E+02  0.51100000000E-03 0.  1.
    9900012    2    1    2    0    0  0.18281052215E+02 -0.39837085152E+01 -0.77980587410E+00  0.72461684270E+02  0.70000148474E+02 0.  0.
        -12    1    1    2    0    0 -0.18281052215E+02  0.39837085152E+01  0.77980587410E+00  0.18726315730E+02  0.00000000000E+00 0.  1.
         11    1    3    3    0    0  0.65377101876E+01  0.77710220469E+01 -0.94797722474E+00  0.10199465635E+02  0.51100000000E-03 0. -1.
        -11    1    3    3    0    0 -0.23179084198E+02  0.46925919900E+01  0.63150593757E+00  0.23657750609E+02  0.51100000000E-03 0.  1.
        -12    1    3    3    0    0  0.34922426226E+02 -0.16447322552E+02 -0.46333458694E+00  0.38604468026E+02  0.00000000000E+00 0.  1.
</event>
<event>
 7    1  0.1826069E-013  0.7246153E+02  0.7816164E-02  0.1226708E+00
        -11   -1    0    0    0    0  0.00000000000E+00  0.00000000000E+00  0.45593999997E+02  0.45594000000E+02  0.51100000000E-03 0.  1.
         11   -1    0    0    0    0 -0.00000000000E+00 -0.00000000000E+00 -0.45593999997E+02  0.45594000000E+02  0.51100000000E-03 0. -1.
    9900012    2    1    2    0    0  0.67496183350E+01  0.14220513398E+01 -0.17409794100E+02  0.72461534549E+02  0.69999953435E+02 0.  0.
        -12    1    1    2    0    0 -0.67496183350E+01 -0.14220513398E+01  0.17409794100E+02  0.18726465451E+02  0.00000000000E+00 0.  1.
         11    1    3    3    0    0 -0.47177349872E+01 -0.79626615489E+01 -0.37140053511E+02  0.38275900739E+02  0.51100000000E-03 0. -1.
        -11    1    3    3    0    0 -0.20313791646E+01  0.11008463319E+02  0.12803974395E+01  0.11267305970E+02  0.51100000000E-03 0.  1.
         12    1    3    3    0    0  0.13498732487E+02 -0.16237504308E+01  0.18449861971E+02  0.22918327839E+02  0.00000000000E+00 0. -1.
</event>
<event>
 7    1  0.1826069E-013  0.7246161E+02  0.7816164E-02  0.1226708E+00
        -11   -1    0    0    0    0  0.00000000000E+00  0.00000000000E+00  0.45593999997E+02  0.45594000000E+02  0.51100000000E-03 0.  1.
         11   -1    0    0    0    0 -0.00000000000E+00 -0.00000000000E+00 -0.45593999997E+02  0.45594000000E+02  0.51100000000E-03 0. -1.
    9900012    2    1    2    0    0  0.75160789199E+01  0.57133016004E+00 -0.17142340483E+02  0.72461609592E+02  0.70000051193E+02 0.  0.
        -12    1    1    2    0    0 -0.75160789199E+01 -0.57133016004E+00  0.17142340483E+02  0.18726390408E+02  0.00000000000E+00 0.  1.
         11    1    3    3    0    0  0.86269831028E+01  0.59991311334E+01 -0.42198246456E+02  0.43486853371E+02  0.51100000000E-03 0. -1.
        -11    1    3    3    0    0  0.52003936874E+01 -0.48883665901E+01  0.18635962783E+02  0.19955934744E+02  0.51100000000E-03 0.  1.
         12    1    3    3    0    0 -0.63112978703E+01 -0.53943438328E+00  0.64199431913E+01  0.90188214774E+01  0.00000000000E+00 0. -1.
</event>
<event>
 7    1  0.1826069E-013  0.7246158E+02  0.7816164E-02  0.1226708E+00
        -11   -1    0    0    0    0  0.00000000000E+00  0.00000000000E+00  0.45593999997E+02  0.45594000000E+02  0.51100000000E-03 0.  1.
         11   -1    0    0    0    0 -0.00000000000E+00 -0.00000000000E+00 -0.45593999997E+02  0.45594000000E+02  0.51100000000E-03 0. -1.
    9900012    2    1    2    0    0 -0.11776030663E+02  0.29426951334E+00 -0.14557380957E+02  0.72461579279E+02  0.70000011704E+02 0.  0.
        -12    1    1    2    0    0  0.11776030663E+02 -0.29426951334E+00  0.14557380957E+02  0.18726420721E+02  0.00000000000E+00 0.  1.
         11    1    3    3    0    0  0.15556659177E+02 -0.14866229977E+01 -0.19251478445E+02  0.24795949574E+02  0.51100000000E-03 0. -1.
        -11    1    3    3    0    0 -0.88146278528E+01  0.12153232906E+02  0.17357804486E+02  0.22949773661E+02  0.51100000000E-03 0.  1.
         12    1    3    3    0    0 -0.18518061987E+02 -0.10372340395E+02 -0.12663706998E+02  0.24715856043E+02  0.00000000000E+00 0. -1.
</event>
<event>
 7    1  0.1826069E-013  0.7246155E+02  0.7816164E-02  0.1226708E+00
        -11   -1    0    0    0    0  0.00000000000E+00  0.00000000000E+00  0.45593999997E+02  0.45594000000E+02  0.51100000000E-03 0. -1.
         11   -1    0    0    0    0 -0.00000000000E+00 -0.00000000000E+00 -0.45593999997E+02  0.45594000000E+02  0.51100000000E-03 0.  1.
    9900012    2    1    2    0    0  0.15228696770E+02  0.31287620035E+01  0.10439233540E+02  0.72461549351E+02  0.69999972718E+02 0.  0.
        -12    1    1    2    0    0 -0.15228696770E+02 -0.31287620035E+01 -0.10439233540E+02  0.18726450649E+02  0.00000000000E+00 0.  1.
         11    1    3    3    0    0  0.14461035862E+02 -0.15229888482E+02  0.19467724997E+02  0.28636748737E+02  0.51100000000E-03 0. -1.
        -11    1    3    3    0    0  0.80258918822E+01  0.11537533359E+02 -0.22827103275E+02  0.26806832351E+02  0.51100000000E-03 0.  1.
         12    1    3    3    0    0 -0.72582309741E+01  0.68211171261E+01  0.13798611818E+02  0.17017968263E+02  0.00000000000E+00 0. -1.
</event>
<event>
 7    1  0.1826069E-013  0.7246156E+02  0.7816164E-02  0.1226708E+00
        -11   -1    0    0    0    0  0.00000000000E+00  0.00000000000E+00  0.45593999997E+02  0.45594000000E+02  0.51100000000E-03 0.  1.
         11   -1    0    0    0    0 -0.00000000000E+00 -0.00000000000E+00 -0.45593999997E+02  0.45594000000E+02  0.51100000000E-03 0. -1.
    9900012    2    1    2    0    0  0.17903055536E+02 -0.53406419482E+01  0.12796931887E+01  0.72461562309E+02  0.69999989598E+02 0.  0.
        -12    1    1    2    0    0 -0.17903055536E+02  0.53406419482E+01 -0.12796931887E+01  0.18726437691E+02  0.00000000000E+00 0.  1.
         11    1    3    3    0    0  0.34681613612E+02 -0.12590873007E+02  0.21586516690E+02  0.42747188315E+02  0.51100000000E-03 0. -1.
        -11    1    3    3    0    0 -0.96589093234E+01  0.10072026513E+02 -0.11874433588E+02  0.18323275381E+02  0.51100000000E-03 0.  1.
         12    1    3    3    0    0 -0.71196487531E+01 -0.28217954544E+01 -0.84323899128E+01  0.11391098612E+02  0.00000000000E+00 0. -1.
</event>
<event>
 7    1  0.1826069E-013  0.7246158E+02  0.7816164E-02  0.1226708E+00
        -11   -1    0    0    0    0  0.00000000000E+00  0.00000000000E+00  0.45593999997E+02  0.45594000000E+02  0.51100000000E-03 0.  1.
         11   -1    0    0    0    0 -0.00000000000E+00 -0.00000000000E+00 -0.45593999997E+02  0.45594000000E+02  0.51100000000E-03 0. -1.
    9900012    2    1    2    0    0 -0.13433001800E+02 -0.71062844190E+01 -0.10942306270E+02  0.72461577968E+02  0.70000009997E+02 0.  0.
        -12    1    1    2    0    0  0.13433001800E+02  0.71062844190E+01  0.10942306270E+02  0.18726422032E+02  0.00000000000E+00 0.  1.
         11    1    3    3    0    0 -0.25764197058E+02  0.17155659012E+02 -0.21284120729E+02  0.37564934203E+02  0.51100000000E-03 0. -1.
        -11    1    3    3    0    0  0.41391255433E+01  0.13277200631E+01  0.64050841652E+01  0.77408206447E+01  0.51100000000E-03 0.  1.
         12    1    3    3    0    0  0.81920697147E+01 -0.25589663494E+02  0.39367302944E+01  0.27155823121E+02  0.00000000000E+00 0. -1.
</event>
<event>
 7    1  0.1826069E-013  0.7246161E+02  0.7816164E-02  0.1226708E+00
        -11   -1    0    0    0    0  0.00000000000E+00  0.00000000000E+00  0.45593999997E+02  0.45594000000E+02  0.51100000000E-03 0.  1.
         11   -1    0    0    0    0 -0.00000000000E+00 -0.00000000000E+00 -0.45593999997E+02  0.45594000000E+02  0.51100000000E-03 0. -1.
    9900012    2    1    2    0    0  0.88983833105E+01 -0.32246989897E+01  0.16158519789E+02  0.72461610309E+02  0.70000052126E+02 0.  0.
        -12    1    1    2    0    0 -0.88983833105E+01  0.32246989897E+01 -0.16158519789E+02  0.18726389691E+02  0.00000000000E+00 0.  1.
         11    1    3    3    0    0 -0.22320951889E+02 -0.12312944707E+02  0.11161690386E+02  0.27828345857E+02  0.51100000000E-03 0. -1.
        -11    1    3    3    0    0  0.24763241946E+02 -0.51941692531E+01  0.11336733859E+02  0.27725783681E+02  0.51100000000E-03 0.  1.
         12    1    3    3    0    0  0.64560932540E+01  0.14282414971E+02 -0.63399044564E+01  0.16907480771E+02  0.00000000000E+00 0. -1.
</event>
<event>
 7    1  0.1826069E-013  0.7246175E+02  0.7816164E-02  0.1226708E+00
        -11   -1    0    0    0    0  0.00000000000E+00  0.00000000000E+00  0.45593999997E+02  0.45594000000E+02  0.51100000000E-03 0.  1.
         11   -1    0    0    0    0 -0.00000000000E+00 -0.00000000000E+00 -0.45593999997E+02  0.45594000000E+02  0.51100000000E-03 0. -1.
    9900012    2    1    2    0    0 -0.88111804840E+01 -0.88952115352E+00 -0.16499826903E+02  0.72461750049E+02  0.70000234164E+02 0.  0.
        -12    1    1    2    0    0  0.88111804840E+01  0.88952115352E+00  0.16499826903E+02  0.18726249951E+02  0.00000000000E+00 0.  1.
         11    1    3    3    0    0  0.11487259605E+02  0.13089009545E+02  0.13025475511E+02  0.21747236989E+02  0.51100000000E-03 0.  1.
        -11    1    3    3    0    0 -0.25045293843E+02 -0.20949059003E+02 -0.25143694557E+02  0.41210862561E+02  0.51100000000E-03 0. -1.
         12    1    3    3    0    0  0.47468537538E+01  0.69705283049E+01 -0.43816078560E+01  0.95036504993E+01  0.00000000000E+00 0. -1.
</event>
<event>
 7    1  0.1826069E-013  0.7246163E+02  0.7816164E-02  0.1226708E+00
        -11   -1    0    0    0    0  0.00000000000E+00  0.00000000000E+00  0.45593999997E+02  0.45594000000E+02  0.51100000000E-03 0. -1.
         11   -1    0    0    0    0 -0.00000000000E+00 -0.00000000000E+00 -0.45593999997E+02  0.45594000000E+02  0.51100000000E-03 0.  1.
    9900012    2    1    2    0    0  0.32772768548E+01  0.15558827215E+02  0.98923795202E+01  0.72461633015E+02  0.70000081705E+02 0.  0.
        -12    1    1    2    0    0 -0.32772768548E+01 -0.15558827215E+02 -0.98923795202E+01  0.18726366985E+02  0.00000000000E+00 0.  1.
         11    1    3    3    0    0 -0.92143292859E+01  0.20326566198E+02  0.16053455137E+02  0.27491572885E+02  0.51100000000E-03 0. -1.
        -11    1    3    3    0    0  0.27628646281E+02 -0.47882399641E+01 -0.92387910087E+01  0.29523289058E+02  0.51100000000E-03 0.  1.
         12    1    3    3    0    0 -0.15137040140E+02  0.20500981359E-01  0.30777153916E+01  0.15446771071E+02  0.00000000000E+00 0. -1.
</event>
<event>
 7    1  0.1826069E-013  0.7246151E+02  0.7816164E-02  0.1226708E+00
        -11   -1    0    0    0    0  0.00000000000E+00  0.00000000000E+00  0.45593999997E+02  0.45594000000E+02  0.51100000000E-03 0. -1.
         11   -1    0    0    0    0 -0.00000000000E+00 -0.00000000000E+00 -0.45593999997E+02  0.45594000000E+02  0.51100000000E-03 0.  1.
    9900012    2    1    2    0    0  0.17710553981E+02 -0.20451250000E+01  0.57302064275E+01  0.72461507422E+02  0.69999918097E+02 0.  0.
        -12    1    1    2    0    0 -0.17710553981E+02  0.20451250000E+01 -0.57302064275E+01  0.18726492578E+02  0.00000000000E+00 0.  1.
         11    1    3    3    0    0  0.18549440031E+02 -0.14091280609E+02  0.50349873572E+01  0.23832687902E+02  0.51100000000E-03 0. -1.
        -11    1    3    3    0    0 -0.13718495928E+02  0.17869195183E+02 -0.15338768424E+02  0.27254047113E+02  0.51100000000E-03 0.  1.
        -12    1    3    3    0    0  0.12879609878E+02 -0.58230395744E+01  0.16033987494E+02  0.21374772407E+02  0.00000000000E+00 0.  1.
</event>
<event>
 7    1  0.1826069E-013  0.7246164E+02  0.7816164E-02  0.1226708E+00
        -11   -1    0    0    0    0  0.00000000000E+00  0.00000000000E+00  0.45593999997E+02  0.45594000000E+02  0.51100000000E-03 0.  1.
         11   -1    0    0    0    0 -0.00000000000E+00 -0.00000000000E+00 -0.45593999997E+02  0.45594000000E+02  0.51100000000E-03 0. -1.
    9900012    2    1    2    0    0 -0.13236571252E+02  0.90420640643E+01 -0.96804309605E+01  0.72461641981E+02  0.70000093386E+02 0.  0.
        -12    1    1    2    0    0  0.13236571252E+02 -0.90420640643E+01  0.96804309605E+01  0.18726358019E+02  0.00000000000E+00 0.  1.
         11    1    3    3    0    0 -0.20482332476E+02  0.28462599956E+02  0.13538089262E+01  0.35092425661E+02  0.51100000000E-03 0. -1.
        -11    1    3    3    0    0 -0.58317821347E+01 -0.75315424979E+01  0.72262768735E+01  0.11956290937E+02  0.51100000000E-03 0.  1.
         12    1    3    3    0    0  0.13077543358E+02 -0.11888993393E+02 -0.18260516760E+02  0.25412925383E+02  0.00000000000E+00 0. -1.
</event>
<event>
 7    1  0.1826069E-013  0.7246168E+02  0.7816164E-02  0.1226708E+00
        -11   -1    0    0    0    0  0.00000000000E+00  0.00000000000E+00  0.45593999997E+02  0.45594000000E+02  0.51100000000E-03 0. -1.
         11   -1    0    0    0    0 -0.00000000000E+00 -0.00000000000E+00 -0.45593999997E+02  0.45594000000E+02  0.51100000000E-03 0.  1.
    9900012    2    1    2    0    0  0.16279250888E+02 -0.88172085580E+01  0.28138751881E+01  0.72461679758E+02  0.70000142597E+02 0.  0.
        -12    1    1    2    0    0 -0.16279250888E+02  0.88172085580E+01 -0.28138751881E+01  0.18726320242E+02  0.00000000000E+00 0.  1.
         11    1    3    3    0    0 -0.16768959112E-01  0.28025466401E+02  0.33528701569E+01  0.28225321729E+02  0.51100000000E-03 0. -1.
        -11    1    3    3    0    0  0.43330459798E+01 -0.76720316315E+01 -0.79290180910E+01  0.11853467213E+02  0.51100000000E-03 0.  1.
         12    1    3    3    0    0  0.11962973867E+02 -0.29170643327E+02  0.73900231222E+01  0.32382890816E+02  0.00000000000E+00 0. -1.
</event>
<event>
 7    1  0.1826069E-013  0.7246161E+02  0.7816164E-02  0.1226708E+00
        -11   -1    0    0    0    0  0.00000000000E+00  0.00000000000E+00  0.45593999997E+02  0.45594000000E+02  0.51100000000E-03 0.  1.
         11   -1    0    0    0    0 -0.00000000000E+00 -0.00000000000E+00 -0.45593999997E+02  0.45594000000E+02  0.51100000000E-03 0. -1.
    9900012    2    1    2    0    0  0.16834360642E+02  0.19371917535E+01 -0.79705285757E+01  0.72461608572E+02  0.70000049864E+02 0.  0.
        -12    1    1    2    0    0 -0.16834360642E+02 -0.19371917535E+01  0.79705285757E+01  0.18726391428E+02  0.00000000000E+00 0.  1.
         11    1    3    3    0    0  0.16357203775E+01 -0.56545038792E+01 -0.30910164784E+02  0.31465652425E+02  0.51100000000E-03 0. -1.
        -11    1    3    3    0    0  0.76911288749E+01  0.17143769071E+02  0.52025214041E+01  0.19496884637E+02  0.51100000000E-03 0.  1.
        -12    1    3    3    0    0  0.75075113899E+01 -0.95520734382E+01  0.17737114804E+02  0.21499071511E+02  0.00000000000E+00 0.  1.
</event>
<event>
 7    1  0.1826069E-013  0.7246139E+02  0.7816164E-02  0.1226708E+00
        -11   -1    0    0    0    0  0.00000000000E+00  0.00000000000E+00  0.45593999997E+02  0.45594000000E+02  0.51100000000E-03 0. -1.
         11   -1    0    0    0    0 -0.00000000000E+00 -0.00000000000E+00 -0.45593999997E+02  0.45594000000E+02  0.51100000000E-03 0.  1.
    9900012    2    1    2    0    0 -0.35576766789E+00  0.72222335366E+00  0.18709294909E+02  0.72461390771E+02  0.69999766138E+02 0.  0.
        -12    1    1    2    0    0  0.35576766789E+00 -0.72222335366E+00 -0.18709294909E+02  0.18726609229E+02  0.00000000000E+00 0.  1.
         11    1    3    3    0    0  0.57634734278E+00 -0.15182272619E+02  0.20761339168E+02  0.25726771706E+02  0.51100000000E-03 0. -1.
        -11    1    3    3    0    0  0.16268779278E+02  0.22474014373E+02 -0.46763568289E+01  0.28135792413E+02  0.51100000000E-03 0.  1.
         12    1    3    3    0    0 -0.17200894289E+02 -0.65695184009E+01  0.26243125702E+01  0.18598826652E+02  0.00000000000E+00 0. -1.
</event>
<event>
 7    1  0.1838615E-013  0.7246161E+02  0.7816164E-02  0.1226708E+00
        -11   -1    0    0    0    0  0.00000000000E+00  0.00000000000E+00  0.45593999997E+02  0.45594000000E+02  0.51100000000E-03 0. -1.
         11   -1    0    0    0    0 -0.00000000000E+00 -0.00000000000E+00 -0.45593999997E+02  0.45594000000E+02  0.51100000000E-03 0.  1.
    9900012    2    1    2    0    0  0.29843555500E+01 -0.17551886333E+02  0.58053978175E+01  0.72461608577E+02  0.70000049870E+02 0.  0.
        -12    1    1    2    0    0 -0.29843555500E+01  0.17551886333E+02 -0.58053978175E+01  0.18726391423E+02  0.00000000000E+00 0.  1.
         11    1    3    3    0    0 -0.16096850706E+02 -0.19683882706E+02  0.17070453885E+02  0.30626201807E+02  0.51100000000E-03 0. -1.
        -11    1    3    3    0    0  0.48526614245E+01  0.17854266282E+02 -0.87991647168E+01  0.20487763356E+02  0.51100000000E-03 0.  1.
        -12    1    3    3    0    0  0.14228544832E+02 -0.15722269910E+02 -0.24658913510E+01  0.21347643413E+02  0.00000000000E+00 0.  1.
</event>
<event>
 7    1  0.1826069E-013  0.7246158E+02  0.7816164E-02  0.1226708E+00
        -11   -1    0    0    0    0  0.00000000000E+00  0.00000000000E+00  0.45593999997E+02  0.45594000000E+02  0.51100000000E-03 0.  1.
         11   -1    0    0    0    0 -0.00000000000E+00 -0.00000000000E+00 -0.45593999997E+02  0.45594000000E+02  0.51100000000E-03 0. -1.
    9900012    2    1    2    0    0  0.10349888121E+02 -0.15576408454E+02 -0.96658586183E+00  0.72461575550E+02  0.70000006847E+02 0.  0.
        -12    1    1    2    0    0 -0.10349888121E+02  0.15576408454E+02  0.96658586183E+00  0.18726424450E+02  0.00000000000E+00 0.  1.
         11    1    3    3    0    0  0.12934059815E+02 -0.29742385524E+02 -0.66100433043E+01  0.33099729193E+02  0.51100000000E-03 0. -1.
        -11    1    3    3    0    0 -0.66883132089E+01  0.93646723133E+01  0.20337581485E+02  0.23367666593E+02  0.51100000000E-03 0.  1.
         12    1    3    3    0    0  0.41041415150E+01  0.48013047564E+01 -0.14694124042E+02  0.15994179763E+02  0.00000000000E+00 0. -1.
</event>
<event>
 7    1  0.1826069E-013  0.7246158E+02  0.7816164E-02  0.1226708E+00
        -11   -1    0    0    0    0  0.00000000000E+00  0.00000000000E+00  0.45593999997E+02  0.45594000000E+02  0.51100000000E-03 0.  1.
         11   -1    0    0    0    0 -0.00000000000E+00 -0.00000000000E+00 -0.45593999997E+02  0.45594000000E+02  0.51100000000E-03 0. -1.
    9900012    2    1    2    0    0  0.80002872795E+01  0.41023848146E+01 -0.16426953912E+02  0.72461575554E+02  0.70000006851E+02 0.  0.
        -12    1    1    2    0    0 -0.80002872795E+01 -0.41023848146E+01  0.16426953912E+02  0.18726424446E+02  0.00000000000E+00 0.  1.
         11    1    3    3    0    0 -0.14585012732E+02 -0.78726052193E+01 -0.44800861740E+01  0.17168916148E+02  0.51100000000E-03 0. -1.
        -11    1    3    3    0    0  0.30273376095E+01  0.16153380811E+02 -0.26063961240E+02  0.30812766192E+02  0.51100000000E-03 0.  1.
        -12    1    3    3    0    0  0.19557962402E+02 -0.41783907772E+01  0.14117093502E+02  0.24479893213E+02  0.00000000000E+00 0.  1.
</event>
<event>
 7    1  0.1826069E-013  0.7246156E+02  0.7816164E-02  0.1226708E+00
        -11   -1    0    0    0    0  0.00000000000E+00  0.00000000000E+00  0.45593999997E+02  0.45594000000E+02  0.51100000000E-03 0. -1.
         11   -1    0    0    0    0 -0.00000000000E+00 -0.00000000000E+00 -0.45593999997E+02  0.45594000000E+02  0.51100000000E-03 0.  1.
    9900012    2    1    2    0    0 -0.16366681762E+02 -0.52183072410E+01  0.74552341359E+01  0.72461560980E+02  0.69999987866E+02 0.  0.
        -12    1    1    2    0    0  0.16366681762E+02  0.52183072410E+01 -0.74552341359E+01  0.18726439020E+02  0.00000000000E+00 0.  1.
         11    1    3    3    0    0  0.55910906639E+01  0.11798167473E+02  0.25526176131E+02  0.28671287356E+02  0.51100000000E-03 0.  1.
        -11    1    3    3    0    0 -0.35029047661E+01 -0.91417989634E+01 -0.21323663473E+02  0.23463619803E+02  0.51100000000E-03 0. -1.
         12    1    3    3    0    0 -0.18454867660E+02 -0.78746757504E+01  0.32527214782E+01  0.20326653820E+02  0.00000000000E+00 0. -1.
</event>
<event>
 7    1  0.1826069E-013  0.7246152E+02  0.7816164E-02  0.1226708E+00
        -11   -1    0    0    0    0  0.00000000000E+00  0.00000000000E+00  0.45593999997E+02  0.45594000000E+02  0.51100000000E-03 0. -1.
         11   -1    0    0    0    0 -0.00000000000E+00 -0.00000000000E+00 -0.45593999997E+02  0.45594000000E+02  0.51100000000E-03 0.  1.
    9900012    2    1    2    0    0 -0.16417319218E+02 -0.83045953236E+01  0.34909007936E+01  0.72461519761E+02  0.69999934171E+02 0.  0.
        -12    1    1    2    0    0  0.16417319218E+02  0.83045953236E+01 -0.34909007936E+01  0.18726480239E+02  0.00000000000E+00 0.  1.
         11    1    3    3    0    0  0.55324577057E+01 -0.32915266128E+00 -0.27239080342E+01  0.61754437071E+01  0.51100000000E-03 0.  1.
        -11    1    3    3    0    0 -0.36643349040E+02 -0.15366775715E+02 -0.12228331293E+02  0.41574089421E+02  0.51100000000E-03 0. -1.
        -12    1    3    3    0    0  0.14693572116E+02  0.73913330528E+01  0.18443140121E+02  0.24711986633E+02  0.00000000000E+00 0.  1.
</event>
<event>
 7    1  0.1826069E-013  0.7246160E+02  0.7816164E-02  0.1226708E+00
        -11   -1    0    0    0    0  0.00000000000E+00  0.00000000000E+00  0.45593999997E+02  0.45594000000E+02  0.51100000000E-03 0.  1.
         11   -1    0    0    0    0 -0.00000000000E+00 -0.00000000000E+00 -0.45593999997E+02  0.45594000000E+02  0.51100000000E-03 0. -1.
    9900012    2    1    2    0    0  0.14302541413E+02 -0.11165428416E+02 -0.46312528107E+01  0.72461601917E+02  0.70000041195E+02 0.  0.
        -12    1    1    2    0    0 -0.14302541413E+02  0.11165428416E+02  0.46312528107E+01  0.18726398083E+02  0.00000000000E+00 0.  1.
         11    1    3    3    0    0  0.91538322434E+01 -0.15724099475E+02  0.27392309901E+02  0.32884321356E+02  0.51100000000E-03 0. -1.
        -11    1    3    3    0    0 -0.57389080803E+01  0.85145323038E+01 -0.83992336944E+01  0.13265724753E+02  0.51100000000E-03 0.  1.
         12    1    3    3    0    0  0.10887617250E+02 -0.39558612440E+01 -0.23624329017E+02  0.26311555808E+02  0.00000000000E+00 0. -1.
</event>
<event>
 7    1  0.1826069E-013  0.7246145E+02  0.7816164E-02  0.1226708E+00
        -11   -1    0    0    0    0  0.00000000000E+00  0.00000000000E+00  0.45593999997E+02  0.45594000000E+02  0.51100000000E-03 0. -1.
         11   -1    0    0    0    0 -0.00000000000E+00 -0.00000000000E+00 -0.45593999997E+02  0.45594000000E+02  0.51100000000E-03 0.  1.
    9900012    2    1    2    0    0  0.82151148785E+01  0.15851772820E+02  0.56495172911E+01  0.72461445068E+02  0.69999836870E+02 0.  0.
        -12    1    1    2    0    0 -0.82151148785E+01 -0.15851772820E+02 -0.56495172911E+01  0.18726554932E+02  0.00000000000E+00 0.  1.
         11    1    3    3    0    0  0.81693074990E+01  0.17706842222E+02  0.19773117563E+02  0.27771316586E+02  0.51100000000E-03 0. -1.
        -11    1    3    3    0    0  0.14097104266E+02 -0.55260163964E+01 -0.23097678923E+02  0.27618254430E+02  0.51100000000E-03 0.  1.
        -12    1    3    3    0    0 -0.14051296886E+02  0.36709469938E+01  0.89740786506E+01  0.17071874052E+02  0.00000000000E+00 0.  1.
</event>
<event>
 7    1  0.1826069E-013  0.7246163E+02  0.7816164E-02  0.1226708E+00
        -11   -1    0    0    0    0  0.00000000000E+00  0.00000000000E+00  0.45593999997E+02  0.45594000000E+02  0.51100000000E-03 0.  1.
         11   -1    0    0    0    0 -0.00000000000E+00 -0.00000000000E+00 -0.45593999997E+02  0.45594000000E+02  0.51100000000E-03 0. -1.
    9900012    2    1    2    0    0 -0.19442300068E+01  0.10521899351E+02 -0.15368366193E+02  0.72461626199E+02  0.70000072827E+02 0.  0.
        -12    1    1    2    0    0  0.19442300068E+01 -0.10521899351E+02  0.15368366193E+02  0.18726373801E+02  0.00000000000E+00 0.  1.
         11    1    3    3    0    0  0.12932634230E+01  0.75057489470E+01 -0.22842930259E+02  0.24079208057E+02  0.51100000000E-03 0. -1.
        -11    1    3    3    0    0 -0.88445858753E+01  0.10881348899E+02  0.24832374910E+02  0.28518017061E+02  0.51100000000E-03 0.  1.
        -12    1    3    3    0    0  0.56070924454E+01 -0.78651984956E+01 -0.17357810843E+02  0.19864401082E+02  0.00000000000E+00 0.  1.
</event>
<event>
 7    1  0.1826069E-013  0.7246158E+02  0.7816164E-02  0.1226708E+00
        -11   -1    0    0    0    0  0.00000000000E+00  0.00000000000E+00  0.45593999997E+02  0.45594000000E+02  0.51100000000E-03 0. -1.
         11   -1    0    0    0    0 -0.00000000000E+00 -0.00000000000E+00 -0.45593999997E+02  0.45594000000E+02  0.51100000000E-03 0.  1.
    9900012    2    1    2    0    0 -0.73787521383E+01 -0.15328605383E+02  0.78272954307E+01  0.72461583368E+02  0.70000017031E+02 0.  0.
        -12    1    1    2    0    0  0.73787521383E+01  0.15328605383E+02 -0.78272954307E+01  0.18726416632E+02  0.00000000000E+00 0.  1.
         11    1    3    3    0    0 -0.14465545081E+02 -0.31347204344E+02 -0.28875045616E+01  0.34644435304E+02  0.51100000000E-03 0. -1.
        -11    1    3    3    0    0 -0.12264385269E+02  0.10428019698E+02  0.54787439610E+01  0.17005157350E+02  0.51100000000E-03 0.  1.
         12    1    3    3    0    0  0.19351178213E+02  0.55905792622E+01  0.52360560314E+01  0.20811990714E+02  0.00000000000E+00 0. -1.
</event>
<event>
 7    1  0.1826069E-013  0.7246161E+02  0.7816164E-02  0.1226708E+00
        -11   -1    0    0    0    0  0.00000000000E+00  0.00000000000E+00  0.45593999997E+02  0.45594000000E+02  0.51100000000E-03 0.  1.
         11   -1    0    0    0    0 -0.00000000000E+00 -0.00000000000E+00 -0.45593999997E+02  0.45594000000E+02  0.51100000000E-03 0. -1.
    9900012    2    1    2    0    0  0.94764962532E+01 -0.66760660262E+01 -0.14707272210E+02  0.72461609673E+02  0.70000051298E+02 0.  0.
        -12    1    1    2    0    0 -0.94764962532E+01  0.66760660262E+01  0.14707272210E+02  0.18726390327E+02  0.00000000000E+00 0.  1.
         11    1    3    3    0    0 -0.13760336268E+02 -0.18437024290E+02 -0.19611886945E+02  0.30230726566E+02  0.51100000000E-03 0. -1.
        -11    1    3    3    0    0  0.11229364674E+02 -0.73921999613E+01  0.12525803290E+02  0.18374955770E+02  0.51100000000E-03 0.  1.
         12    1    3    3    0    0  0.12007467848E+02  0.19153158226E+02 -0.76211885539E+01  0.23855927337E+02  0.00000000000E+00 0. -1.
</event>
<event>
 7    1  0.1826069E-013  0.7246139E+02  0.7816164E-02  0.1226708E+00
        -11   -1    0    0    0    0  0.00000000000E+00  0.00000000000E+00  0.45593999997E+02  0.45594000000E+02  0.51100000000E-03 0. -1.
         11   -1    0    0    0    0 -0.00000000000E+00 -0.00000000000E+00 -0.45593999997E+02  0.45594000000E+02  0.51100000000E-03 0.  1.
    9900012    2    1    2    0    0  0.17296279074E+02 -0.61134963568E+01  0.37616068781E+01  0.72461393425E+02  0.69999769595E+02 0.  0.
        -12    1    1    2    0    0 -0.17296279074E+02  0.61134963568E+01 -0.37616068781E+01  0.18726606575E+02  0.00000000000E+00 0.  1.
         11    1    3    3    0    0 -0.20988632545E+02  0.12699923132E+02 -0.89695683463E+01  0.26120181857E+02  0.51100000000E-03 0.  1.
        -11    1    3    3    0    0  0.33553453863E+02 -0.10812160229E+02  0.10474025508E+02  0.36775566421E+02  0.51100000000E-03 0. -1.
        -12    1    3    3    0    0  0.47314577555E+01 -0.80012592606E+01  0.22571497161E+01  0.95656451476E+01  0.00000000000E+00 0.  1.
</event>
<event>
 7    1  0.1826069E-013  0.7246157E+02  0.7816164E-02  0.1226708E+00
        -11   -1    0    0    0    0  0.00000000000E+00  0.00000000000E+00  0.45593999997E+02  0.45594000000E+02  0.51100000000E-03 0.  1.
         11   -1    0    0    0    0 -0.00000000000E+00 -0.00000000000E+00 -0.45593999997E+02  0.45594000000E+02  0.51100000000E-03 0. -1.
    9900012    2    1    2    0    0  0.29240254646E+01  0.18332266927E+02 -0.24611409500E+01  0.72461570806E+02  0.70000000666E+02 0.  0.
        -12    1    1    2    0    0 -0.29240254646E+01 -0.18332266927E+02  0.24611409500E+01  0.18726429194E+02  0.00000000000E+00 0.  1.
         11    1    3    3    0    0  0.24823104219E+02  0.16231339767E+02 -0.19367362678E+02  0.35422275915E+02  0.51100000000E-03 0. -1.
        -11    1    3    3    0    0 -0.25317513849E+02 -0.34194056965E+01  0.96680447184E+01  0.27315562080E+02  0.51100000000E-03 0.  1.
         12    1    3    3    0    0  0.34184350954E+01  0.55203328561E+01  0.72381770092E+01  0.97237328100E+01  0.00000000000E+00 0. -1.
</event>
<event>
 7    1  0.1826069E-013  0.7246156E+02  0.7816164E-02  0.1226708E+00
        -11   -1    0    0    0    0  0.00000000000E+00  0.00000000000E+00  0.45593999997E+02  0.45594000000E+02  0.51100000000E-03 0.  1.
         11   -1    0    0    0    0 -0.00000000000E+00 -0.00000000000E+00 -0.45593999997E+02  0.45594000000E+02  0.51100000000E-03 0. -1.
    9900012    2    1    2    0    0  0.38390128880E+01  0.80343249642E+01 -0.16473955978E+02  0.72461558182E+02  0.69999984222E+02 0.  0.
        -12    1    1    2    0    0 -0.38390128880E+01 -0.80343249642E+01  0.16473955978E+02  0.18726441818E+02  0.00000000000E+00 0.  1.
         11    1    3    3    0    0 -0.89103274490E+01  0.42865538403E+01 -0.41587809023E+02  0.42747097429E+02  0.51100000000E-03 0. -1.
        -11    1    3    3    0    0  0.13475447636E+02  0.43392722028E+01  0.19927741356E+02  0.24444464568E+02  0.51100000000E-03 0.  1.
         12    1    3    3    0    0 -0.72610729864E+00 -0.59150107886E+00  0.51861116892E+01  0.52699961849E+01  0.00000000000E+00 0. -1.
</event>
<event>
 7    1  0.1826069E-013  0.7246156E+02  0.7816164E-02  0.1226708E+00
        -11   -1    0    0    0    0  0.00000000000E+00  0.00000000000E+00  0.45593999997E+02  0.45594000000E+02  0.51100000000E-03 0.  1.
         11   -1    0    0    0    0 -0.00000000000E+00 -0.00000000000E+00 -0.45593999997E+02  0.45594000000E+02  0.51100000000E-03 0. -1.
    9900012    2    1    2    0    0 -0.15768843773E+02 -0.29193170763E+01  0.96695692920E+01  0.72461563702E+02  0.69999991412E+02 0.  0.
        -12    1    1    2    0    0  0.15768843773E+02  0.29193170763E+01 -0.96695692920E+01  0.18726436298E+02  0.00000000000E+00 0.  1.
         11    1    3    3    0    0 -0.29141653183E+01  0.21890076280E+02 -0.36609943808E+01  0.22384608086E+02  0.51100000000E-03 0. -1.
        -11    1    3    3    0    0 -0.24511668794E+02 -0.10468290535E+02  0.16469245254E+02  0.31331183400E+02  0.51100000000E-03 0.  1.
         12    1    3    3    0    0  0.11656990339E+02 -0.14341102822E+02 -0.31386815810E+01  0.18745772216E+02  0.00000000000E+00 0. -1.
</event>
<event>
 7    1  0.1826069E-013  0.7246148E+02  0.7816164E-02  0.1226708E+00
        -11   -1    0    0    0    0  0.00000000000E+00  0.00000000000E+00  0.45593999997E+02  0.45594000000E+02  0.51100000000E-03 0.  1.
         11   -1    0    0    0    0 -0.00000000000E+00 -0.00000000000E+00 -0.45593999997E+02  0.45594000000E+02  0.51100000000E-03 0. -1.
    9900012    2    1    2    0    0  0.53995116239E+01  0.13894806664E+01 -0.17877285014E+02  0.72461475983E+02  0.69999877142E+02 0.  0.
        -12    1    1    2    0    0 -0.53995116239E+01 -0.13894806664E+01  0.17877285014E+02  0.18726524017E+02  0.00000000000E+00 0.  1.
         11    1    3    3    0    0  0.84400870705E+01  0.51714602772E+01 -0.44002821242E+02  0.45102409566E+02  0.51100000000E-03 0. -1.
        -11    1    3    3    0    0 -0.20995792616E+01  0.52081031548E+00  0.24119207357E+01  0.32398824604E+01  0.51100000000E-03 0.  1.
         12    1    3    3    0    0 -0.94099618501E+00 -0.43027899263E+01  0.23713615493E+02  0.24119183956E+02  0.00000000000E+00 0. -1.
</event>
<event>
 7    1  0.1826069E-013  0.7246160E+02  0.7816164E-02  0.1226708E+00
        -11   -1    0    0    0    0  0.00000000000E+00  0.00000000000E+00  0.45593999997E+02  0.45594000000E+02  0.51100000000E-03 0.  1.
         11   -1    0    0    0    0 -0.00000000000E+00 -0.00000000000E+00 -0.45593999997E+02  0.45594000000E+02  0.51100000000E-03 0. -1.
    9900012    2    1    2    0    0  0.55834888077E+01 -0.17401615482E+02  0.40849084224E+01  0.72461600307E+02  0.70000039097E+02 0.  0.
        -12    1    1    2    0    0 -0.55834888077E+01  0.17401615482E+02 -0.40849084224E+01  0.18726399693E+02  0.00000000000E+00 0.  1.
         11    1    3    3    0    0  0.32443702088E+01  0.18985961077E+01 -0.14587545964E+02  0.15064099799E+02  0.51100000000E-03 0. -1.
        -11    1    3    3    0    0  0.12500887547E+02 -0.33482539570E+02  0.70363812183E+01  0.36426134937E+02  0.51100000000E-03 0.  1.
        -12    1    3    3    0    0 -0.10161768949E+02  0.14182327981E+02  0.11636073168E+02  0.20971365571E+02  0.00000000000E+00 0.  1.
</event>
<event>
 7    1  0.1826069E-013  0.7246157E+02  0.7816164E-02  0.1226708E+00
        -11   -1    0    0    0    0  0.00000000000E+00  0.00000000000E+00  0.45593999997E+02  0.45594000000E+02  0.51100000000E-03 0. -1.
         11   -1    0    0    0    0 -0.00000000000E+00 -0.00000000000E+00 -0.45593999997E+02  0.45594000000E+02  0.51100000000E-03 0.  1.
    9900012    2    1    2    0    0  0.43961572937E+01 -0.86949506783E+01  0.15992214538E+02  0.72461567022E+02  0.69999995738E+02 0.  0.
        -12    1    1    2    0    0 -0.43961572937E+01  0.86949506783E+01 -0.15992214538E+02  0.18726432978E+02  0.00000000000E+00 0.  1.
         11    1    3    3    0    0 -0.91671474624E+01 -0.29005541480E+01  0.14389085689E+02  0.17305941008E+02  0.51100000000E-03 0. -1.
        -11    1    3    3    0    0 -0.58606096405E+01 -0.88181752421E+01 -0.22013918178E+02  0.24427843822E+02  0.51100000000E-03 0.  1.
        -12    1    3    3    0    0  0.19423914397E+02  0.30237787119E+01  0.23617047027E+02  0.30727782193E+02  0.00000000000E+00 0.  1.
</event>
<event>
 7    1  0.1826069E-013  0.7246156E+02  0.7816164E-02  0.1226708E+00
        -11   -1    0    0    0    0  0.00000000000E+00  0.00000000000E+00  0.45593999997E+02  0.45594000000E+02  0.51100000000E-03 0. -1.
         11   -1    0    0    0    0 -0.00000000000E+00 -0.00000000000E+00 -0.45593999997E+02  0.45594000000E+02  0.51100000000E-03 0.  1.
    9900012    2    1    2    0    0 -0.17609343543E+01 -0.15175539354E+02  0.10829659940E+02  0.72461563636E+02  0.69999991326E+02 0.  0.
        -12    1    1    2    0    0  0.17609343543E+01  0.15175539354E+02 -0.10829659940E+02  0.18726436364E+02  0.00000000000E+00 0.  1.
         11    1    3    3    0    0 -0.13589619620E+02  0.63281774892E+01  0.45248130441E+01  0.15658784279E+02  0.51100000000E-03 0. -1.
        -11    1    3    3    0    0  0.12102789050E+02 -0.37361635817E+02 -0.11235440763E+01  0.39289078448E+02  0.51100000000E-03 0.  1.
        -12    1    3    3    0    0 -0.27410378447E+00  0.15857918975E+02  0.74283909726E+01  0.17513700909E+02  0.00000000000E+00 0.  1.
</event>
<event>
 7    1  0.1826069E-013  0.7246159E+02  0.7816164E-02  0.1226708E+00
        -11   -1    0    0    0    0  0.00000000000E+00  0.00000000000E+00  0.45593999997E+02  0.45594000000E+02  0.51100000000E-03 0.  1.
         11   -1    0    0    0    0 -0.00000000000E+00 -0.00000000000E+00 -0.45593999997E+02  0.45594000000E+02  0.51100000000E-03 0. -1.
    9900012    2    1    2    0    0 -0.15862064766E+02  0.98341753829E+01 -0.15370142067E+01  0.72461587723E+02  0.70000022704E+02 0.  0.
        -12    1    1    2    0    0  0.15862064766E+02 -0.98341753829E+01  0.15370142067E+01  0.18726412277E+02  0.00000000000E+00 0.  1.
         11    1    3    3    0    0 -0.26694394291E+02 -0.14640831041E+02 -0.10448229968E+02  0.32188664617E+02  0.51100000000E-03 0. -1.
        -11    1    3    3    0    0  0.16146970375E+02  0.19159490433E+02 -0.39604521238E+01  0.25367221117E+02  0.51100000000E-03 0.  1.
        -12    1    3    3    0    0 -0.53146408502E+01  0.53155159916E+01  0.12871667885E+02  0.14905701988E+02  0.00000000000E+00 0.  1.
</event>
<event>
 7    1  0.1826069E-013  0.7246158E+02  0.7816164E-02  0.1226708E+00
        -11   -1    0    0    0    0  0.00000000000E+00  0.00000000000E+00  0.45593999997E+02  0.45594000000E+02  0.51100000000E-03 0. -1.
         11   -1    0    0    0    0 -0.00000000000E+00 -0.00000000000E+00 -0.45593999997E+02  0.45594000000E+02  0.51100000000E-03 0.  1.
    9900012    2    1    2    0    0 -0.15531490064E+02 -0.35480177597E+01 -0.98419013333E+01  0.72461584553E+02  0.70000018574E+02 0.  0.
        -12    1    1    2    0    0  0.15531490064E+02  0.35480177597E+01  0.98419013333E+01  0.18726415447E+02  0.00000000000E+00 0.  1.
         11    1    3    3    0    0 -0.68506881472E+01 -0.18949215298E+02 -0.32898076816E+02  0.38578337794E+02  0.51100000000E-03 0.  1.
        -11    1    3    3    0    0 -0.13093762481E+02  0.12006069687E+02  0.21895245650E+02  0.28195639868E+02  0.51100000000E-03 0. -1.
        -12    1    3    3    0    0  0.44129605638E+01  0.33951278511E+01  0.11609298326E+01  0.56876068904E+01  0.00000000000E+00 0.  1.
</event>
<event>
 7    1  0.1826069E-013  0.7246156E+02  0.7816164E-02  0.1226708E+00
        -11   -1    0    0    0    0  0.00000000000E+00  0.00000000000E+00  0.45593999997E+02  0.45594000000E+02  0.51100000000E-03 0. -1.
         11   -1    0    0    0    0 -0.00000000000E+00 -0.00000000000E+00 -0.45593999997E+02  0.45594000000E+02  0.51100000000E-03 0.  1.
    9900012    2    1    2    0    0  0.14951757569E+02  0.10465775079E+02 -0.41942896698E+01  0.72461559649E+02  0.69999986132E+02 0.  0.
        -12    1    1    2    0    0 -0.14951757569E+02 -0.10465775079E+02  0.41942896698E+01  0.18726440351E+02  0.00000000000E+00 0.  1.
         11    1    3    3    0    0 -0.16632104538E+02  0.69651134447E+01 -0.78634601115E+01  0.19671647411E+02  0.51100000000E-03 0. -1.
        -11    1    3    3    0    0  0.12341032612E+02 -0.17598915990E+02  0.97345697577E+01  0.23596287390E+02  0.51100000000E-03 0.  1.
        -12    1    3    3    0    0  0.19242829495E+02  0.21099577624E+02 -0.60653993161E+01  0.29193624848E+02  0.00000000000E+00 0.  1.
</event>
<event>
 7    1  0.1826069E-013  0.7246152E+02  0.7816164E-02  0.1226708E+00
        -11   -1    0    0    0    0  0.00000000000E+00  0.00000000000E+00  0.45593999997E+02  0.45594000000E+02  0.51100000000E-03 0. -1.
         11   -1    0    0    0    0 -0.00000000000E+00 -0.00000000000E+00 -0.45593999997E+02  0.45594000000E+02  0.51100000000E-03 0.  1.
    9900012    2    1    2    0    0  0.10592256530E+02 -0.13352959588E+02  0.77578194206E+01  0.72461516339E+02  0.69999929713E+02 0.  0.
        -12    1    1    2    0    0 -0.10592256530E+02  0.13352959588E+02 -0.77578194206E+01  0.18726483661E+02  0.00000000000E+00 0.  1.
         11    1    3    3    0    0  0.77604223031E+01 -0.28617245803E+02  0.30185101679E+00  0.29652352790E+02  0.51100000000E-03 0. -1.
        -11    1    3    3    0    0 -0.16713670129E+02  0.10116960203E+02  0.10798386848E+02  0.22322742029E+02  0.51100000000E-03 0.  1.
         12    1    3    3    0    0  0.19545504356E+02  0.51473260121E+01 -0.33424184440E+01  0.20486421519E+02  0.00000000000E+00 0. -1.
</event>
<event>
 7    1  0.1826069E-013  0.7246157E+02  0.7816164E-02  0.1226708E+00
        -11   -1    0    0    0    0  0.00000000000E+00  0.00000000000E+00  0.45593999997E+02  0.45594000000E+02  0.51100000000E-03 0. -1.
         11   -1    0    0    0    0 -0.00000000000E+00 -0.00000000000E+00 -0.45593999997E+02  0.45594000000E+02  0.51100000000E-03 0.  1.
    9900012    2    1    2    0    0 -0.17118042122E+02  0.74636199980E+01 -0.13950099766E+01  0.72461573688E+02  0.70000004421E+02 0.  0.
        -12    1    1    2    0    0  0.17118042122E+02 -0.74636199980E+01  0.13950099766E+01  0.18726426312E+02  0.00000000000E+00 0.  1.
         11    1    3    3    0    0 -0.93854408852E+01  0.61753741958E+01  0.74605419631E+01  0.13486342488E+02  0.51100000000E-03 0. -1.
        -11    1    3    3    0    0  0.19432059778E+02 -0.68191258025E+01  0.11951121888E+02  0.23810391399E+02  0.51100000000E-03 0.  1.
        -12    1    3    3    0    0 -0.27164661015E+02  0.81073716047E+01 -0.20806673828E+02  0.35164839801E+02  0.00000000000E+00 0.  1.
</event>
<event>
 7    1  0.1826069E-013  0.7246159E+02  0.7816164E-02  0.1226708E+00
        -11   -1    0    0    0    0  0.00000000000E+00  0.00000000000E+00  0.45593999997E+02  0.45594000000E+02  0.51100000000E-03 0.  1.
         11   -1    0    0    0    0 -0.00000000000E+00 -0.00000000000E+00 -0.45593999997E+02  0.45594000000E+02  0.51100000000E-03 0. -1.
    9900012    2    1    2    0    0 -0.79102493258E+01  0.13061891451E+02 -0.10839438692E+02  0.72461588602E+02  0.70000023850E+02 0.  0.
        -12    1    1    2    0    0  0.79102493258E+01 -0.13061891451E+02  0.10839438692E+02  0.18726411398E+02  0.00000000000E+00 0.  1.
         11    1    3    3    0    0  0.97911860148E+01 -0.16155508246E+02 -0.17016718073E+02  0.25425114838E+02  0.51100000000E-03 0. -1.
        -11    1    3    3    0    0 -0.64521110927E+00  0.29312865385E+02  0.15378453780E+01  0.29360268103E+02  0.51100000000E-03 0.  1.
         12    1    3    3    0    0 -0.17056224231E+02 -0.95465687651E-01  0.46394340023E+01  0.17676205661E+02  0.00000000000E+00 0. -1.
</event>
<event>
 7    1  0.1826069E-013  0.7246158E+02  0.7816164E-02  0.1226708E+00
        -11   -1    0    0    0    0  0.00000000000E+00  0.00000000000E+00  0.45593999997E+02  0.45594000000E+02  0.51100000000E-03 0. -1.
         11   -1    0    0    0    0 -0.00000000000E+00 -0.00000000000E+00 -0.45593999997E+02  0.45594000000E+02  0.51100000000E-03 0.  1.
    9900012    2    1    2    0    0  0.86353022828E+01  0.13587146774E+02 -0.95655589451E+01  0.72461576933E+02  0.70000008648E+02 0.  0.
        -12    1    1    2    0    0 -0.86353022828E+01 -0.13587146774E+02  0.95655589451E+01  0.18726423067E+02  0.00000000000E+00 0.  1.
         11    1    3    3    0    0 -0.21804911467E+01  0.19723562470E+02 -0.23782587459E+02  0.30973939443E+02  0.51100000000E-03 0. -1.
        -11    1    3    3    0    0  0.13957539222E+02 -0.20140644337E+02  0.10518675475E+02  0.26666476885E+02  0.51100000000E-03 0.  1.
        -12    1    3    3    0    0 -0.31417457920E+01  0.14004228641E+02  0.36983530392E+01  0.14821160604E+02  0.00000000000E+00 0.  1.
</event>
<event>
 7    1  0.1826069E-013  0.7246140E+02  0.7816164E-02  0.1226708E+00
        -11   -1    0    0    0    0  0.00000000000E+00  0.00000000000E+00  0.45593999997E+02  0.45594000000E+02  0.51100000000E-03 0.  1.
         11   -1    0    0    0    0 -0.00000000000E+00 -0.00000000000E+00 -0.45593999997E+02  0.45594000000E+02  0.51100000000E-03 0. -1.
    9900012    2    1    2    0    0 -0.73705080839E+01  0.92009258816E+01 -0.14550060027E+02  0.72461396643E+02  0.69999773786E+02 0.  0.
        -12    1    1    2    0    0  0.73705080839E+01 -0.92009258816E+01  0.14550060027E+02  0.18726603357E+02  0.00000000000E+00 0.  1.
         11    1    3    3    0    0  0.20231002471E+02  0.68355226793E+01 -0.12459280442E+02  0.24723500979E+02  0.51100000000E-03 0. -1.
        -11    1    3    3    0    0 -0.27700761612E+02 -0.84144926200E+01 -0.13584837299E+02  0.31979425959E+02  0.51100000000E-03 0.  1.
        -12    1    3    3    0    0  0.99251057448E-01  0.10779895822E+02  0.11494057713E+02  0.15758469705E+02  0.00000000000E+00 0.  1.
</event>
<event>
 7    1  0.1826069E-013  0.7246151E+02  0.7816164E-02  0.1226708E+00
        -11   -1    0    0    0    0  0.00000000000E+00  0.00000000000E+00  0.45593999997E+02  0.45594000000E+02  0.51100000000E-03 0.  1.
         11   -1    0    0    0    0 -0.00000000000E+00 -0.00000000000E+00 -0.45593999997E+02  0.45594000000E+02  0.51100000000E-03 0. -1.
    9900012    2    1    2    0    0  0.15343815461E+02 -0.61811181669E+01 -0.87773812972E+01  0.72461512953E+02  0.69999925302E+02 0.  0.
        -12    1    1    2    0    0 -0.15343815461E+02  0.61811181669E+01  0.87773812972E+01  0.18726487047E+02  0.00000000000E+00 0.  1.
         11    1    3    3    0    0  0.18327002664E+02  0.55376698884E-01 -0.13145375880E+02  0.22554001874E+02  0.51100000000E-03 0. -1.
        -11    1    3    3    0    0 -0.21294023853E+02 -0.42839113174E+01  0.16995165977E+02  0.27579394752E+02  0.51100000000E-03 0.  1.
        -12    1    3    3    0    0  0.18310836649E+02 -0.19525835484E+01 -0.12627171394E+02  0.22328116327E+02  0.00000000000E+00 0.  1.
</event>
<event>
 7    1  0.1826069E-013  0.7246155E+02  0.7816164E-02  0.1226708E+00
        -11   -1    0    0    0    0  0.00000000000E+00  0.00000000000E+00  0.45593999997E+02  0.45594000000E+02  0.51100000000E-03 0. -1.
         11   -1    0    0    0    0 -0.00000000000E+00 -0.00000000000E+00 -0.45593999997E+02  0.45594000000E+02  0.51100000000E-03 0.  1.
    9900012    2    1    2    0    0  0.11551554861E+02  0.21685198019E+01  0.14578722906E+02  0.72461546534E+02  0.69999969048E+02 0.  0.
        -12    1    1    2    0    0 -0.11551554861E+02 -0.21685198019E+01 -0.14578722906E+02  0.18726453466E+02  0.00000000000E+00 0.  1.
         11    1    3    3    0    0  0.15042875914E+02  0.13859626531E+02  0.20623644950E+02  0.29046722614E+02  0.51100000000E-03 0. -1.
        -11    1    3    3    0    0 -0.12579856627E+02  0.66645560623E+01 -0.15334629713E+02  0.20924147986E+02  0.51100000000E-03 0.  1.
        -12    1    3    3    0    0  0.90885355738E+01 -0.18355662791E+02  0.92897076693E+01  0.22490675934E+02  0.00000000000E+00 0.  1.
</event>
<event>
 7    1  0.1826069E-013  0.7246173E+02  0.7816164E-02  0.1226708E+00
        -11   -1    0    0    0    0  0.00000000000E+00  0.00000000000E+00  0.45593999997E+02  0.45594000000E+02  0.51100000000E-03 0. -1.
         11   -1    0    0    0    0 -0.00000000000E+00 -0.00000000000E+00 -0.45593999997E+02  0.45594000000E+02  0.51100000000E-03 0.  1.
    9900012    2    1    2    0    0  0.12997764730E+02 -0.10825164315E+02 -0.80341243838E+01  0.72461729014E+02  0.70000206762E+02 0.  0.
        -12    1    1    2    0    0 -0.12997764730E+02  0.10825164315E+02  0.80341243838E+01  0.18726270986E+02  0.00000000000E+00 0.  1.
         11    1    3    3    0    0 -0.75298601435E+01 -0.39778672123E+01  0.24478654712E+02  0.25917691991E+02  0.51100000000E-03 0. -1.
        -11    1    3    3    0    0  0.22638319671E+02 -0.10912189121E+02 -0.33480177865E+02  0.41862772234E+02  0.51100000000E-03 0.  1.
         12    1    3    3    0    0 -0.21106947981E+01  0.40648920188E+01  0.96739876860E+00  0.46812647898E+01  0.00000000000E+00 0. -1.
</event>
<event>
 7    1  0.1826069E-013  0.7246156E+02  0.7816164E-02  0.1226708E+00
        -11   -1    0    0    0    0  0.00000000000E+00  0.00000000000E+00  0.45593999997E+02  0.45594000000E+02  0.51100000000E-03 0. -1.
         11   -1    0    0    0    0 -0.00000000000E+00 -0.00000000000E+00 -0.45593999997E+02  0.45594000000E+02  0.51100000000E-03 0.  1.
    9900012    2    1    2    0    0 -0.75478230804E+01 -0.62133133254E+01  0.15971998243E+02  0.72461558171E+02  0.69999984206E+02 0.  0.
        -12    1    1    2    0    0  0.75478230804E+01  0.62133133254E+01 -0.15971998243E+02  0.18726441829E+02  0.00000000000E+00 0.  1.
         11    1    3    3    0    0  0.23416912695E+02  0.21592023078E+00  0.79175389196E+01  0.24720150576E+02  0.51100000000E-03 0. -1.
        -11    1    3    3    0    0 -0.35547879935E+02 -0.26075705092E+01 -0.23782030618E+01  0.35722640467E+02  0.51100000000E-03 0.  1.
        -12    1    3    3    0    0  0.45831441601E+01 -0.38216630470E+01  0.10432662385E+02  0.12018767128E+02  0.00000000000E+00 0.  1.
</event>
<event>
 7    1  0.1826069E-013  0.7246155E+02  0.7816164E-02  0.1226708E+00
        -11   -1    0    0    0    0  0.00000000000E+00  0.00000000000E+00  0.45593999997E+02  0.45594000000E+02  0.51100000000E-03 0.  1.
         11   -1    0    0    0    0 -0.00000000000E+00 -0.00000000000E+00 -0.45593999997E+02  0.45594000000E+02  0.51100000000E-03 0. -1.
    9900012    2    1    2    0    0 -0.58237083666E+01  0.59335336162E+01 -0.16779672571E+02  0.72461553143E+02  0.69999977657E+02 0.  0.
        -12    1    1    2    0    0  0.58237083666E+01 -0.59335336162E+01  0.16779672571E+02  0.18726446857E+02  0.00000000000E+00 0.  1.
         11    1    3    3    0    0 -0.11237836360E+02 -0.14349839277E+01 -0.12426370117E+02  0.16815552904E+02  0.51100000000E-03 0. -1.
        -11    1    3    3    0    0  0.15153949352E+02  0.26242314124E+02  0.76443606776E+01  0.31252799586E+02  0.51100000000E-03 0.  1.
        -12    1    3    3    0    0 -0.97398213585E+01 -0.18873796580E+02 -0.11997663132E+02  0.24393200652E+02  0.00000000000E+00 0.  1.
</event>
<event>
 7    1  0.1826069E-013  0.7246164E+02  0.7816164E-02  0.1226708E+00
        -11   -1    0    0    0    0  0.00000000000E+00  0.00000000000E+00  0.45593999997E+02  0.45594000000E+02  0.51100000000E-03 0. -1.
         11   -1    0    0    0    0 -0.00000000000E+00 -0.00000000000E+00 -0.45593999997E+02  0.45594000000E+02  0.51100000000E-03 0.  1.
    9900012    2    1    2    0    0  0.31797701765E+01 -0.13662822703E+02  0.12405364172E+02  0.72461635622E+02  0.70000085101E+02 0.  0.
        -12    1    1    2    0    0 -0.31797701765E+01  0.13662822703E+02 -0.12405364172E+02  0.18726364378E+02  0.00000000000E+00 0.  1.
         11    1    3    3    0    0  0.40809551376E+01 -0.37393253201E+02  0.19096281696E+01  0.37663726047E+02  0.51100000000E-03 0. -1.
        -11    1    3    3    0    0  0.79532745461E+01  0.55752764412E+01 -0.33886534046E+01  0.10286945881E+02  0.51100000000E-03 0.  1.
         12    1    3    3    0    0 -0.88544595071E+01  0.18155154056E+02  0.13884389407E+02  0.24510963693E+02  0.00000000000E+00 0. -1.
</event>
<event>
 7    1  0.1826069E-013  0.7246158E+02  0.7816164E-02  0.1226708E+00
        -11   -1    0    0    0    0  0.00000000000E+00  0.00000000000E+00  0.45593999997E+02  0.45594000000E+02  0.51100000000E-03 0.  1.
         11   -1    0    0    0    0 -0.00000000000E+00 -0.00000000000E+00 -0.45593999997E+02  0.45594000000E+02  0.51100000000E-03 0. -1.
    9900012    2    1    2    0    0 -0.62228481587E+01 -0.16608247971E+02 -0.60100824628E+01  0.72461579330E+02  0.70000011771E+02 0.  0.
        -12    1    1    2    0    0  0.62228481587E+01  0.16608247971E+02  0.60100824628E+01  0.18726420670E+02  0.00000000000E+00 0.  1.
         11    1    3    3    0    0  0.27033847759E+02 -0.21295211818E+02 -0.78818196139E+01  0.35304929567E+02  0.51100000000E-03 0. -1.
        -11    1    3    3    0    0 -0.10901536727E+02  0.46963238195E+01  0.75804337859E+01  0.14084102282E+02  0.51100000000E-03 0.  1.
         12    1    3    3    0    0 -0.22355159190E+02 -0.93599724061E-02 -0.57086966348E+01  0.23072547482E+02  0.00000000000E+00 0. -1.
</event>
<event>
 7    1  0.1826069E-013  0.7246148E+02  0.7816164E-02  0.1226708E+00
        -11   -1    0    0    0    0  0.00000000000E+00  0.00000000000E+00  0.45593999997E+02  0.45594000000E+02  0.51100000000E-03 0.  1.
         11   -1    0    0    0    0 -0.00000000000E+00 -0.00000000000E+00 -0.45593999997E+02  0.45594000000E+02  0.51100000000E-03 0. -1.
    9900012    2    1    2    0    0 -0.16647041489E+02  0.39169658574E+00 -0.85676817695E+01  0.72461479035E+02  0.69999881117E+02 0.  0.
        -12    1    1    2    0    0  0.16647041489E+02 -0.39169658574E+00  0.85676817695E+01  0.18726520965E+02  0.00000000000E+00 0.  1.
         11    1    3    3    0    0 -0.53171387305E+01 -0.10420700964E+01 -0.30944271488E+02  0.31415057100E+02  0.51100000000E-03 0. -1.
        -11    1    3    3    0    0 -0.87759578609E+01 -0.13266634914E+02  0.20590898861E+02  0.26019341930E+02  0.51100000000E-03 0.  1.
        -12    1    3    3    0    0 -0.25539448980E+01  0.14700401596E+02  0.17856908575E+01  0.15027080004E+02  0.00000000000E+00 0.  1.
</event>
<event>
 7    1  0.1826069E-013  0.7246145E+02  0.7816164E-02  0.1226708E+00
        -11   -1    0    0    0    0  0.00000000000E+00  0.00000000000E+00  0.45593999997E+02  0.45594000000E+02  0.51100000000E-03 0.  1.
         11   -1    0    0    0    0 -0.00000000000E+00 -0.00000000000E+00 -0.45593999997E+02  0.45594000000E+02  0.51100000000E-03 0. -1.
    9900012    2    1    2    0    0  0.15757462706E+02 -0.10111005960E+02  0.39195420138E+00  0.72461449315E+02  0.69999842402E+02 0.  0.
        -12    1    1    2    0    0 -0.15757462706E+02  0.10111005960E+02 -0.39195420138E+00  0.18726550685E+02  0.00000000000E+00 0.  1.
         11    1    3    3    0    0 -0.15374011004E+02  0.17781579534E+02 -0.11751954897E+02  0.26280282138E+02  0.51100000000E-03 0. -1.
        -11    1    3    3    0    0  0.29625695857E+01 -0.10945024575E+02  0.56627356503E+01  0.12674263561E+02  0.51100000000E-03 0.  1.
         12    1    3    3    0    0  0.28168904125E+02 -0.16947560919E+02  0.64811734485E+01  0.33506903616E+02  0.00000000000E+00 0. -1.
</event>
<event>
 7    1  0.1826069E-013  0.7246149E+02  0.7816164E-02  0.1226708E+00
        -11   -1    0    0    0    0  0.00000000000E+00  0.00000000000E+00  0.45593999997E+02  0.45594000000E+02  0.51100000000E-03 0. -1.
         11   -1    0    0    0    0 -0.00000000000E+00 -0.00000000000E+00 -0.45593999997E+02  0.45594000000E+02  0.51100000000E-03 0.  1.
    9900012    2    1    2    0    0 -0.15772221446E+02  0.54330597987E+01  0.85088829447E+01  0.72461489458E+02  0.69999894696E+02 0.  0.
        -12    1    1    2    0    0  0.15772221446E+02 -0.54330597987E+01 -0.85088829447E+01  0.18726510542E+02  0.00000000000E+00 0.  1.
         11    1    3    3    0    0 -0.61068557632E+01  0.21454982977E+02  0.58378281999E+01  0.23058408883E+02  0.51100000000E-03 0. -1.
        -11    1    3    3    0    0 -0.15400148009E+02 -0.88807660186E+01 -0.18912897460E+02  0.25956314345E+02  0.51100000000E-03 0.  1.
         12    1    3    3    0    0  0.57347823269E+01 -0.71411571594E+01  0.21583952205E+02  0.23446766231E+02  0.00000000000E+00 0. -1.
</event>
<event>
 7    1  0.1826069E-013  0.7246118E+02  0.7816164E-02  0.1226709E+00
        -11   -1    0    0    0    0  0.00000000000E+00  0.00000000000E+00  0.45593999997E+02  0.45594000000E+02  0.51100000000E-03 0.  1.
         11   -1    0    0    0    0 -0.00000000000E+00 -0.00000000000E+00 -0.45593999997E+02  0.45594000000E+02  0.51100000000E-03 0. -1.
    9900012    2    1    2    0    0 -0.12431408784E+02  0.98291718215E+01 -0.99770363764E+01  0.72461179717E+02  0.69999491199E+02 0.  0.
        -12    1    1    2    0    0  0.12431408784E+02 -0.98291718215E+01  0.99770363764E+01  0.18726820283E+02  0.00000000000E+00 0.  1.
         11    1    3    3    0    0 -0.84659889544E+01  0.87518238727E+01 -0.18250916681E+02  0.21939994304E+02  0.51100000000E-03 0. -1.
        -11    1    3    3    0    0  0.30682527345E+01  0.95268515520E+01  0.27006081154E+02  0.28801102321E+02  0.51100000000E-03 0.  1.
        -12    1    3    3    0    0 -0.70336725641E+01 -0.84495036032E+01 -0.18732200849E+02  0.21720083092E+02  0.00000000000E+00 0.  1.
</event>
<event>
 7    1  0.1826069E-013  0.7246152E+02  0.7816164E-02  0.1226708E+00
        -11   -1    0    0    0    0  0.00000000000E+00  0.00000000000E+00  0.45593999997E+02  0.45594000000E+02  0.51100000000E-03 0. -1.
         11   -1    0    0    0    0 -0.00000000000E+00 -0.00000000000E+00 -0.45593999997E+02  0.45594000000E+02  0.51100000000E-03 0.  1.
    9900012    2    1    2    0    0  0.13998820960E+02  0.73545381133E+01 -0.10031197822E+02  0.72461517445E+02  0.69999931154E+02 0.  0.
        -12    1    1    2    0    0 -0.13998820960E+02 -0.73545381133E+01  0.10031197822E+02  0.18726482555E+02  0.00000000000E+00 0.  1.
         11    1    3    3    0    0  0.35824673566E+02 -0.12672992641E+02  0.24884598510E+01  0.38081549486E+02  0.51100000000E-03 0. -1.
        -11    1    3    3    0    0 -0.63265721901E+01  0.12306635060E+02 -0.95453653306E+01  0.16810496178E+02  0.51100000000E-03 0.  1.
         12    1    3    3    0    0 -0.15499280416E+02  0.77208956939E+01 -0.29742923426E+01  0.17569471781E+02  0.00000000000E+00 0. -1.
</event>
<event>
 7    1  0.1826069E-013  0.7246159E+02  0.7816164E-02  0.1226708E+00
        -11   -1    0    0    0    0  0.00000000000E+00  0.00000000000E+00  0.45593999997E+02  0.45594000000E+02  0.51100000000E-03 0.  1.
         11   -1    0    0    0    0 -0.00000000000E+00 -0.00000000000E+00 -0.45593999997E+02  0.45594000000E+02  0.51100000000E-03 0. -1.
    9900012    2    1    2    0    0  0.46645795989E+01  0.66919448480E+00 -0.18123805581E+02  0.72461589430E+02  0.70000024928E+02 0.  0.
        -12    1    1    2    0    0 -0.46645795989E+01 -0.66919448480E+00  0.18123805581E+02  0.18726410570E+02  0.00000000000E+00 0.  1.
         11    1    3    3    0    0  0.12053011074E+02  0.30840398809E+02  0.12455468978E+01  0.33135429105E+02  0.51100000000E-03 0. -1.
        -11    1    3    3    0    0 -0.10662301296E+02 -0.27125565716E+02 -0.19099787456E+02  0.34846561746E+02  0.51100000000E-03 0.  1.
         12    1    3    3    0    0  0.32738698211E+01 -0.30456386077E+01 -0.26956502275E+00  0.44795985797E+01  0.00000000000E+00 0. -1.
</event>
<event>
 7    1  0.1826069E-013  0.7246162E+02  0.7816164E-02  0.1226708E+00
        -11   -1    0    0    0    0  0.00000000000E+00  0.00000000000E+00  0.45593999997E+02  0.45594000000E+02  0.51100000000E-03 0.  1.
         11   -1    0    0    0    0 -0.00000000000E+00 -0.00000000000E+00 -0.45593999997E+02  0.45594000000E+02  0.51100000000E-03 0. -1.
    9900012    2    1    2    0    0  0.96147441065E+01 -0.75594121757E+00 -0.16051866521E+02  0.72461623678E+02  0.70000069542E+02 0.  0.
        -12    1    1    2    0    0 -0.96147441065E+01  0.75594121757E+00  0.16051866521E+02  0.18726376322E+02  0.00000000000E+00 0.  1.
         11    1    3    3    0    0  0.27627640113E+02 -0.10462126941E+02 -0.28261082174E+02  0.40883142789E+02  0.51100000000E-03 0. -1.
        -11    1    3    3    0    0 -0.29688425376E+01  0.20973429574E+01  0.14149023022E+02  0.14608481312E+02  0.51100000000E-03 0.  1.
         12    1    3    3    0    0 -0.15044053469E+02  0.76088427660E+01 -0.19398073690E+01  0.16969999577E+02  0.00000000000E+00 0. -1.
</event>
<event>
 7    1  0.1826069E-013  0.7246155E+02  0.7816164E-02  0.1226708E+00
        -11   -1    0    0    0    0  0.00000000000E+00  0.00000000000E+00  0.45593999997E+02  0.45594000000E+02  0.51100000000E-03 0. -1.
         11   -1    0    0    0    0 -0.00000000000E+00 -0.00000000000E+00 -0.45593999997E+02  0.45594000000E+02  0.51100000000E-03 0.  1.
    9900012    2    1    2    0    0 -0.69272197510E+00  0.14803517315E+02  0.11447972216E+02  0.72461546612E+02  0.69999969149E+02 0.  0.
        -12    1    1    2    0    0  0.69272197510E+00 -0.14803517315E+02 -0.11447972216E+02  0.18726453388E+02  0.00000000000E+00 0.  1.
         11    1    3    3    0    0  0.20902795067E+02  0.12434714539E+02  0.53044449914E+01  0.24893495219E+02  0.51100000000E-03 0. -1.
        -11    1    3    3    0    0 -0.48201943211E+01 -0.14882392854E+02  0.15243348430E+02  0.21842151038E+02  0.51100000000E-03 0.  1.
        -12    1    3    3    0    0 -0.16775322721E+02  0.17251195631E+02 -0.90998212050E+01  0.25725900355E+02  0.00000000000E+00 0.  1.
</event>
<event>
 7    1  0.1826069E-013  0.7246157E+02  0.7816164E-02  0.1226708E+00
        -11   -1    0    0    0    0  0.00000000000E+00  0.00000000000E+00  0.45593999997E+02  0.45594000000E+02  0.51100000000E-03 0.  1.
         11   -1    0    0    0    0 -0.00000000000E+00 -0.00000000000E+00 -0.45593999997E+02  0.45594000000E+02  0.51100000000E-03 0. -1.
    9900012    2    1    2    0    0  0.61313787224E+01 -0.69812329568E+01 -0.16258779331E+02  0.72461566171E+02  0.69999994628E+02 0.  0.
        -12    1    1    2    0    0 -0.61313787224E+01  0.69812329568E+01  0.16258779331E+02  0.18726433829E+02  0.00000000000E+00 0.  1.
         11    1    3    3    0    0 -0.39319386060E+01  0.57991872267E+01  0.19645963037E+02  0.20857961971E+02  0.51100000000E-03 0.  1.
        -11    1    3    3    0    0 -0.32242852609E+01 -0.49014182024E+01 -0.35674751107E+02  0.36153945603E+02  0.51100000000E-03 0. -1.
        -12    1    3    3    0    0  0.13287602589E+02 -0.78790019811E+01 -0.22999126061E+00  0.15449658597E+02  0.00000000000E+00 0.  1.
</event>
<event>
 7    1  0.1826069E-013  0.7246144E+02  0.7816164E-02  0.1226708E+00
        -11   -1    0    0    0    0  0.00000000000E+00  0.00000000000E+00  0.45593999997E+02  0.45594000000E+02  0.51100000000E-03 0. -1.
         11   -1    0    0    0    0 -0.00000000000E+00 -0.00000000000E+00 -0.45593999997E+02  0.45594000000E+02  0.51100000000E-03 0.  1.
    9900012    2    1    2    0    0 -0.84187265365E+01  0.16656747838E+02  0.15368416407E+01  0.72461438990E+02  0.69999828952E+02 0.  0.
        -12    1    1    2    0    0  0.84187265365E+01 -0.16656747838E+02 -0.15368416407E+01  0.18726561010E+02  0.00000000000E+00 0.  1.
         11    1    3    3    0    0  0.13699354242E+02 -0.12479715429E+02  0.77804284025E+01  0.20098524080E+02  0.51100000000E-03 0. -1.
        -11    1    3    3    0    0 -0.23623469596E+02  0.33300826460E+02  0.41753689998E+01  0.41042015853E+02  0.51100000000E-03 0.  1.
        -12    1    3    3    0    0  0.15053888175E+01 -0.41643631940E+01 -0.10418955762E+02  0.11320899057E+02  0.00000000000E+00 0.  1.
</event>
<event>
 7    1  0.1826069E-013  0.7246156E+02  0.7816164E-02  0.1226708E+00
        -11   -1    0    0    0    0  0.00000000000E+00  0.00000000000E+00  0.45593999997E+02  0.45594000000E+02  0.51100000000E-03 0.  1.
         11   -1    0    0    0    0 -0.00000000000E+00 -0.00000000000E+00 -0.45593999997E+02  0.45594000000E+02  0.51100000000E-03 0. -1.
    9900012    2    1    2    0    0 -0.16198923145E+02  0.14299709933E+01  0.92859851873E+01  0.72461562832E+02  0.69999990279E+02 0.  0.
        -12    1    1    2    0    0  0.16198923145E+02 -0.14299709933E+01 -0.92859851873E+01  0.18726437168E+02  0.00000000000E+00 0.  1.
         11    1    3    3    0    0 -0.21887090109E+02 -0.27717407294E+02  0.27016342807E+00  0.35318159197E+02  0.51100000000E-03 0. -1.
        -11    1    3    3    0    0  0.78365026801E+01  0.27387651079E+01  0.64712985154E+01  0.10525650256E+02  0.51100000000E-03 0.  1.
         12    1    3    3    0    0 -0.21483357161E+01  0.26408613179E+02  0.25445232439E+01  0.26617753379E+02  0.00000000000E+00 0. -1.
</event>
<event>
 7    1  0.1826069E-013  0.7246174E+02  0.7816164E-02  0.1226708E+00
        -11   -1    0    0    0    0  0.00000000000E+00  0.00000000000E+00  0.45593999997E+02  0.45594000000E+02  0.51100000000E-03 0. -1.
         11   -1    0    0    0    0 -0.00000000000E+00 -0.00000000000E+00 -0.45593999997E+02  0.45594000000E+02  0.51100000000E-03 0.  1.
    9900012    2    1    2    0    0  0.15433277780E+01 -0.99268451661E+01  0.15803444831E+02  0.72461735447E+02  0.70000215142E+02 0.  0.
        -12    1    1    2    0    0 -0.15433277780E+01  0.99268451661E+01 -0.15803444831E+02  0.18726264553E+02  0.00000000000E+00 0.  1.
         11    1    3    3    0    0 -0.19301481600E+02 -0.24029276448E+02  0.42902526114E+01  0.31118476607E+02  0.51100000000E-03 0. -1.
        -11    1    3    3    0    0  0.75706027961E+01  0.21672415795E+02  0.13604143663E+01  0.22996920676E+02  0.51100000000E-03 0.  1.
        -12    1    3    3    0    0  0.13274206582E+02 -0.75699845130E+01  0.10152777853E+02  0.18346338165E+02  0.00000000000E+00 0.  1.
</event>
<event>
 7    1  0.1826069E-013  0.7246167E+02  0.7816164E-02  0.1226708E+00
        -11   -1    0    0    0    0  0.00000000000E+00  0.00000000000E+00  0.45593999997E+02  0.45594000000E+02  0.51100000000E-03 0.  1.
         11   -1    0    0    0    0 -0.00000000000E+00 -0.00000000000E+00 -0.45593999997E+02  0.45594000000E+02  0.51100000000E-03 0. -1.
    9900012    2    1    2    0    0  0.97920846151E+01  0.15487679539E+02 -0.38629540442E+01  0.72461666868E+02  0.70000125805E+02 0.  0.
        -12    1    1    2    0    0 -0.97920846151E+01 -0.15487679539E+02  0.38629540442E+01  0.18726333132E+02  0.00000000000E+00 0.  1.
         11    1    3    3    0    0  0.19514171031E+02  0.35952403190E+02 -0.12796189986E+02  0.42861645378E+02  0.51100000000E-03 0. -1.
        -11    1    3    3    0    0 -0.11413917263E+02 -0.68874527105E+01  0.86944760095E+01  0.15915666039E+02  0.51100000000E-03 0.  1.
        -12    1    3    3    0    0  0.16918308476E+01 -0.13577270940E+02  0.23875993204E+00  0.13684355451E+02  0.00000000000E+00 0.  1.
</event>
<event>
 7    1  0.1826069E-013  0.7246142E+02  0.7816164E-02  0.1226708E+00
        -11   -1    0    0    0    0  0.00000000000E+00  0.00000000000E+00  0.45593999997E+02  0.45594000000E+02  0.51100000000E-03 0.  1.
         11   -1    0    0    0    0 -0.00000000000E+00 -0.00000000000E+00 -0.45593999997E+02  0.45594000000E+02  0.51100000000E-03 0. -1.
    9900012    2    1    2    0    0 -0.49825763142E+01 -0.10416101176E+01 -0.18021476642E+02  0.72461424266E+02  0.69999809770E+02 0.  0.
        -12    1    1    2    0    0  0.49825763142E+01  0.10416101176E+01  0.18021476642E+02  0.18726575734E+02  0.00000000000E+00 0.  1.
         11    1    3    3    0    0 -0.16179207367E+01 -0.68477271240E+01 -0.41894327506E+02  0.42481098287E+02  0.51100000000E-03 0. -1.
        -11    1    3    3    0    0 -0.52131477844E-01 -0.53404488664E+01  0.13026011623E+02  0.14078355403E+02  0.51100000000E-03 0.  1.
         12    1    3    3    0    0 -0.33125240997E+01  0.11146565873E+02  0.10846839240E+02  0.15901970575E+02  0.00000000000E+00 0. -1.
</event>
<event>
 7    1  0.1826069E-013  0.7246153E+02  0.7816164E-02  0.1226708E+00
        -11   -1    0    0    0    0  0.00000000000E+00  0.00000000000E+00  0.45593999997E+02  0.45594000000E+02  0.51100000000E-03 0.  1.
         11   -1    0    0    0    0 -0.00000000000E+00 -0.00000000000E+00 -0.45593999997E+02  0.45594000000E+02  0.51100000000E-03 0. -1.
    9900012    2    1    2    0    0  0.53041262391E+01 -0.17957650420E+02 -0.26421869381E+00  0.72461527421E+02  0.69999944149E+02 0.  0.
        -12    1    1    2    0    0 -0.53041262391E+01  0.17957650420E+02  0.26421869381E+00  0.18726472579E+02  0.00000000000E+00 0.  1.
         11    1    3    3    0    0 -0.22894286311E+02 -0.13533871056E+02 -0.26574382642E+01  0.26727813039E+02  0.51100000000E-03 0. -1.
        -11    1    3    3    0    0 -0.81616279926E+00  0.12162739093E+02 -0.39668550287E+00  0.12196544741E+02  0.51100000000E-03 0.  1.
         12    1    3    3    0    0  0.29014575349E+02 -0.16586518457E+02  0.27899050733E+01  0.33537169641E+02  0.00000000000E+00 0. -1.
</event>
<event>
 7    1  0.1826069E-013  0.7246176E+02  0.7816164E-02  0.1226708E+00
        -11   -1    0    0    0    0  0.00000000000E+00  0.00000000000E+00  0.45593999997E+02  0.45594000000E+02  0.51100000000E-03 0. -1.
         11   -1    0    0    0    0 -0.00000000000E+00 -0.00000000000E+00 -0.45593999997E+02  0.45594000000E+02  0.51100000000E-03 0.  1.
    9900012    2    1    2    0    0 -0.84922320570E+01  0.16470766816E+02 -0.26958989111E+01  0.72461760768E+02  0.70000248127E+02 0.  0.
        -12    1    1    2    0    0  0.84922320570E+01 -0.16470766816E+02  0.26958989111E+01  0.18726239232E+02  0.00000000000E+00 0.  1.
         11    1    3    3    0    0  0.64778079865E+01  0.11322715380E+02  0.31298621004E+01  0.13414988517E+02  0.51100000000E-03 0. -1.
        -11    1    3    3    0    0 -0.29583790423E+02 -0.14280339754E+02 -0.10089731436E+02  0.34364683033E+02  0.51100000000E-03 0.  1.
        -12    1    3    3    0    0  0.14613750379E+02  0.19428391191E+02  0.42639704246E+01  0.24682089218E+02  0.00000000000E+00 0.  1.
</event>
<event>
 7    1  0.1826069E-013  0.7246153E+02  0.7816164E-02  0.1226708E+00
        -11   -1    0    0    0    0  0.00000000000E+00  0.00000000000E+00  0.45593999997E+02  0.45594000000E+02  0.51100000000E-03 0.  1.
         11   -1    0    0    0    0 -0.00000000000E+00 -0.00000000000E+00 -0.45593999997E+02  0.45594000000E+02  0.51100000000E-03 0. -1.
    9900012    2    1    2    0    0  0.58236265311E+01  0.16483354552E+02 -0.67130647117E+01  0.72461525664E+02  0.69999941860E+02 0.  0.
        -12    1    1    2    0    0 -0.58236265311E+01 -0.16483354552E+02  0.67130647117E+01  0.18726474336E+02  0.00000000000E+00 0.  1.
         11    1    3    3    0    0 -0.16874246185E+02 -0.23286439708E+01 -0.19015682880E+02  0.25529570359E+02  0.51100000000E-03 0. -1.
        -11    1    3    3    0    0  0.27830477991E+02  0.46086521548E+01  0.14420950295E+02  0.31681840028E+02  0.51100000000E-03 0.  1.
        -12    1    3    3    0    0 -0.51326052746E+01  0.14203346368E+02 -0.21183321275E+01  0.15250115277E+02  0.00000000000E+00 0.  1.
</event>
<event>
 7    1  0.1826069E-013  0.7246161E+02  0.7816164E-02  0.1226708E+00
        -11   -1    0    0    0    0  0.00000000000E+00  0.00000000000E+00  0.45593999997E+02  0.45594000000E+02  0.51100000000E-03 0.  1.
         11   -1    0    0    0    0 -0.00000000000E+00 -0.00000000000E+00 -0.45593999997E+02  0.45594000000E+02  0.51100000000E-03 0. -1.
    9900012    2    1    2    0    0 -0.74815636800E+01 -0.51803429047E+01 -0.16366675214E+02  0.72461606720E+02  0.70000047452E+02 0.  0.
        -12    1    1    2    0    0  0.74815636800E+01  0.51803429047E+01  0.16366675214E+02  0.18726393280E+02  0.00000000000E+00 0.  1.
         11    1    3    3    0    0 -0.23296447642E+02 -0.14031479093E+02 -0.33318953550E+02  0.43008831002E+02  0.51100000000E-03 0. -1.
        -11    1    3    3    0    0  0.68880089630E+01 -0.18952158753E+01  0.13164421829E+02  0.14977934205E+02  0.51100000000E-03 0.  1.
         12    1    3    3    0    0  0.89268749991E+01  0.10746352063E+02  0.37878565070E+01  0.14474841513E+02  0.00000000000E+00 0. -1.
</event>
<event>
 7    1  0.1826069E-013  0.7246157E+02  0.7816164E-02  0.1226708E+00
        -11   -1    0    0    0    0  0.00000000000E+00  0.00000000000E+00  0.45593999997E+02  0.45594000000E+02  0.51100000000E-03 0.  1.
         11   -1    0    0    0    0 -0.00000000000E+00 -0.00000000000E+00 -0.45593999997E+02  0.45594000000E+02  0.51100000000E-03 0. -1.
    9900012    2    1    2    0    0 -0.16145756619E+02  0.85989979862E+01 -0.40063452999E+01  0.72461574131E+02  0.70000004998E+02 0.  0.
        -12    1    1    2    0    0  0.16145756619E+02 -0.85989979862E+01  0.40063452999E+01  0.18726425869E+02  0.00000000000E+00 0.  1.
         11    1    3    3    0    0  0.17930805418E+02  0.11900260948E+02  0.40938775904E+01  0.21906387825E+02  0.51100000000E-03 0.  1.
        -11    1    3    3    0    0 -0.27235369135E+02 -0.20152731119E+01 -0.21961141693E+02  0.35044520290E+02  0.51100000000E-03 0. -1.
         12    1    3    3    0    0 -0.68411929011E+01 -0.12859898496E+01  0.13860918803E+02  0.15510666016E+02  0.00000000000E+00 0. -1.
</event>
<event>
 7    1  0.1826069E-013  0.7246167E+02  0.7816164E-02  0.1226708E+00
        -11   -1    0    0    0    0  0.00000000000E+00  0.00000000000E+00  0.45593999997E+02  0.45594000000E+02  0.51100000000E-03 0.  1.
         11   -1    0    0    0    0 -0.00000000000E+00 -0.00000000000E+00 -0.45593999997E+02  0.45594000000E+02  0.51100000000E-03 0. -1.
    9900012    2    1    2    0    0  0.11723349961E+02 -0.37537925224E+01 -0.14111966034E+02  0.72461668860E+02  0.70000128400E+02 0.  0.
        -12    1    1    2    0    0 -0.11723349961E+02  0.37537925224E+01  0.14111966034E+02  0.18726331140E+02  0.00000000000E+00 0.  1.
         11    1    3    3    0    0  0.19683765687E+02 -0.12608752505E+01 -0.24690045220E+01  0.19878038676E+02  0.51100000000E-03 0. -1.
        -11    1    3    3    0    0 -0.17939775074E+02  0.15566961277E+02 -0.19269547593E+02  0.30585638424E+02  0.51100000000E-03 0.  1.
        -12    1    3    3    0    0  0.99793593485E+01 -0.18059878549E+02  0.76265860816E+01  0.21997991760E+02  0.00000000000E+00 0.  1.
</event>
<event>
 7    1  0.1826069E-013  0.7246163E+02  0.7816164E-02  0.1226708E+00
        -11   -1    0    0    0    0  0.00000000000E+00  0.00000000000E+00  0.45593999997E+02  0.45594000000E+02  0.51100000000E-03 0. -1.
         11   -1    0    0    0    0 -0.00000000000E+00 -0.00000000000E+00 -0.45593999997E+02  0.45594000000E+02  0.51100000000E-03 0.  1.
    9900012    2    1    2    0    0  0.18223757188E+02  0.33947490984E+01 -0.26546510311E+01  0.72461633038E+02  0.70000081735E+02 0.  0.
        -12    1    1    2    0    0 -0.18223757188E+02 -0.33947490984E+01  0.26546510311E+01  0.18726366962E+02  0.00000000000E+00 0.  1.
         11    1    3    3    0    0  0.14743078367E+02  0.12510035637E+02 -0.19496976268E+02  0.27458904480E+02  0.51100000000E-03 0. -1.
        -11    1    3    3    0    0 -0.13003615225E+02 -0.14837933385E+02  0.19036217244E+02  0.27415977883E+02  0.51100000000E-03 0.  1.
         12    1    3    3    0    0  0.16484294047E+02  0.57226468467E+01 -0.21938920073E+01  0.17586750675E+02  0.00000000000E+00 0. -1.
</event>
<event>
 7    1  0.1826069E-013  0.7246159E+02  0.7816164E-02  0.1226708E+00
        -11   -1    0    0    0    0  0.00000000000E+00  0.00000000000E+00  0.45593999997E+02  0.45594000000E+02  0.51100000000E-03 0. -1.
         11   -1    0    0    0    0 -0.00000000000E+00 -0.00000000000E+00 -0.45593999997E+02  0.45594000000E+02  0.51100000000E-03 0.  1.
    9900012    2    1    2    0    0  0.59184565660E+01  0.93952663854E+01  0.15079105419E+02  0.72461586066E+02  0.70000020546E+02 0.  0.
        -12    1    1    2    0    0 -0.59184565660E+01 -0.93952663854E+01 -0.15079105419E+02  0.18726413934E+02  0.00000000000E+00 0.  1.
         11    1    3    3    0    0 -0.14773748082E+02  0.26949542309E+02 -0.23223863174E+01  0.30821014609E+02  0.51100000000E-03 0. -1.
        -11    1    3    3    0    0  0.73420031973E+00 -0.57844586399E+01 -0.62385126637E+01  0.85392067772E+01  0.51100000000E-03 0.  1.
         12    1    3    3    0    0  0.19958004328E+02 -0.11769817283E+02  0.23640004400E+02  0.33101364680E+02  0.00000000000E+00 0. -1.
</event>
<event>
 7    1  0.1826069E-013  0.7246157E+02  0.7816164E-02  0.1226708E+00
        -11   -1    0    0    0    0  0.00000000000E+00  0.00000000000E+00  0.45593999997E+02  0.45594000000E+02  0.51100000000E-03 0.  1.
         11   -1    0    0    0    0 -0.00000000000E+00 -0.00000000000E+00 -0.45593999997E+02  0.45594000000E+02  0.51100000000E-03 0. -1.
    9900012    2    1    2    0    0  0.17575913047E+02  0.24576048945E+01 -0.59771853746E+01  0.72461567178E+02  0.69999995940E+02 0.  0.
        -12    1    1    2    0    0 -0.17575913047E+02 -0.24576048945E+01  0.59771853746E+01  0.18726432822E+02  0.00000000000E+00 0.  1.
         11    1    3    3    0    0  0.10841463237E+02 -0.10892480836E+02  0.68941593328E+01  0.16843779180E+02  0.51100000000E-03 0. -1.
        -11    1    3    3    0    0  0.20194217568E+02  0.27626321293E+02 -0.10820148984E+02  0.35890049814E+02  0.51100000000E-03 0.  1.
        -12    1    3    3    0    0 -0.13459767758E+02 -0.14276235563E+02 -0.20511957232E+01  0.19727738184E+02  0.00000000000E+00 0.  1.
</event>
<event>
 7    1  0.1826069E-013  0.7246156E+02  0.7816164E-02  0.1226708E+00
        -11   -1    0    0    0    0  0.00000000000E+00  0.00000000000E+00  0.45593999997E+02  0.45594000000E+02  0.51100000000E-03 0.  1.
         11   -1    0    0    0    0 -0.00000000000E+00 -0.00000000000E+00 -0.45593999997E+02  0.45594000000E+02  0.51100000000E-03 0. -1.
    9900012    2    1    2    0    0 -0.10806098953E+02 -0.36736904290E+01 -0.14846275694E+02  0.72461556719E+02  0.69999982316E+02 0.  0.
        -12    1    1    2    0    0  0.10806098953E+02  0.36736904290E+01  0.14846275694E+02  0.18726443281E+02  0.00000000000E+00 0.  1.
         11    1    3    3    0    0  0.11561644387E+02 -0.98941102690E+01  0.62789053528E+01  0.16461764536E+02  0.51100000000E-03 0.  1.
        -11    1    3    3    0    0 -0.24873470968E+02 -0.13302468738E+02 -0.22766323430E+02  0.36248458110E+02  0.51100000000E-03 0. -1.
        -12    1    3    3    0    0  0.25057276283E+01  0.19522888578E+02  0.16411423829E+01  0.19751334074E+02  0.00000000000E+00 0.  1.
</event>
<event>
 7    1  0.1826069E-013  0.7246154E+02  0.7816164E-02  0.1226708E+00
        -11   -1    0    0    0    0  0.00000000000E+00  0.00000000000E+00  0.45593999997E+02  0.45594000000E+02  0.51100000000E-03 0. -1.
         11   -1    0    0    0    0 -0.00000000000E+00 -0.00000000000E+00 -0.45593999997E+02  0.45594000000E+02  0.51100000000E-03 0.  1.
    9900012    2    1    2    0    0 -0.64013316125E+01 -0.16995937377E+02  0.45652409278E+01  0.72461538549E+02  0.69999958646E+02 0.  0.
        -12    1    1    2    0    0  0.64013316125E+01  0.16995937377E+02 -0.45652409278E+01  0.18726461451E+02  0.00000000000E+00 0.  1.
         11    1    3    3    0    0  0.10422000138E+02 -0.30971365973E+01  0.95848449745E+00  0.10914624811E+02  0.51100000000E-03 0. -1.
        -11    1    3    3    0    0 -0.91827389235E+01 -0.36065273170E+02  0.69625318908E+01  0.37861635907E+02  0.51100000000E-03 0.  1.
        -12    1    3    3    0    0 -0.76405928265E+01  0.22166472391E+02 -0.33557754605E+01  0.23685277831E+02  0.00000000000E+00 0.  1.
</event>
<event>
 7    1  0.1826069E-013  0.7246156E+02  0.7816164E-02  0.1226708E+00
        -11   -1    0    0    0    0  0.00000000000E+00  0.00000000000E+00  0.45593999997E+02  0.45594000000E+02  0.51100000000E-03 0. -1.
         11   -1    0    0    0    0 -0.00000000000E+00 -0.00000000000E+00 -0.45593999997E+02  0.45594000000E+02  0.51100000000E-03 0.  1.
    9900012    2    1    2    0    0 -0.46385540461E+01 -0.15766693982E+02  0.89763445786E+01  0.72461559207E+02  0.69999985557E+02 0.  0.
        -12    1    1    2    0    0  0.46385540461E+01  0.15766693982E+02 -0.89763445786E+01  0.18726440793E+02  0.00000000000E+00 0.  1.
         11    1    3    3    0    0  0.43946178964E+01  0.16541909002E+02 -0.10999811207E+02  0.20345595758E+02  0.51100000000E-03 0.  1.
        -11    1    3    3    0    0 -0.16690946381E+02 -0.27907909924E+02  0.25822614036E+02  0.41524047531E+02  0.51100000000E-03 0. -1.
        -12    1    3    3    0    0  0.76577744385E+01 -0.44006930602E+01 -0.58464582504E+01  0.10591915919E+02  0.00000000000E+00 0.  1.
</event>
<event>
 7    1  0.1826069E-013  0.7246159E+02  0.7816164E-02  0.1226708E+00
        -11   -1    0    0    0    0  0.00000000000E+00  0.00000000000E+00  0.45593999997E+02  0.45594000000E+02  0.51100000000E-03 0. -1.
         11   -1    0    0    0    0 -0.00000000000E+00 -0.00000000000E+00 -0.45593999997E+02  0.45594000000E+02  0.51100000000E-03 0.  1.
    9900012    2    1    2    0    0  0.12218040233E+02  0.98434886793E+01  0.10222694781E+02  0.72461594443E+02  0.70000031458E+02 0.  0.
        -12    1    1    2    0    0 -0.12218040233E+02 -0.98434886793E+01 -0.10222694781E+02  0.18726405557E+02  0.00000000000E+00 0.  1.
         11    1    3    3    0    0 -0.16679501942E+02  0.26669519634E+02  0.12605565058E+02  0.33887598517E+02  0.51100000000E-03 0. -1.
        -11    1    3    3    0    0  0.11261846115E+01 -0.64523447913E+01 -0.57785311488E+01  0.87345559466E+01  0.51100000000E-03 0.  1.
         12    1    3    3    0    0  0.27771357563E+02 -0.10373686163E+02  0.33956608713E+01  0.29839439979E+02  0.00000000000E+00 0. -1.
</event>
<event>
 7    1  0.1826069E-013  0.7246143E+02  0.7816164E-02  0.1226708E+00
        -11   -1    0    0    0    0  0.00000000000E+00  0.00000000000E+00  0.45593999997E+02  0.45594000000E+02  0.51100000000E-03 0. -1.
         11   -1    0    0    0    0 -0.00000000000E+00 -0.00000000000E+00 -0.45593999997E+02  0.45594000000E+02  0.51100000000E-03 0.  1.
    9900012    2    1    2    0    0  0.69358083518E+01  0.77640245358E+01  0.15565958275E+02  0.72461426060E+02  0.69999812108E+02 0.  0.
        -12    1    1    2    0    0 -0.69358083518E+01 -0.77640245358E+01 -0.15565958275E+02  0.18726573940E+02  0.00000000000E+00 0.  1.
         11    1    3    3    0    0 -0.14279712028E+02  0.87136866651E+01  0.23679896311E+02  0.28992688742E+02  0.51100000000E-03 0. -1.
        -11    1    3    3    0    0  0.70624475570E+01  0.11229798110E+02 -0.17984740509E+02  0.22348096620E+02  0.51100000000E-03 0.  1.
        -12    1    3    3    0    0  0.14153072823E+02 -0.12179460239E+02  0.98708024730E+01  0.21120640699E+02  0.00000000000E+00 0.  1.
</event>
<event>
 7    1  0.1826069E-013  0.7246161E+02  0.7816164E-02  0.1226708E+00
        -11   -1    0    0    0    0  0.00000000000E+00  0.00000000000E+00  0.45593999997E+02  0.45594000000E+02  0.51100000000E-03 0.  1.
         11   -1    0    0    0    0 -0.00000000000E+00 -0.00000000000E+00 -0.45593999997E+02  0.45594000000E+02  0.51100000000E-03 0. -1.
    9900012    2    1    2    0    0  0.16098475592E+02  0.95181754199E+01 -0.95973227575E+00  0.72461610445E+02  0.70000052304E+02 0.  0.
        -12    1    1    2    0    0 -0.16098475592E+02 -0.95181754199E+01  0.95973227575E+00  0.18726389555E+02  0.00000000000E+00 0.  1.
         11    1    3    3    0    0 -0.32645486592E+01 -0.20996436370E+02  0.46285755302E+01  0.21746984386E+02  0.51100000000E-03 0. -1.
        -11    1    3    3    0    0  0.11975082613E+02  0.13459407175E+02  0.14661824850E+02  0.23227728113E+02  0.51100000000E-03 0.  1.
         12    1    3    3    0    0  0.73879416382E+01  0.17055204615E+02 -0.20250132656E+02  0.27486897946E+02  0.00000000000E+00 0. -1.
</event>
<event>
 7    1  0.1826069E-013  0.7246151E+02  0.7816164E-02  0.1226708E+00
        -11   -1    0    0    0    0  0.00000000000E+00  0.00000000000E+00  0.45593999997E+02  0.45594000000E+02  0.51100000000E-03 0. -1.
         11   -1    0    0    0    0 -0.00000000000E+00 -0.00000000000E+00 -0.45593999997E+02  0.45594000000E+02  0.51100000000E-03 0.  1.
    9900012    2    1    2    0    0 -0.13997427679E+02 -0.12307683684E+02  0.18095341766E+01  0.72461508785E+02  0.69999919873E+02 0.  0.
        -12    1    1    2    0    0  0.13997427679E+02  0.12307683684E+02 -0.18095341766E+01  0.18726491215E+02  0.00000000000E+00 0.  1.
         11    1    3    3    0    0 -0.13060259844E+02  0.14763536428E+02  0.20066845654E+02  0.28128467605E+02  0.51100000000E-03 0. -1.
        -11    1    3    3    0    0  0.90876801794E+01 -0.27425529992E+02 -0.79844303072E+01  0.29974935429E+02  0.51100000000E-03 0.  1.
        -12    1    3    3    0    0 -0.10024848015E+02  0.35430988027E+00 -0.10272881171E+02  0.14358105751E+02  0.00000000000E+00 0.  1.
</event>
<event>
 7    1  0.1826069E-013  0.7246155E+02  0.7816164E-02  0.1226708E+00
        -11   -1    0    0    0    0  0.00000000000E+00  0.00000000000E+00  0.45593999997E+02  0.45594000000E+02  0.51100000000E-03 0.  1.
         11   -1    0    0    0    0 -0.00000000000E+00 -0.00000000000E+00 -0.45593999997E+02  0.45594000000E+02  0.51100000000E-03 0. -1.
    9900012    2    1    2    0    0 -0.71213818115E+01 -0.80441733119E+01 -0.15338099144E+02  0.72461545756E+02  0.69999968035E+02 0.  0.
        -12    1    1    2    0    0  0.71213818115E+01  0.80441733119E+01  0.15338099144E+02  0.18726454244E+02  0.00000000000E+00 0.  1.
         11    1    3    3    0    0 -0.30376559639E+02  0.86730920710E+01 -0.21933197686E+01  0.31666521019E+02  0.51100000000E-03 0.  1.
        -11    1    3    3    0    0  0.15304326142E+02  0.61874225026E+00 -0.15241177019E+02  0.21607839267E+02  0.51100000000E-03 0. -1.
        -12    1    3    3    0    0  0.79508516859E+01 -0.17336007633E+02  0.20963976427E+01  0.19187185470E+02  0.00000000000E+00 0.  1.
</event>
<event>
 7    1  0.1826069E-013  0.7246162E+02  0.7816164E-02  0.1226708E+00
        -11   -1    0    0    0    0  0.00000000000E+00  0.00000000000E+00  0.45593999997E+02  0.45594000000E+02  0.51100000000E-03 0. -1.
         11   -1    0    0    0    0 -0.00000000000E+00 -0.00000000000E+00 -0.45593999997E+02  0.45594000000E+02  0.51100000000E-03 0.  1.
    9900012    2    1    2    0    0 -0.75915424610E+01  0.22824499408E+00  0.17117053286E+02  0.72461624859E+02  0.70000071081E+02 0.  0.
        -12    1    1    2    0    0  0.75915424610E+01 -0.22824499408E+00 -0.17117053286E+02  0.18726375141E+02  0.00000000000E+00 0.  1.
         11    1    3    3    0    0 -0.22981948892E+02  0.16404556629E+02 -0.19139304529E+01  0.28300929015E+02  0.51100000000E-03 0. -1.
        -11    1    3    3    0    0  0.12775672771E+02  0.63902502469E+01  0.15656592226E+02  0.21193914064E+02  0.51100000000E-03 0.  1.
        -12    1    3    3    0    0  0.26147336603E+01 -0.22566561881E+02  0.33743915128E+01  0.22966781780E+02  0.00000000000E+00 0.  1.
</event>
<event>
 7    1  0.1826069E-013  0.7246155E+02  0.7816164E-02  0.1226708E+00
        -11   -1    0    0    0    0  0.00000000000E+00  0.00000000000E+00  0.45593999997E+02  0.45594000000E+02  0.51100000000E-03 0.  1.
         11   -1    0    0    0    0 -0.00000000000E+00 -0.00000000000E+00 -0.45593999997E+02  0.45594000000E+02  0.51100000000E-03 0. -1.
    9900012    2    1    2    0    0 -0.22348343145E+01  0.96485087159E+01 -0.15893133616E+02  0.72461550764E+02  0.69999974558E+02 0.  0.
        -12    1    1    2    0    0  0.22348343145E+01 -0.96485087159E+01  0.15893133616E+02  0.18726449236E+02  0.00000000000E+00 0.  1.
         11    1    3    3    0    0  0.14505563464E+02 -0.23453260875E+02  0.45328563576E+01  0.27946620620E+02  0.51100000000E-03 0.  1.
        -11    1    3    3    0    0 -0.12158674782E+02  0.25515899399E+02 -0.21602887367E+02  0.35574980498E+02  0.51100000000E-03 0. -1.
        -12    1    3    3    0    0 -0.45817229969E+01  0.75858701917E+01  0.11768973933E+01  0.89399496452E+01  0.00000000000E+00 0.  1.
</event>
<event>
 7    1  0.1826069E-013  0.7246165E+02  0.7816164E-02  0.1226708E+00
        -11   -1    0    0    0    0  0.00000000000E+00  0.00000000000E+00  0.45593999997E+02  0.45594000000E+02  0.51100000000E-03 0.  1.
         11   -1    0    0    0    0 -0.00000000000E+00 -0.00000000000E+00 -0.45593999997E+02  0.45594000000E+02  0.51100000000E-03 0. -1.
    9900012    2    1    2    0    0 -0.34708924250E+00 -0.13381045501E+02 -0.13095933976E+02  0.72461645940E+02  0.70000098543E+02 0.  0.
        -12    1    1    2    0    0  0.34708924250E+00  0.13381045501E+02  0.13095933976E+02  0.18726354060E+02  0.00000000000E+00 0.  1.
         11    1    3    3    0    0 -0.18452460110E+02 -0.15148320152E+02 -0.27720501305E+02  0.36584027668E+02  0.51100000000E-03 0. -1.
        -11    1    3    3    0    0  0.99832685523E+01 -0.11145694169E+02  0.14182321746E+02  0.20616265420E+02  0.51100000000E-03 0.  1.
         12    1    3    3    0    0  0.81221023151E+01  0.12912968819E+02  0.44224558291E+00  0.15261352853E+02  0.00000000000E+00 0. -1.
</event>
<event>
 7    1  0.1826069E-013  0.7246150E+02  0.7816164E-02  0.1226708E+00
        -11   -1    0    0    0    0  0.00000000000E+00  0.00000000000E+00  0.45593999997E+02  0.45594000000E+02  0.51100000000E-03 0.  1.
         11   -1    0    0    0    0 -0.00000000000E+00 -0.00000000000E+00 -0.45593999997E+02  0.45594000000E+02  0.51100000000E-03 0. -1.
    9900012    2    1    2    0    0 -0.16590337705E+02  0.38369123702E+01 -0.77923322620E+01  0.72461504231E+02  0.69999913940E+02 0.  0.
        -12    1    1    2    0    0  0.16590337705E+02 -0.38369123702E+01  0.77923322620E+01  0.18726495769E+02  0.00000000000E+00 0.  1.
         11    1    3    3    0    0 -0.16504853410E+02 -0.44058855779E+01  0.47459379129E+01  0.17729803742E+02  0.51100000000E-03 0. -1.
        -11    1    3    3    0    0  0.17384195719E+02 -0.14664638908E+02  0.12821007458E+01  0.22779501261E+02  0.51100000000E-03 0.  1.
        -12    1    3    3    0    0 -0.17469680015E+02  0.22907436856E+02 -0.13820370921E+02  0.31952199228E+02  0.00000000000E+00 0.  1.
</event>
<event>
 7    1  0.1826069E-013  0.7246234E+02  0.7816164E-02  0.1226706E+00
        -11   -1    0    0    0    0  0.00000000000E+00  0.00000000000E+00  0.45593999997E+02  0.45594000000E+02  0.51100000000E-03 0. -1.
         11   -1    0    0    0    0 -0.00000000000E+00 -0.00000000000E+00 -0.45593999997E+02  0.45594000000E+02  0.51100000000E-03 0.  1.
    9900012    2    1    2    0    0  0.49678939699E+01  0.29533203578E+01  0.17811460001E+02  0.72462344364E+02  0.70001008362E+02 0.  0.
        -12    1    1    2    0    0 -0.49678939699E+01 -0.29533203578E+01 -0.17811460001E+02  0.18725655636E+02  0.00000000000E+00 0.  1.
         11    1    3    3    0    0 -0.97638698182E+01 -0.17570355874E+01  0.54566451266E+01  0.11322336516E+02  0.51100000000E-03 0. -1.
        -11    1    3    3    0    0  0.56785943196E+01  0.30943729377E+02  0.11096047593E+02  0.33359902483E+02  0.51100000000E-03 0.  1.
        -12    1    3    3    0    0  0.90531694685E+01 -0.26233373432E+02  0.12587672814E+01  0.27780105365E+02  0.00000000000E+00 0.  1.
</event>
<event>
 7    1  0.1901840E-013  0.7246164E+02  0.7816164E-02  0.1226708E+00
        -11   -1    0    0    0    0  0.00000000000E+00  0.00000000000E+00  0.45593999997E+02  0.45594000000E+02  0.51100000000E-03 0.  1.
         11   -1    0    0    0    0 -0.00000000000E+00 -0.00000000000E+00 -0.45593999997E+02  0.45594000000E+02  0.51100000000E-03 0. -1.
    9900012    2    1    2    0    0 -0.12670109068E+01 -0.18080338206E+02  0.47087913245E+01  0.72461637245E+02  0.70000087216E+02 0.  0.
        -12    1    1    2    0    0  0.12670109068E+01  0.18080338206E+02 -0.47087913245E+01  0.18726362755E+02  0.00000000000E+00 0.  1.
         11    1    3    3    0    0  0.97673152657E+00 -0.25964597770E+02  0.21221468732E+02  0.33547951909E+02  0.51100000000E-03 0. -1.
        -11    1    3    3    0    0  0.15759044994E+02  0.65130366904E+01 -0.63555858227E+01  0.18197819031E+02  0.51100000000E-03 0.  1.
         12    1    3    3    0    0 -0.18002787428E+02  0.13712228739E+01 -0.10157091585E+02  0.20715866306E+02  0.00000000000E+00 0. -1.
</event>
<event>
 7    1  0.1826069E-013  0.7246156E+02  0.7816164E-02  0.1226708E+00
        -11   -1    0    0    0    0  0.00000000000E+00  0.00000000000E+00  0.45593999997E+02  0.45594000000E+02  0.51100000000E-03 0.  1.
         11   -1    0    0    0    0 -0.00000000000E+00 -0.00000000000E+00 -0.45593999997E+02  0.45594000000E+02  0.51100000000E-03 0. -1.
    9900012    2    1    2    0    0  0.70734069672E+01 -0.99907207537E+01 -0.14171517042E+02  0.72461561936E+02  0.69999989112E+02 0.  0.
        -12    1    1    2    0    0 -0.70734069672E+01  0.99907207537E+01  0.14171517042E+02  0.18726438064E+02  0.00000000000E+00 0.  1.
         11    1    3    3    0    0  0.26025107836E+02 -0.54434268437E+01  0.19775164466E+01  0.26661727349E+02  0.51100000000E-03 0. -1.
        -11    1    3    3    0    0 -0.17986299709E+02 -0.66525267401E+01 -0.27882066263E+02  0.33840400539E+02  0.51100000000E-03 0.  1.
        -12    1    3    3    0    0 -0.96540115968E+00  0.21052328301E+01  0.11733032775E+02  0.11959434048E+02  0.00000000000E+00 0.  1.
</event>
<event>
 7    1  0.1826069E-013  0.7246157E+02  0.7816164E-02  0.1226708E+00
        -11   -1    0    0    0    0  0.00000000000E+00  0.00000000000E+00  0.45593999997E+02  0.45594000000E+02  0.51100000000E-03 0. -1.
         11   -1    0    0    0    0 -0.00000000000E+00 -0.00000000000E+00 -0.45593999997E+02  0.45594000000E+02  0.51100000000E-03 0.  1.
    9900012    2    1    2    0    0  0.87384737583E+01 -0.11627620100E+02  0.11794769700E+02  0.72461573083E+02  0.70000003633E+02 0.  0.
        -12    1    1    2    0    0 -0.87384737583E+01  0.11627620100E+02 -0.11794769700E+02  0.18726426917E+02  0.00000000000E+00 0.  1.
         11    1    3    3    0    0  0.88679426694E+01 -0.15573166112E+02  0.27232801639E+02  0.32600450845E+02  0.51100000000E-03 0. -1.
        -11    1    3    3    0    0 -0.60270893867E+01 -0.96047132768E+01 -0.21165842067E+02  0.24011855286E+02  0.51100000000E-03 0.  1.
        -12    1    3    3    0    0  0.58976204756E+01  0.13550259289E+02  0.57278101281E+01  0.15849266952E+02  0.00000000000E+00 0.  1.
</event>
<event>
 7    1  0.1826069E-013  0.7246160E+02  0.7816164E-02  0.1226708E+00
        -11   -1    0    0    0    0  0.00000000000E+00  0.00000000000E+00  0.45593999997E+02  0.45594000000E+02  0.51100000000E-03 0.  1.
         11   -1    0    0    0    0 -0.00000000000E+00 -0.00000000000E+00 -0.45593999997E+02  0.45594000000E+02  0.51100000000E-03 0. -1.
    9900012    2    1    2    0    0  0.48001147126E+01 -0.18090594212E+02  0.60622772030E+00  0.72461595854E+02  0.70000033297E+02 0.  0.
        -12    1    1    2    0    0 -0.48001147126E+01  0.18090594212E+02 -0.60622772030E+00  0.18726404146E+02  0.00000000000E+00 0.  1.
         11    1    3    3    0    0  0.17697372502E+02  0.63562796315E+01  0.80397666300E+01  0.20450846729E+02  0.51100000000E-03 0. -1.
        -11    1    3    3    0    0 -0.15985894995E+02 -0.63296456921E+01  0.15134738074E+02  0.22905753649E+02  0.51100000000E-03 0.  1.
         12    1    3    3    0    0  0.30886372057E+01 -0.18117228151E+02 -0.22568276984E+02  0.29104995477E+02  0.00000000000E+00 0. -1.
</event>
<event>
 7    1  0.1826069E-013  0.7246159E+02  0.7816164E-02  0.1226708E+00
        -11   -1    0    0    0    0  0.00000000000E+00  0.00000000000E+00  0.45593999997E+02  0.45594000000E+02  0.51100000000E-03 0.  1.
         11   -1    0    0    0    0 -0.00000000000E+00 -0.00000000000E+00 -0.45593999997E+02  0.45594000000E+02  0.51100000000E-03 0. -1.
    9900012    2    1    2    0    0  0.27858946613E+01 -0.13621315374E+02 -0.12545005145E+02  0.72461585617E+02  0.70000019960E+02 0.  0.
        -12    1    1    2    0    0 -0.27858946613E+01  0.13621315374E+02  0.12545005145E+02  0.18726414383E+02  0.00000000000E+00 0.  1.
         11    1    3    3    0    0  0.12908075689E+02 -0.27075139693E+02 -0.17437190206E+02  0.34694916197E+02  0.51100000000E-03 0. -1.
        -11    1    3    3    0    0 -0.12116272213E+01  0.63931817986E+01  0.18747157229E+02  0.19844311993E+02  0.51100000000E-03 0.  1.
         12    1    3    3    0    0 -0.89105538068E+01  0.70606425201E+01 -0.13854972169E+02  0.17922357427E+02  0.00000000000E+00 0. -1.
</event>
<event>
 7    1  0.1826069E-013  0.7246164E+02  0.7816164E-02  0.1226708E+00
        -11   -1    0    0    0    0  0.00000000000E+00  0.00000000000E+00  0.45593999997E+02  0.45594000000E+02  0.51100000000E-03 0. -1.
         11   -1    0    0    0    0 -0.00000000000E+00 -0.00000000000E+00 -0.45593999997E+02  0.45594000000E+02  0.51100000000E-03 0.  1.
    9900012    2    1    2    0    0 -0.11990167210E+02  0.62991171191E+01  0.12931888083E+02  0.72461635815E+02  0.70000085352E+02 0.  0.
        -12    1    1    2    0    0  0.11990167210E+02 -0.62991171191E+01 -0.12931888083E+02  0.18726364185E+02  0.00000000000E+00 0.  1.
         11    1    3    3    0    0  0.18254936997E+02 -0.11522158180E+02  0.22732881941E+02  0.31349430226E+02  0.51100000000E-03 0. -1.
        -11    1    3    3    0    0 -0.32021483202E+01  0.11721665425E+02 -0.39701973631E+01  0.12783335307E+02  0.51100000000E-03 0.  1.
         12    1    3    3    0    0 -0.27042955886E+02  0.60996098743E+01 -0.58307964942E+01  0.28328870282E+02  0.00000000000E+00 0. -1.
</event>
<event>
 7    1  0.1826069E-013  0.7246158E+02  0.7816164E-02  0.1226708E+00
        -11   -1    0    0    0    0  0.00000000000E+00  0.00000000000E+00  0.45593999997E+02  0.45594000000E+02  0.51100000000E-03 0.  1.
         11   -1    0    0    0    0 -0.00000000000E+00 -0.00000000000E+00 -0.45593999997E+02  0.45594000000E+02  0.51100000000E-03 0. -1.
    9900012    2    1    2    0    0  0.97027853278E+01  0.11983688384E+02 -0.10626658756E+02  0.72461582651E+02  0.70000016097E+02 0.  0.
        -12    1    1    2    0    0 -0.97027853278E+01 -0.11983688384E+02  0.10626658756E+02  0.18726417349E+02  0.00000000000E+00 0.  1.
         11    1    3    3    0    0  0.98498589149E+00 -0.48143098521E+01 -0.37205000277E+00  0.49281028829E+01  0.51100000000E-03 0. -1.
        -11    1    3    3    0    0  0.34581417604E+02  0.14256867617E+02 -0.16378325257E+02  0.40833592252E+02  0.51100000000E-03 0.  1.
        -12    1    3    3    0    0 -0.25863618168E+02  0.25411306188E+01  0.61237165032E+01  0.26699887516E+02  0.00000000000E+00 0.  1.
</event>
<event>
 7    1  0.1826069E-013  0.7246151E+02  0.7816164E-02  0.1226708E+00
        -11   -1    0    0    0    0  0.00000000000E+00  0.00000000000E+00  0.45593999997E+02  0.45594000000E+02  0.51100000000E-03 0.  1.
         11   -1    0    0    0    0 -0.00000000000E+00 -0.00000000000E+00 -0.45593999997E+02  0.45594000000E+02  0.51100000000E-03 0. -1.
    9900012    2    1    2    0    0 -0.11752651900E+02 -0.46519831489E+01 -0.13817226130E+02  0.72461507754E+02  0.69999918530E+02 0.  0.
        -12    1    1    2    0    0  0.11752651900E+02  0.46519831489E+01  0.13817226130E+02  0.18726492246E+02  0.00000000000E+00 0.  1.
         11    1    3    3    0    0  0.23072107899E+02  0.14044364000E+02  0.42967391878E+01  0.27350105867E+02  0.51100000000E-03 0.  1.
        -11    1    3    3    0    0 -0.21059516152E+02 -0.45202316267E+01 -0.10075887641E+02  0.23779386589E+02  0.51100000000E-03 0. -1.
        -12    1    3    3    0    0 -0.13765243647E+02 -0.14176115522E+02 -0.80380776765E+01  0.21332015298E+02  0.00000000000E+00 0.  1.
</event>
<event>
 7    1  0.1826069E-013  0.7246166E+02  0.7816164E-02  0.1226708E+00
        -11   -1    0    0    0    0  0.00000000000E+00  0.00000000000E+00  0.45593999997E+02  0.45594000000E+02  0.51100000000E-03 0.  1.
         11   -1    0    0    0    0 -0.00000000000E+00 -0.00000000000E+00 -0.45593999997E+02  0.45594000000E+02  0.51100000000E-03 0. -1.
    9900012    2    1    2    0    0  0.15695109962E+02 -0.35772612574E+00 -0.10208396221E+02  0.72461660312E+02  0.70000117264E+02 0.  0.
        -12    1    1    2    0    0 -0.15695109962E+02  0.35772612574E+00  0.10208396221E+02  0.18726339688E+02  0.00000000000E+00 0.  1.
         11    1    3    3    0    0  0.12037320093E+02 -0.20464911845E+02 -0.79709172188E+01  0.25044864012E+02  0.51100000000E-03 0.  1.
        -11    1    3    3    0    0 -0.10023833010E+02  0.26247726238E+02 -0.10855108155E+02  0.30120652952E+02  0.51100000000E-03 0. -1.
        -12    1    3    3    0    0  0.13681622879E+02 -0.61405405196E+01  0.86176291532E+01  0.17296143348E+02  0.00000000000E+00 0.  1.
</event>
<event>
 7    1  0.1826069E-013  0.7246158E+02  0.7816164E-02  0.1226708E+00
        -11   -1    0    0    0    0  0.00000000000E+00  0.00000000000E+00  0.45593999997E+02  0.45594000000E+02  0.51100000000E-03 0.  1.
         11   -1    0    0    0    0 -0.00000000000E+00 -0.00000000000E+00 -0.45593999997E+02  0.45594000000E+02  0.51100000000E-03 0. -1.
    9900012    2    1    2    0    0 -0.11887393918E+02  0.11328220300E+02 -0.90022259657E+01  0.72461580650E+02  0.70000013491E+02 0.  0.
        -12    1    1    2    0    0  0.11887393918E+02 -0.11328220300E+02  0.90022259657E+01  0.18726419350E+02  0.00000000000E+00 0.  1.
         11    1    3    3    0    0  0.76238079069E+01  0.12910863516E+02  0.16897294056E+02  0.22590515497E+02  0.51100000000E-03 0. -1.
        -11    1    3    3    0    0 -0.14562337473E+02 -0.19325703125E+02 -0.14631290922E+02  0.28277537875E+02  0.51100000000E-03 0.  1.
         12    1    3    3    0    0 -0.49488643519E+01  0.17743059908E+02 -0.11268229100E+02  0.21593527278E+02  0.00000000000E+00 0. -1.
</event>
<event>
 7    1  0.1826069E-013  0.7246158E+02  0.7816164E-02  0.1226708E+00
        -11   -1    0    0    0    0  0.00000000000E+00  0.00000000000E+00  0.45593999997E+02  0.45594000000E+02  0.51100000000E-03 0.  1.
         11   -1    0    0    0    0 -0.00000000000E+00 -0.00000000000E+00 -0.45593999997E+02  0.45594000000E+02  0.51100000000E-03 0. -1.
    9900012    2    1    2    0    0  0.68743369663E+01  0.57778608655E+01 -0.16432849783E+02  0.72461581846E+02  0.70000015048E+02 0.  0.
        -12    1    1    2    0    0 -0.68743369663E+01 -0.57778608655E+01  0.16432849783E+02  0.18726418154E+02  0.00000000000E+00 0.  1.
         11    1    3    3    0    0  0.22981845175E+02 -0.18100650381E+02  0.69435807791E+01  0.30066793414E+02  0.51100000000E-03 0.  1.
        -11    1    3    3    0    0 -0.17276460509E+02  0.26458413159E+02 -0.18125849739E+02  0.36428973958E+02  0.51100000000E-03 0. -1.
        -12    1    3    3    0    0  0.11689523000E+01 -0.25799019126E+01 -0.52505808225E+01  0.59658144735E+01  0.00000000000E+00 0.  1.
</event>
<event>
 8    1  0.1826069E-013  0.7246169E+02  0.7816164E-02  0.1226708E+00
        -11   -1    0    0    0    0  0.00000000000E+00  0.00000000000E+00  0.45593999997E+02  0.45594000000E+02  0.51100000000E-03 0.  1.
         11   -1    0    0    0    0 -0.00000000000E+00 -0.00000000000E+00 -0.45593999997E+02  0.45594000000E+02  0.51100000000E-03 0. -1.
    9900012    2    1    2    0    0  0.17778843953E+02 -0.58810918473E+01 -0.96048335395E-02  0.72461691611E+02  0.70000158037E+02 0.  0.
        -24    2    3    3    0    0  0.47567355431E+01  0.21771646003E+01 -0.11843351716E+02  0.53108439431E+02  0.51506065470E+02 0.  0.
        -12    1    1    2    0    0 -0.17778843953E+02  0.58810918473E+01  0.96048335395E-02  0.18726308389E+02  0.00000000000E+00 0.  1.
         11    1    4    4    0    0  0.13708380378E+02  0.12054959158E+02 -0.27209516907E+02  0.32765828899E+02  0.51100000000E-03 0. -1.
        -11    1    3    3    0    0  0.13022108410E+02 -0.80582564476E+01  0.11833746882E+02  0.19353252180E+02  0.51100000000E-03 0.  1.
        -12    1    4    4    0    0 -0.89516448348E+01 -0.98777945575E+01  0.15366165191E+02  0.20342610532E+02  0.00000000000E+00 0.  1.
</event>
<event>
 7    1  0.1826069E-013  0.7246150E+02  0.7816164E-02  0.1226708E+00
        -11   -1    0    0    0    0  0.00000000000E+00  0.00000000000E+00  0.45593999997E+02  0.45594000000E+02  0.51100000000E-03 0. -1.
         11   -1    0    0    0    0 -0.00000000000E+00 -0.00000000000E+00 -0.45593999997E+02  0.45594000000E+02  0.51100000000E-03 0.  1.
    9900012    2    1    2    0    0  0.17914623858E+02  0.44021833642E+01  0.32200634743E+01  0.72461500724E+02  0.69999909372E+02 0.  0.
        -12    1    1    2    0    0 -0.17914623858E+02 -0.44021833642E+01 -0.32200634743E+01  0.18726499276E+02  0.00000000000E+00 0.  1.
         11    1    3    3    0    0  0.36613976886E+01  0.27459662337E+02  0.20295169301E+02  0.34341415025E+02  0.51100000000E-03 0. -1.
        -11    1    3    3    0    0  0.12610062234E+02 -0.69403749383E+01  0.25596392814E+00  0.14396110294E+02  0.51100000000E-03 0.  1.
         12    1    3    3    0    0  0.16431639359E+01 -0.16117104034E+02 -0.17331069755E+02  0.23723975405E+02  0.00000000000E+00 0. -1.
</event>
<event>
 7    1  0.1826069E-013  0.7246156E+02  0.7816164E-02  0.1226708E+00
        -11   -1    0    0    0    0  0.00000000000E+00  0.00000000000E+00  0.45593999997E+02  0.45594000000E+02  0.51100000000E-03 0.  1.
         11   -1    0    0    0    0 -0.00000000000E+00 -0.00000000000E+00 -0.45593999997E+02  0.45594000000E+02  0.51100000000E-03 0. -1.
    9900012    2    1    2    0    0  0.16690874118E+01 -0.55842214455E+01 -0.17796349493E+02  0.72461563146E+02  0.69999990688E+02 0.  0.
        -12    1    1    2    0    0 -0.16690874118E+01  0.55842214455E+01  0.17796349493E+02  0.18726436854E+02  0.00000000000E+00 0.  1.
         11    1    3    3    0    0 -0.10410588289E+02 -0.33299928227E+02 -0.92948181701E+01  0.36106221258E+02  0.51100000000E-03 0. -1.
        -11    1    3    3    0    0  0.84614625612E+01  0.18428431192E+01 -0.49931089620E+01  0.99961771095E+01  0.51100000000E-03 0.  1.
         12    1    3    3    0    0  0.36182131394E+01  0.25872863662E+02 -0.35084223614E+01  0.26359164779E+02  0.00000000000E+00 0. -1.
</event>
<event>
 7    1  0.1826069E-013  0.7246163E+02  0.7816164E-02  0.1226708E+00
        -11   -1    0    0    0    0  0.00000000000E+00  0.00000000000E+00  0.45593999997E+02  0.45594000000E+02  0.51100000000E-03 0.  1.
         11   -1    0    0    0    0 -0.00000000000E+00 -0.00000000000E+00 -0.45593999997E+02  0.45594000000E+02  0.51100000000E-03 0. -1.
    9900012    2    1    2    0    0 -0.62072780329E+01 -0.16594027962E+02 -0.60650632909E+01  0.72461626691E+02  0.70000073468E+02 0.  0.
        -12    1    1    2    0    0  0.62072780329E+01  0.16594027962E+02  0.60650632909E+01  0.18726373309E+02  0.00000000000E+00 0.  1.
         11    1    3    3    0    0  0.52745866541E+01  0.70553225300E+01 -0.21080781224E+02  0.22847279437E+02  0.51100000000E-03 0. -1.
        -11    1    3    3    0    0 -0.25033025988E+02 -0.76098336798E+01  0.10123345549E+02  0.28054305981E+02  0.51100000000E-03 0.  1.
        -12    1    3    3    0    0  0.13551161301E+02 -0.16039516812E+02  0.48923723844E+01  0.21560041273E+02  0.00000000000E+00 0.  1.
</event>
<event>
 7    1  0.1826069E-013  0.7246166E+02  0.7816164E-02  0.1226708E+00
        -11   -1    0    0    0    0  0.00000000000E+00  0.00000000000E+00  0.45593999997E+02  0.45594000000E+02  0.51100000000E-03 0. -1.
         11   -1    0    0    0    0 -0.00000000000E+00 -0.00000000000E+00 -0.45593999997E+02  0.45594000000E+02  0.51100000000E-03 0.  1.
    9900012    2    1    2    0    0 -0.13880140418E+02  0.93473368944E+01  0.84050409213E+01  0.72461662453E+02  0.70000120053E+02 0.  0.
        -12    1    1    2    0    0  0.13880140418E+02 -0.93473368944E+01 -0.84050409213E+01  0.18726337547E+02  0.00000000000E+00 0.  1.
         11    1    3    3    0    0 -0.42301210667E+01  0.14786365373E+02  0.32334745738E+02  0.35805953519E+02  0.51100000000E-03 0. -1.
        -11    1    3    3    0    0 -0.77096359236E+01  0.33411050351E+01 -0.26088479935E+02  0.27408215091E+02  0.51100000000E-03 0.  1.
         12    1    3    3    0    0 -0.19403834278E+01 -0.87801335136E+01  0.21587751180E+01  0.92474938429E+01  0.00000000000E+00 0. -1.
</event>
<event>
 7    1  0.1826069E-013  0.7246156E+02  0.7816164E-02  0.1226708E+00
        -11   -1    0    0    0    0  0.00000000000E+00  0.00000000000E+00  0.45593999997E+02  0.45594000000E+02  0.51100000000E-03 0.  1.
         11   -1    0    0    0    0 -0.00000000000E+00 -0.00000000000E+00 -0.45593999997E+02  0.45594000000E+02  0.51100000000E-03 0. -1.
    9900012    2    1    2    0    0 -0.90768758331E+01  0.55736435050E+01 -0.15402089765E+02  0.72461560244E+02  0.69999986907E+02 0.  0.
        -12    1    1    2    0    0  0.90768758331E+01 -0.55736435050E+01  0.15402089765E+02  0.18726439756E+02  0.00000000000E+00 0.  1.
         11    1    3    3    0    0 -0.25934700546E+02 -0.78268718371E+01  0.10071377111E+02  0.28901578717E+02  0.51100000000E-03 0. -1.
        -11    1    3    3    0    0  0.10669966385E+02 -0.13739141862E+01  0.27535118672E+01  0.11104848072E+02  0.51100000000E-03 0.  1.
         12    1    3    3    0    0  0.61878583277E+01  0.14774429528E+02 -0.28226978744E+02  0.32455133455E+02  0.00000000000E+00 0. -1.
</event>
<event>
 7    1  0.1826069E-013  0.7246149E+02  0.7816164E-02  0.1226708E+00
        -11   -1    0    0    0    0  0.00000000000E+00  0.00000000000E+00  0.45593999997E+02  0.45594000000E+02  0.51100000000E-03 0.  1.
         11   -1    0    0    0    0 -0.00000000000E+00 -0.00000000000E+00 -0.45593999997E+02  0.45594000000E+02  0.51100000000E-03 0. -1.
    9900012    2    1    2    0    0  0.60215807700E+01 -0.17726072464E+02  0.45728601603E+00  0.72461489634E+02  0.69999894925E+02 0.  0.
        -12    1    1    2    0    0 -0.60215807700E+01  0.17726072464E+02 -0.45728601603E+00  0.18726510366E+02  0.00000000000E+00 0.  1.
         11    1    3    3    0    0 -0.17593270638E+02 -0.33140817134E+02 -0.71966888630E+01  0.38205094724E+02  0.51100000000E-03 0. -1.
        -11    1    3    3    0    0  0.61499817000E+01  0.25458272474E+00  0.92096973098E+01  0.11077256523E+02  0.51100000000E-03 0.  1.
         12    1    3    3    0    0  0.17464869708E+02  0.15160161945E+02 -0.15557224307E+01  0.23179138387E+02  0.00000000000E+00 0. -1.
</event>
<event>
 7    1  0.1826069E-013  0.7246160E+02  0.7816164E-02  0.1226708E+00
        -11   -1    0    0    0    0  0.00000000000E+00  0.00000000000E+00  0.45593999997E+02  0.45594000000E+02  0.51100000000E-03 0. -1.
         11   -1    0    0    0    0 -0.00000000000E+00 -0.00000000000E+00 -0.45593999997E+02  0.45594000000E+02  0.51100000000E-03 0.  1.
    9900012    2    1    2    0    0 -0.14603955461E+01  0.15242715678E+02 -0.10779842188E+02  0.72461597944E+02  0.70000036019E+02 0.  0.
        -12    1    1    2    0    0  0.14603955461E+01 -0.15242715678E+02  0.10779842188E+02  0.18726402056E+02  0.00000000000E+00 0.  1.
         11    1    3    3    0    0 -0.27261668290E+02  0.15346862484E+02  0.10017832726E+01  0.31300612071E+02  0.51100000000E-03 0. -1.
        -11    1    3    3    0    0  0.31575009679E+02 -0.25449403876E+01 -0.52526116598E+01  0.32109934403E+02  0.51100000000E-03 0.  1.
         12    1    3    3    0    0 -0.57737369360E+01  0.24407935811E+01 -0.65290138005E+01  0.90510514703E+01  0.00000000000E+00 0. -1.
</event>
<event>
 7    1  0.1826069E-013  0.7246157E+02  0.7816164E-02  0.1226708E+00
        -11   -1    0    0    0    0  0.00000000000E+00  0.00000000000E+00  0.45593999997E+02  0.45594000000E+02  0.51100000000E-03 0. -1.
         11   -1    0    0    0    0 -0.00000000000E+00 -0.00000000000E+00 -0.45593999997E+02  0.45594000000E+02  0.51100000000E-03 0.  1.
    9900012    2    1    2    0    0  0.97727178220E+01  0.58445779248E+01  0.14866546210E+02  0.72461566785E+02  0.69999995429E+02 0.  0.
        -12    1    1    2    0    0 -0.97727178220E+01 -0.58445779248E+01 -0.14866546210E+02  0.18726433215E+02  0.00000000000E+00 0.  1.
         11    1    3    3    0    0 -0.10563119084E+02  0.24497940977E+02  0.23653608990E+02  0.35654197726E+02  0.51100000000E-03 0. -1.
        -11    1    3    3    0    0 -0.57051369817E+00 -0.85918763756E+00 -0.92919192406E+01  0.93489813730E+01  0.51100000000E-03 0.  1.
         12    1    3    3    0    0  0.20906350605E+02 -0.17794175415E+02  0.50485646009E+00  0.27458387687E+02  0.00000000000E+00 0. -1.
</event>
<event>
 7    1  0.1826069E-013  0.7246169E+02  0.7816164E-02  0.1226708E+00
        -11   -1    0    0    0    0  0.00000000000E+00  0.00000000000E+00  0.45593999997E+02  0.45594000000E+02  0.51100000000E-03 0.  1.
         11   -1    0    0    0    0 -0.00000000000E+00 -0.00000000000E+00 -0.45593999997E+02  0.45594000000E+02  0.51100000000E-03 0. -1.
    9900012    2    1    2    0    0  0.32194438290E+01  0.74857284170E+01 -0.16860422367E+02  0.72461687205E+02  0.70000152297E+02 0.  0.
        -12    1    1    2    0    0 -0.32194438290E+01 -0.74857284170E+01  0.16860422367E+02  0.18726312795E+02  0.00000000000E+00 0.  1.
         11    1    3    3    0    0 -0.27201157989E+02  0.49437573155E+00 -0.15769418768E+02  0.31445539777E+02  0.51100000000E-03 0. -1.
        -11    1    3    3    0    0  0.11565199378E+02 -0.63587934129E+01  0.88231893180E+01  0.15875665666E+02  0.51100000000E-03 0.  1.
         12    1    3    3    0    0  0.18855402440E+02  0.13350146098E+02 -0.99141929169E+01  0.25140481762E+02  0.00000000000E+00 0. -1.
</event>
<event>
 7    1  0.1826069E-013  0.7246158E+02  0.7816164E-02  0.1226708E+00
        -11   -1    0    0    0    0  0.00000000000E+00  0.00000000000E+00  0.45593999997E+02  0.45594000000E+02  0.51100000000E-03 0.  1.
         11   -1    0    0    0    0 -0.00000000000E+00 -0.00000000000E+00 -0.45593999997E+02  0.45594000000E+02  0.51100000000E-03 0. -1.
    9900012    2    1    2    0    0 -0.17677134513E+02  0.52913590427E+01  0.31936474854E+01  0.72461576172E+02  0.70000007657E+02 0.  0.
        -12    1    1    2    0    0  0.17677134513E+02 -0.52913590427E+01 -0.31936474854E+01  0.18726423828E+02  0.00000000000E+00 0.  1.
         11    1    3    3    0    0  0.14197629008E+02  0.11942780699E+02 -0.77981144752E+01  0.20124941488E+02  0.51100000000E-03 0. -1.
        -11    1    3    3    0    0 -0.39868343237E+01  0.40749894244E+01  0.20264579176E+02  0.21051212701E+02  0.51100000000E-03 0.  1.
        -12    1    3    3    0    0 -0.27887929197E+02 -0.10726411080E+02 -0.92728172154E+01  0.31285421984E+02  0.00000000000E+00 0.  1.
</event>
<event>
 7    1  0.1826069E-013  0.7246153E+02  0.7816164E-02  0.1226708E+00
        -11   -1    0    0    0    0  0.00000000000E+00  0.00000000000E+00  0.45593999997E+02  0.45594000000E+02  0.51100000000E-03 0.  1.
         11   -1    0    0    0    0 -0.00000000000E+00 -0.00000000000E+00 -0.45593999997E+02  0.45594000000E+02  0.51100000000E-03 0. -1.
    9900012    2    1    2    0    0 -0.10544602640E+02  0.10127817874E+02 -0.11701259703E+02  0.72461526270E+02  0.69999942650E+02 0.  0.
        -12    1    1    2    0    0  0.10544602640E+02 -0.10127817874E+02  0.11701259703E+02  0.18726473730E+02  0.00000000000E+00 0.  1.
         11    1    3    3    0    0 -0.64808533115E+01 -0.23915025140E+02 -0.15886152396E+02  0.29432970038E+02  0.51100000000E-03 0. -1.
        -11    1    3    3    0    0 -0.28119856199E+01  0.23585109647E+02  0.14871818669E+02  0.28023840761E+02  0.51100000000E-03 0.  1.
         12    1    3    3    0    0 -0.12517637084E+01  0.10457733367E+02 -0.10686925976E+02  0.15004715471E+02  0.00000000000E+00 0. -1.
</event>
<event>
 7    1  0.1826069E-013  0.7246155E+02  0.7816164E-02  0.1226708E+00
        -11   -1    0    0    0    0  0.00000000000E+00  0.00000000000E+00  0.45593999997E+02  0.45594000000E+02  0.51100000000E-03 0. -1.
         11   -1    0    0    0    0 -0.00000000000E+00 -0.00000000000E+00 -0.45593999997E+02  0.45594000000E+02  0.51100000000E-03 0.  1.
    9900012    2    1    2    0    0  0.21927124740E+01 -0.16078274844E+02  0.93467204326E+01  0.72461545642E+02  0.69999967886E+02 0.  0.
        -12    1    1    2    0    0 -0.21927124740E+01  0.16078274844E+02 -0.93467204326E+01  0.18726454358E+02  0.00000000000E+00 0.  1.
         11    1    3    3    0    0 -0.11553192811E+02 -0.27070429004E+02 -0.14195754953E+02  0.32677268086E+02  0.51100000000E-03 0. -1.
        -11    1    3    3    0    0  0.90648647316E+00  0.14172505667E+02  0.17736416695E+01  0.14311793726E+02  0.51100000000E-03 0.  1.
         12    1    3    3    0    0  0.12839418812E+02 -0.31803515075E+01  0.21768833716E+02  0.25472483831E+02  0.00000000000E+00 0. -1.
</event>
<event>
 7    1  0.1826069E-013  0.7246157E+02  0.7816164E-02  0.1226708E+00
        -11   -1    0    0    0    0  0.00000000000E+00  0.00000000000E+00  0.45593999997E+02  0.45594000000E+02  0.51100000000E-03 0. -1.
         11   -1    0    0    0    0 -0.00000000000E+00 -0.00000000000E+00 -0.45593999997E+02  0.45594000000E+02  0.51100000000E-03 0.  1.
    9900012    2    1    2    0    0  0.18271080714E+02  0.12591099549E+00 -0.41025534473E+01  0.72461569779E+02  0.69999999329E+02 0.  0.
        -12    1    1    2    0    0 -0.18271080714E+02 -0.12591099549E+00  0.41025534473E+01  0.18726430221E+02  0.00000000000E+00 0.  1.
         11    1    3    3    0    0  0.13125019643E+02 -0.17114786800E+02  0.91629772226E+01  0.23433783725E+02  0.51100000000E-03 0. -1.
        -11    1    3    3    0    0  0.79578434887E+00  0.27273468983E+02  0.49996277090E+01  0.27739352202E+02  0.51100000000E-03 0.  1.
         12    1    3    3    0    0  0.43502767219E+01 -0.10032771188E+02 -0.18265158379E+02  0.21288433852E+02  0.00000000000E+00 0. -1.
</event>
<event>
 7    1  0.1826069E-013  0.7246154E+02  0.7816164E-02  0.1226708E+00
        -11   -1    0    0    0    0  0.00000000000E+00  0.00000000000E+00  0.45593999997E+02  0.45594000000E+02  0.51100000000E-03 0.  1.
         11   -1    0    0    0    0 -0.00000000000E+00 -0.00000000000E+00 -0.45593999997E+02  0.45594000000E+02  0.51100000000E-03 0. -1.
    9900012    2    1    2    0    0  0.17046832109E+02  0.12978582168E+01  0.76420759108E+01  0.72461541576E+02  0.69999962589E+02 0.  0.
        -12    1    1    2    0    0 -0.17046832109E+02 -0.12978582168E+01 -0.76420759108E+01  0.18726458424E+02  0.00000000000E+00 0.  1.
         11    1    3    3    0    0 -0.84681225954E+01  0.17554537534E+02  0.10670980172E+02  0.22220276920E+02  0.51100000000E-03 0. -1.
        -11    1    3    3    0    0  0.73349797016E+01 -0.23259270976E+02  0.10468722842E+02  0.26540342344E+02  0.51100000000E-03 0.  1.
        -12    1    3    3    0    0  0.18179975002E+02  0.70025916587E+01 -0.13497627102E+02  0.23700922312E+02  0.00000000000E+00 0.  1.
</event>
<event>
 7    1  0.1826069E-013  0.7246157E+02  0.7816164E-02  0.1226708E+00
        -11   -1    0    0    0    0  0.00000000000E+00  0.00000000000E+00  0.45593999997E+02  0.45594000000E+02  0.51100000000E-03 0.  1.
         11   -1    0    0    0    0 -0.00000000000E+00 -0.00000000000E+00 -0.45593999997E+02  0.45594000000E+02  0.51100000000E-03 0. -1.
    9900012    2    1    2    0    0  0.10418330601E+01 -0.30792359779E+01 -0.18442127779E+02  0.72461569819E+02  0.69999999380E+02 0.  0.
        -12    1    1    2    0    0 -0.10418330601E+01  0.30792359779E+01  0.18442127779E+02  0.18726430181E+02  0.00000000000E+00 0.  1.
         11    1    3    3    0    0  0.75791817818E+01  0.13549724465E+01  0.22898106601E+02  0.24157881384E+02  0.51100000000E-03 0. -1.
        -11    1    3    3    0    0 -0.29460621077E+01 -0.67454023066E+01 -0.64932073269E+00  0.73892727582E+01  0.51100000000E-03 0.  1.
         12    1    3    3    0    0 -0.35912866140E+01  0.23111938821E+01 -0.40690913647E+02  0.40914415676E+02  0.00000000000E+00 0. -1.
</event>
<event>
 7    1  0.1826069E-013  0.7246159E+02  0.7816164E-02  0.1226708E+00
        -11   -1    0    0    0    0  0.00000000000E+00  0.00000000000E+00  0.45593999997E+02  0.45594000000E+02  0.51100000000E-03 0.  1.
         11   -1    0    0    0    0 -0.00000000000E+00 -0.00000000000E+00 -0.45593999997E+02  0.45594000000E+02  0.51100000000E-03 0. -1.
    9900012    2    1    2    0    0 -0.42051252713E+01 -0.63325399364E+01 -0.17114152272E+02  0.72461592213E+02  0.70000028554E+02 0.  0.
        -12    1    1    2    0    0  0.42051252713E+01  0.63325399364E+01  0.17114152272E+02  0.18726407787E+02  0.00000000000E+00 0.  1.
         11    1    3    3    0    0 -0.22655090824E+01  0.19255307861E+02  0.11015326344E+02  0.22298807748E+02  0.51100000000E-03 0.  1.
        -11    1    3    3    0    0 -0.11345816975E+02 -0.16546752680E+02 -0.30883845770E+02  0.36828447115E+02  0.51100000000E-03 0. -1.
        -12    1    3    3    0    0  0.94062007865E+01 -0.90410951178E+01  0.27543671538E+01  0.13334337351E+02  0.00000000000E+00 0.  1.
</event>
<event>
 7    1  0.1826069E-013  0.7246158E+02  0.7816164E-02  0.1226708E+00
        -11   -1    0    0    0    0  0.00000000000E+00  0.00000000000E+00  0.45593999997E+02  0.45594000000E+02  0.51100000000E-03 0.  1.
         11   -1    0    0    0    0 -0.00000000000E+00 -0.00000000000E+00 -0.45593999997E+02  0.45594000000E+02  0.51100000000E-03 0. -1.
    9900012    2    1    2    0    0  0.77986626589E+01  0.13043802345E+02  0.10941611001E+02  0.72461580957E+02  0.70000013890E+02 0.  0.
        -12    1    1    2    0    0 -0.77986626589E+01 -0.13043802345E+02 -0.10941611001E+02  0.18726419043E+02  0.00000000000E+00 0.  1.
         11    1    3    3    0    0  0.29347726424E+02  0.80070194374E+01 -0.12807583019E+02  0.33006599182E+02  0.51100000000E-03 0. -1.
        -11    1    3    3    0    0  0.31304559080E+01 -0.46813005341E+00  0.10380690575E+02  0.10852540579E+02  0.51100000000E-03 0.  1.
         12    1    3    3    0    0 -0.24679519673E+02  0.55049129608E+01  0.13368503445E+02  0.28602441196E+02  0.00000000000E+00 0. -1.
</event>
<event>
 7    1  0.1826069E-013  0.7246174E+02  0.7816164E-02  0.1226708E+00
        -11   -1    0    0    0    0  0.00000000000E+00  0.00000000000E+00  0.45593999997E+02  0.45594000000E+02  0.51100000000E-03 0. -1.
         11   -1    0    0    0    0 -0.00000000000E+00 -0.00000000000E+00 -0.45593999997E+02  0.45594000000E+02  0.51100000000E-03 0.  1.
    9900012    2    1    2    0    0  0.64257920112E+01  0.17524227521E+02 -0.15111526761E+01  0.72461736742E+02  0.70000216829E+02 0.  0.
        -12    1    1    2    0    0 -0.64257920112E+01 -0.17524227521E+02  0.15111526761E+01  0.18726263258E+02  0.00000000000E+00 0.  1.
         11    1    3    3    0    0 -0.10054129304E+02 -0.76135295845E+00  0.24369104855E+02  0.26372683711E+02  0.51100000000E-03 0. -1.
        -11    1    3    3    0    0  0.18175835873E+02 -0.43813065545E+00 -0.18364787351E+02  0.25842182239E+02  0.51100000000E-03 0.  1.
        -12    1    3    3    0    0 -0.16959145581E+01  0.18723711135E+02 -0.75154701808E+01  0.20246870793E+02  0.00000000000E+00 0.  1.
</event>
<event>
 7    1  0.1826069E-013  0.7246153E+02  0.7816164E-02  0.1226708E+00
        -11   -1    0    0    0    0  0.00000000000E+00  0.00000000000E+00  0.45593999997E+02  0.45594000000E+02  0.51100000000E-03 0.  1.
         11   -1    0    0    0    0 -0.00000000000E+00 -0.00000000000E+00 -0.45593999997E+02  0.45594000000E+02  0.51100000000E-03 0. -1.
    9900012    2    1    2    0    0 -0.16882568201E+02  0.79556501408E+01  0.15385243992E+01  0.72461533822E+02  0.69999952487E+02 0.  0.
        -12    1    1    2    0    0  0.16882568201E+02 -0.79556501408E+01 -0.15385243992E+01  0.18726466178E+02  0.00000000000E+00 0.  1.
         11    1    3    3    0    0  0.92533976764E+01  0.30363273355E+02 -0.62129637109E+00  0.31748066820E+02  0.51100000000E-03 0. -1.
        -11    1    3    3    0    0 -0.15081845269E+02 -0.18584078104E+01  0.72409161242E+01  0.16832902390E+02  0.51100000000E-03 0.  1.
         12    1    3    3    0    0 -0.11054120608E+02 -0.20549215404E+02 -0.50810953539E+01  0.23880564611E+02  0.00000000000E+00 0. -1.
</event>
<event>
 7    1  0.1826069E-013  0.7246158E+02  0.7816164E-02  0.1226708E+00
        -11   -1    0    0    0    0  0.00000000000E+00  0.00000000000E+00  0.45593999997E+02  0.45594000000E+02  0.51100000000E-03 0. -1.
         11   -1    0    0    0    0 -0.00000000000E+00 -0.00000000000E+00 -0.45593999997E+02  0.45594000000E+02  0.51100000000E-03 0.  1.
    9900012    2    1    2    0    0  0.24298038738E+01 -0.62484923481E+01  0.17485175390E+02  0.72461575837E+02  0.70000007221E+02 0.  0.
        -12    1    1    2    0    0 -0.24298038738E+01  0.62484923481E+01 -0.17485175390E+02  0.18726424163E+02  0.00000000000E+00 0.  1.
         11    1    3    3    0    0 -0.12459182868E+02 -0.32848071907E-01 -0.20843340318E+02  0.24283268985E+02  0.51100000000E-03 0. -1.
        -11    1    3    3    0    0  0.12481117296E+02 -0.10665248352E+02  0.96215609217E+01  0.19028931820E+02  0.51100000000E-03 0.  1.
         12    1    3    3    0    0  0.24078694456E+01  0.44496040762E+01  0.28706954786E+02  0.29149375033E+02  0.00000000000E+00 0. -1.
</event>
<event>
 7    1  0.1826069E-013  0.7246156E+02  0.7816164E-02  0.1226708E+00
        -11   -1    0    0    0    0  0.00000000000E+00  0.00000000000E+00  0.45593999997E+02  0.45594000000E+02  0.51100000000E-03 0.  1.
         11   -1    0    0    0    0 -0.00000000000E+00 -0.00000000000E+00 -0.45593999997E+02  0.45594000000E+02  0.51100000000E-03 0. -1.
    9900012    2    1    2    0    0 -0.67913007253E+01  0.73269350024E+01 -0.15839001383E+02  0.72461555947E+02  0.69999981310E+02 0.  0.
        -12    1    1    2    0    0  0.67913007253E+01 -0.73269350024E+01  0.15839001383E+02  0.18726444053E+02  0.00000000000E+00 0.  1.
         11    1    3    3    0    0 -0.24995014351E+02  0.13515285049E+02 -0.23212257036E+02  0.36690905540E+02  0.51100000000E-03 0. -1.
        -11    1    3    3    0    0  0.26140174793E+02 -0.61618723075E+01  0.40240714358E+01  0.27156409184E+02  0.51100000000E-03 0.  1.
        -12    1    3    3    0    0 -0.79364611674E+01 -0.26477739152E-01  0.33491842174E+01  0.86142412234E+01  0.00000000000E+00 0.  1.
</event>
<event>
 7    1  0.1826069E-013  0.7246153E+02  0.7816164E-02  0.1226708E+00
        -11   -1    0    0    0    0  0.00000000000E+00  0.00000000000E+00  0.45593999997E+02  0.45594000000E+02  0.51100000000E-03 0.  1.
         11   -1    0    0    0    0 -0.00000000000E+00 -0.00000000000E+00 -0.45593999997E+02  0.45594000000E+02  0.51100000000E-03 0. -1.
    9900012    2    1    2    0    0 -0.15553376625E+01  0.18632477885E+02 -0.10452503070E+01  0.72461525276E+02  0.69999941356E+02 0.  0.
        -12    1    1    2    0    0  0.15553376625E+01 -0.18632477885E+02  0.10452503070E+01  0.18726474724E+02  0.00000000000E+00 0.  1.
         11    1    3    3    0    0 -0.12066026243E+02 -0.71249022790E+00  0.11799786644E+02  0.16891761209E+02  0.51100000000E-03 0.  1.
        -11    1    3    3    0    0  0.18361918262E+02 -0.17424022522E+01 -0.24150160125E+02  0.30387929218E+02  0.51100000000E-03 0. -1.
        -12    1    3    3    0    0 -0.78512296811E+01  0.21087370365E+02  0.11305123174E+02  0.25181834850E+02  0.00000000000E+00 0.  1.
</event>
<event>
 7    1  0.1826069E-013  0.7246199E+02  0.7816164E-02  0.1226707E+00
        -11   -1    0    0    0    0  0.00000000000E+00  0.00000000000E+00  0.45593999997E+02  0.45594000000E+02  0.51100000000E-03 0.  1.
         11   -1    0    0    0    0 -0.00000000000E+00 -0.00000000000E+00 -0.45593999997E+02  0.45594000000E+02  0.51100000000E-03 0. -1.
    9900012    2    1    2    0    0 -0.11707641175E+02  0.69193460358E+01 -0.12873123573E+02  0.72461988092E+02  0.70000544257E+02 0.  0.
        -12    1    1    2    0    0  0.11707641175E+02 -0.69193460358E+01  0.12873123573E+02  0.18726011908E+02  0.00000000000E+00 0.  1.
         11    1    3    3    0    0 -0.24621816452E+02  0.18872693653E+02 -0.30807696246E+02  0.43721008216E+02  0.51100000000E-03 0. -1.
        -11    1    3    3    0    0  0.10469871686E+02 -0.12869961710E+02  0.19573337948E+02  0.25658715600E+02  0.51100000000E-03 0.  1.
         12    1    3    3    0    0  0.24443035915E+01  0.91661409276E+00 -0.16387652753E+01  0.30822642765E+01  0.00000000000E+00 0. -1.
</event>
<event>
 7    1  0.1826069E-013  0.7246159E+02  0.7816164E-02  0.1226708E+00
        -11   -1    0    0    0    0  0.00000000000E+00  0.00000000000E+00  0.45593999997E+02  0.45594000000E+02  0.51100000000E-03 0.  1.
         11   -1    0    0    0    0 -0.00000000000E+00 -0.00000000000E+00 -0.45593999997E+02  0.45594000000E+02  0.51100000000E-03 0. -1.
    9900012    2    1    2    0    0 -0.57140196444E+01  0.11408671617E+02 -0.13706593254E+02  0.72461587978E+02  0.70000023037E+02 0.  0.
        -12    1    1    2    0    0  0.57140196444E+01 -0.11408671617E+02  0.13706593254E+02  0.18726412022E+02  0.00000000000E+00 0.  1.
         11    1    3    3    0    0 -0.64121247951E+01  0.16400754263E+02 -0.15510813207E+02  0.23466687270E+02  0.51100000000E-03 0.  1.
        -11    1    3    3    0    0 -0.23525504261E+02 -0.72849628916E+01  0.67752972256E+00  0.24636945465E+02  0.51100000000E-03 0. -1.
        -12    1    3    3    0    0  0.24223609412E+02  0.22928802453E+01  0.11266902305E+01  0.24357955243E+02  0.00000000000E+00 0.  1.
</event>
<event>
 7    1  0.1826069E-013  0.7246154E+02  0.7816164E-02  0.1226708E+00
        -11   -1    0    0    0    0  0.00000000000E+00  0.00000000000E+00  0.45593999997E+02  0.45594000000E+02  0.51100000000E-03 0. -1.
         11   -1    0    0    0    0 -0.00000000000E+00 -0.00000000000E+00 -0.45593999997E+02  0.45594000000E+02  0.51100000000E-03 0.  1.
    9900012    2    1    2    0    0  0.89654996706E+01 -0.26597952030E+01  0.16224231538E+02  0.72461537871E+02  0.69999957763E+02 0.  0.
        -12    1    1    2    0    0 -0.89654996706E+01  0.26597952030E+01 -0.16224231538E+02  0.18726462129E+02  0.00000000000E+00 0.  1.
         11    1    3    3    0    0  0.50553083695E+01 -0.20496657883E+01  0.26958565162E+02  0.27504936074E+02  0.51100000000E-03 0. -1.
        -11    1    3    3    0    0  0.18501194617E+02 -0.29979556573E+00 -0.20330359884E+02  0.27490136648E+02  0.51100000000E-03 0.  1.
         12    1    3    3    0    0 -0.14591003316E+02 -0.31033384889E+00  0.95960262594E+01  0.17466465150E+02  0.00000000000E+00 0. -1.
</event>
<event>
 7    1  0.1826069E-013  0.7246149E+02  0.7816164E-02  0.1226708E+00
        -11   -1    0    0    0    0  0.00000000000E+00  0.00000000000E+00  0.45593999997E+02  0.45594000000E+02  0.51100000000E-03 0. -1.
         11   -1    0    0    0    0 -0.00000000000E+00 -0.00000000000E+00 -0.45593999997E+02  0.45594000000E+02  0.51100000000E-03 0.  1.
    9900012    2    1    2    0    0  0.18653989840E+02 -0.15042277125E+01  0.66953032497E+00  0.72461486475E+02  0.69999890810E+02 0.  0.
        -12    1    1    2    0    0 -0.18653989840E+02  0.15042277125E+01 -0.66953032497E+00  0.18726513525E+02  0.00000000000E+00 0.  1.
         11    1    3    3    0    0  0.38867394538E+01  0.11297627041E+02  0.26623734525E+02  0.29181609974E+02  0.51100000000E-03 0. -1.
        -11    1    3    3    0    0 -0.33603559926E+00  0.84775100039E+01 -0.74443730072E+01  0.11287151347E+02  0.51100000000E-03 0.  1.
         12    1    3    3    0    0  0.15103285985E+02 -0.21279364757E+02 -0.18509831193E+02  0.31992725155E+02  0.00000000000E+00 0. -1.
</event>
<event>
 7    1  0.1826069E-013  0.7246158E+02  0.7816164E-02  0.1226708E+00
        -11   -1    0    0    0    0  0.00000000000E+00  0.00000000000E+00  0.45593999997E+02  0.45594000000E+02  0.51100000000E-03 0. -1.
         11   -1    0    0    0    0 -0.00000000000E+00 -0.00000000000E+00 -0.45593999997E+02  0.45594000000E+02  0.51100000000E-03 0.  1.
    9900012    2    1    2    0    0 -0.55589947929E+01  0.17383811886E+02  0.41927884871E+01  0.72461579784E+02  0.70000012362E+02 0.  0.
        -12    1    1    2    0    0  0.55589947929E+01 -0.17383811886E+02 -0.41927884871E+01  0.18726420216E+02  0.00000000000E+00 0.  1.
         11    1    3    3    0    0 -0.26741377922E+01 -0.70703388638E+01  0.12244735424E+01  0.76576785188E+01  0.51100000000E-03 0.  1.
        -11    1    3    3    0    0  0.17198457505E+02  0.28291408368E+02  0.19575304276E+02  0.38462751666E+02  0.51100000000E-03 0. -1.
        -12    1    3    3    0    0 -0.20083314506E+02 -0.38372576181E+01 -0.16606989331E+02  0.26341149599E+02  0.00000000000E+00 0.  1.
</event>
<event>
 7    1  0.1826069E-013  0.7246151E+02  0.7816164E-02  0.1226708E+00
        -11   -1    0    0    0    0  0.00000000000E+00  0.00000000000E+00  0.45593999997E+02  0.45594000000E+02  0.51100000000E-03 0.  1.
         11   -1    0    0    0    0 -0.00000000000E+00 -0.00000000000E+00 -0.45593999997E+02  0.45594000000E+02  0.51100000000E-03 0. -1.
    9900012    2    1    2    0    0 -0.13349927721E+02 -0.12894559877E+02  0.24881768447E+01  0.72461514249E+02  0.69999926990E+02 0.  0.
        -12    1    1    2    0    0  0.13349927721E+02  0.12894559877E+02 -0.24881768447E+01  0.18726485751E+02  0.00000000000E+00 0.  1.
         11    1    3    3    0    0 -0.10613665947E+02 -0.28326432989E+02  0.78410927060E+01  0.31249311125E+02  0.51100000000E-03 0. -1.
        -11    1    3    3    0    0  0.16081159681E+02  0.94153289822E+01 -0.96638298693E+01  0.20991467898E+02  0.51100000000E-03 0.  1.
        -12    1    3    3    0    0 -0.18817421455E+02  0.60165441297E+01  0.43109140080E+01  0.20220735226E+02  0.00000000000E+00 0.  1.
</event>
<event>
 7    1  0.1826069E-013  0.7246161E+02  0.7816164E-02  0.1226708E+00
        -11   -1    0    0    0    0  0.00000000000E+00  0.00000000000E+00  0.45593999997E+02  0.45594000000E+02  0.51100000000E-03 0.  1.
         11   -1    0    0    0    0 -0.00000000000E+00 -0.00000000000E+00 -0.45593999997E+02  0.45594000000E+02  0.51100000000E-03 0. -1.
    9900012    2    1    2    0    0  0.96320890123E+01 -0.16915695734E+00 -0.16058393870E+02  0.72461607755E+02  0.70000048800E+02 0.  0.
        -12    1    1    2    0    0 -0.96320890123E+01  0.16915695734E+00  0.16058393870E+02  0.18726392245E+02  0.00000000000E+00 0.  1.
         11    1    3    3    0    0 -0.12719490789E+02 -0.15084988554E+02 -0.16149847200E+02  0.25498233085E+02  0.51100000000E-03 0. -1.
        -11    1    3    3    0    0  0.51380514591E+01 -0.22574675595E+00  0.17459935113E+02  0.18201644673E+02  0.51100000000E-03 0.  1.
        -12    1    3    3    0    0  0.17213528342E+02  0.15141578352E+02 -0.17368481783E+02  0.28761729997E+02  0.00000000000E+00 0.  1.
</event>
<event>
 7    1  0.1826069E-013  0.7246160E+02  0.7816164E-02  0.1226708E+00
        -11   -1    0    0    0    0  0.00000000000E+00  0.00000000000E+00  0.45593999997E+02  0.45594000000E+02  0.51100000000E-03 0.  1.
         11   -1    0    0    0    0 -0.00000000000E+00 -0.00000000000E+00 -0.45593999997E+02  0.45594000000E+02  0.51100000000E-03 0. -1.
    9900012    2    1    2    0    0 -0.35887667640E+01  0.57675823876E+01 -0.17450893034E+02  0.72461603626E+02  0.70000043420E+02 0.  0.
        -12    1    1    2    0    0  0.35887667640E+01 -0.57675823876E+01  0.17450893034E+02  0.18726396374E+02  0.00000000000E+00 0.  1.
         11    1    3    3    0    0 -0.94604839980E+01  0.12326130859E+01 -0.41447462968E+02  0.42531309399E+02  0.51100000000E-03 0. -1.
        -11    1    3    3    0    0 -0.24006351099E+01 -0.44912520089E+01  0.39683325266E+01  0.64561642514E+01  0.51100000000E-03 0.  1.
         12    1    3    3    0    0  0.82723523439E+01  0.90262213107E+01  0.20028237407E+02  0.23474129975E+02  0.00000000000E+00 0. -1.
</event>
<event>
 7    1  0.1826069E-013  0.7246154E+02  0.7816164E-02  0.1226708E+00
        -11   -1    0    0    0    0  0.00000000000E+00  0.00000000000E+00  0.45593999997E+02  0.45594000000E+02  0.51100000000E-03 0.  1.
         11   -1    0    0    0    0 -0.00000000000E+00 -0.00000000000E+00 -0.45593999997E+02  0.45594000000E+02  0.51100000000E-03 0. -1.
    9900012    2    1    2    0    0 -0.72807938673E+01  0.16762331879E+02 -0.40858942881E+01  0.72461541138E+02  0.69999962019E+02 0.  0.
        -12    1    1    2    0    0  0.72807938673E+01 -0.16762331879E+02  0.40858942881E+01  0.18726458862E+02  0.00000000000E+00 0.  1.
         11    1    3    3    0    0 -0.13613508776E+02  0.10179193807E+02 -0.45755850266E+01  0.17603397011E+02  0.51100000000E-03 0. -1.
        -11    1    3    3    0    0  0.67775561556E+01  0.11296789588E+01  0.26963304179E+02  0.27825010593E+02  0.51100000000E-03 0.  1.
        -12    1    3    3    0    0 -0.44484124696E+00  0.54534591137E+01 -0.26473613441E+02  0.27033133534E+02  0.00000000000E+00 0.  1.
</event>
<event>
 7    1  0.1826069E-013  0.7246159E+02  0.7816164E-02  0.1226708E+00
        -11   -1    0    0    0    0  0.00000000000E+00  0.00000000000E+00  0.45593999997E+02  0.45594000000E+02  0.51100000000E-03 0. -1.
         11   -1    0    0    0    0 -0.00000000000E+00 -0.00000000000E+00 -0.45593999997E+02  0.45594000000E+02  0.51100000000E-03 0.  1.
    9900012    2    1    2    0    0 -0.89608113755E+01 -0.16339113554E+02 -0.18481583973E+01  0.72461589193E+02  0.70000024619E+02 0.  0.
        -12    1    1    2    0    0  0.89608113755E+01  0.16339113554E+02  0.18481583973E+01  0.18726410807E+02  0.00000000000E+00 0.  1.
         11    1    3    3    0    0 -0.15799231467E+02 -0.33311041427E+02  0.97426703580E+01  0.38133460660E+02  0.51100000000E-03 0. -1.
        -11    1    3    3    0    0 -0.33428960056E+00  0.23936476273E+01 -0.17025358207E+02  0.17196049570E+02  0.51100000000E-03 0.  1.
         12    1    3    3    0    0  0.71727096919E+01  0.14578280246E+02  0.54345294513E+01  0.17132078963E+02  0.00000000000E+00 0. -1.
</event>
<event>
 7    1  0.1826069E-013  0.7246157E+02  0.7816164E-02  0.1226708E+00
        -11   -1    0    0    0    0  0.00000000000E+00  0.00000000000E+00  0.45593999997E+02  0.45594000000E+02  0.51100000000E-03 0.  1.
         11   -1    0    0    0    0 -0.00000000000E+00 -0.00000000000E+00 -0.45593999997E+02  0.45594000000E+02  0.51100000000E-03 0. -1.
    9900012    2    1    2    0    0 -0.16960989742E+02 -0.67934399514E+01 -0.41052515155E+01  0.72461572434E+02  0.70000002787E+02 0.  0.
        -12    1    1    2    0    0  0.16960989742E+02  0.67934399514E+01  0.41052515155E+01  0.18726427566E+02  0.00000000000E+00 0.  1.
         11    1    3    3    0    0 -0.20976190161E+02 -0.67418622587E+01 -0.16256974854E+02  0.27381426042E+02  0.51100000000E-03 0. -1.
        -11    1    3    3    0    0  0.11013251231E+02 -0.19382071104E+02  0.99236266681E+01  0.24401531703E+02  0.51100000000E-03 0.  1.
        -12    1    3    3    0    0 -0.69980508107E+01  0.19330493412E+02  0.22280966703E+01  0.20678614689E+02  0.00000000000E+00 0.  1.
</event>
<event>
 7    1  0.1826069E-013  0.7246155E+02  0.7816164E-02  0.1226708E+00
        -11   -1    0    0    0    0  0.00000000000E+00  0.00000000000E+00  0.45593999997E+02  0.45594000000E+02  0.51100000000E-03 0.  1.
         11   -1    0    0    0    0 -0.00000000000E+00 -0.00000000000E+00 -0.45593999997E+02  0.45594000000E+02  0.51100000000E-03 0. -1.
    9900012    2    1    2    0    0 -0.32832207414E+01 -0.67078624077E+01 -0.17172795122E+02  0.72461552157E+02  0.69999976373E+02 0.  0.
        -12    1    1    2    0    0  0.32832207414E+01  0.67078624077E+01  0.17172795122E+02  0.18726447843E+02  0.00000000000E+00 0.  1.
         11    1    3    3    0    0  0.19309935545E+02  0.86361831464E+01 -0.39756945207E+01  0.21523554940E+02  0.51100000000E-03 0.  1.
        -11    1    3    3    0    0 -0.21788927198E+02 -0.26145777693E+02 -0.18651808306E+02  0.38810423767E+02  0.51100000000E-03 0. -1.
         12    1    3    3    0    0 -0.80422908825E+00  0.10801732139E+02  0.54547077052E+01  0.12127573450E+02  0.00000000000E+00 0. -1.
</event>
<event>
 7    1  0.1826069E-013  0.7246156E+02  0.7816164E-02  0.1226708E+00
        -11   -1    0    0    0    0  0.00000000000E+00  0.00000000000E+00  0.45593999997E+02  0.45594000000E+02  0.51100000000E-03 0.  1.
         11   -1    0    0    0    0 -0.00000000000E+00 -0.00000000000E+00 -0.45593999997E+02  0.45594000000E+02  0.51100000000E-03 0. -1.
    9900012    2    1    2    0    0  0.10573888948E+02  0.14148018282E+02 -0.62214005617E+01  0.72461564842E+02  0.69999992897E+02 0.  0.
        -12    1    1    2    0    0 -0.10573888948E+02 -0.14148018282E+02  0.62214005617E+01  0.18726435158E+02  0.00000000000E+00 0.  1.
         11    1    3    3    0    0 -0.25906454005E+02 -0.66698093969E+01  0.71593238376E+01  0.27692718078E+02  0.51100000000E-03 0. -1.
        -11    1    3    3    0    0  0.17427849962E+02  0.14269673638E+02 -0.59646466575E+01  0.23300870157E+02  0.51100000000E-03 0.  1.
         12    1    3    3    0    0  0.19052492991E+02  0.65481540409E+01 -0.74160777418E+01  0.21467976606E+02  0.00000000000E+00 0. -1.
</event>
<event>
 7    1  0.1826069E-013  0.7246151E+02  0.7816164E-02  0.1226708E+00
        -11   -1    0    0    0    0  0.00000000000E+00  0.00000000000E+00  0.45593999997E+02  0.45594000000E+02  0.51100000000E-03 0. -1.
         11   -1    0    0    0    0 -0.00000000000E+00 -0.00000000000E+00 -0.45593999997E+02  0.45594000000E+02  0.51100000000E-03 0.  1.
    9900012    2    1    2    0    0 -0.11650141392E+02  0.14656808504E+02  0.36565340894E+00  0.72461507205E+02  0.69999917815E+02 0.  0.
        -12    1    1    2    0    0  0.11650141392E+02 -0.14656808504E+02 -0.36565340894E+00  0.18726492795E+02  0.00000000000E+00 0.  1.
         11    1    3    3    0    0 -0.88492940280E+01  0.28905374851E+02  0.20488254101E+02  0.36518478287E+02  0.51100000000E-03 0. -1.
        -11    1    3    3    0    0 -0.47198041607E+01 -0.20799134072E+02 -0.95731982139E+01  0.23377909525E+02  0.51100000000E-03 0.  1.
        -12    1    3    3    0    0  0.19189567968E+01  0.65505677257E+01 -0.10549402478E+02  0.12565119393E+02  0.00000000000E+00 0.  1.
</event>
<event>
 7    1  0.1826069E-013  0.7246158E+02  0.7816164E-02  0.1226708E+00
        -11   -1    0    0    0    0  0.00000000000E+00  0.00000000000E+00  0.45593999997E+02  0.45594000000E+02  0.51100000000E-03 0.  1.
         11   -1    0    0    0    0 -0.00000000000E+00 -0.00000000000E+00 -0.45593999997E+02  0.45594000000E+02  0.51100000000E-03 0. -1.
    9900012    2    1    2    0    0 -0.52306080146E+01  0.10596174887E+02 -0.14527236354E+02  0.72461580734E+02  0.70000013599E+02 0.  0.
        -12    1    1    2    0    0  0.52306080146E+01 -0.10596174887E+02  0.14527236354E+02  0.18726419266E+02  0.00000000000E+00 0.  1.
         11    1    3    3    0    0  0.14146529270E+02 -0.97656308985E+01  0.11340515932E+02  0.20593667451E+02  0.51100000000E-03 0. -1.
        -11    1    3    3    0    0 -0.10138339858E+02  0.28722536863E+02 -0.10804055640E+02  0.32318689291E+02  0.51100000000E-03 0.  1.
         12    1    3    3    0    0 -0.92387974265E+01 -0.83607310776E+01 -0.15063696646E+02  0.19549223992E+02  0.00000000000E+00 0. -1.
</event>
<event>
 7    1  0.1826069E-013  0.7246154E+02  0.7816164E-02  0.1226708E+00
        -11   -1    0    0    0    0  0.00000000000E+00  0.00000000000E+00  0.45593999997E+02  0.45594000000E+02  0.51100000000E-03 0.  1.
         11   -1    0    0    0    0 -0.00000000000E+00 -0.00000000000E+00 -0.45593999997E+02  0.45594000000E+02  0.51100000000E-03 0. -1.
    9900012    2    1    2    0    0 -0.18261839259E+02  0.51836807778E+00 -0.41130084103E+01  0.72461539662E+02  0.69999960096E+02 0.  0.
        -12    1    1    2    0    0  0.18261839259E+02 -0.51836807778E+00  0.41130084103E+01  0.18726460338E+02  0.00000000000E+00 0.  1.
         11    1    3    3    0    0 -0.11538666659E+02 -0.26647242745E+02 -0.58183947893E+01  0.29615369192E+02  0.51100000000E-03 0. -1.
        -11    1    3    3    0    0  0.42590012194E+01  0.46095058443E+01  0.13677323946E+02  0.15048449292E+02  0.51100000000E-03 0.  1.
         12    1    3    3    0    0 -0.10982173820E+02  0.22556104978E+02 -0.11971937567E+02  0.27797721178E+02  0.00000000000E+00 0. -1.
</event>
<event>
 7    1  0.1826069E-013  0.7246157E+02  0.7816164E-02  0.1226708E+00
        -11   -1    0    0    0    0  0.00000000000E+00  0.00000000000E+00  0.45593999997E+02  0.45594000000E+02  0.51100000000E-03 0.  1.
         11   -1    0    0    0    0 -0.00000000000E+00 -0.00000000000E+00 -0.45593999997E+02  0.45594000000E+02  0.51100000000E-03 0. -1.
    9900012    2    1    2    0    0 -0.91863625522E+01  0.13475333495E+02 -0.92035492485E+01  0.72461569787E+02  0.69999999339E+02 0.  0.
        -12    1    1    2    0    0  0.91863625522E+01 -0.13475333495E+02  0.92035492485E+01  0.18726430213E+02  0.00000000000E+00 0.  1.
         11    1    3    3    0    0  0.19619883872E+01  0.71003995486E+01 -0.69879315041E+01  0.10153632805E+02  0.51100000000E-03 0. -1.
        -11    1    3    3    0    0 -0.36053441334E+02 -0.14675285440E+01  0.21934948001E+00  0.36083963010E+02  0.51100000000E-03 0.  1.
        -12    1    3    3    0    0  0.24905090395E+02  0.78424624904E+01 -0.24349672244E+01  0.26223973972E+02  0.00000000000E+00 0.  1.
</event>
<event>
 7    1  0.1826069E-013  0.7246152E+02  0.7816164E-02  0.1226708E+00
        -11   -1    0    0    0    0  0.00000000000E+00  0.00000000000E+00  0.45593999997E+02  0.45594000000E+02  0.51100000000E-03 0.  1.
         11   -1    0    0    0    0 -0.00000000000E+00 -0.00000000000E+00 -0.45593999997E+02  0.45594000000E+02  0.51100000000E-03 0. -1.
    9900012    2    1    2    0    0 -0.16819689331E+01  0.14313488898E+02 -0.11957262900E+02  0.72461518217E+02  0.69999932159E+02 0.  0.
        -12    1    1    2    0    0  0.16819689331E+01 -0.14313488898E+02  0.11957262900E+02  0.18726481783E+02  0.00000000000E+00 0.  1.
         11    1    3    3    0    0 -0.16818914366E+02 -0.60586469999E+01 -0.29791016131E+02  0.34743168052E+02  0.51100000000E-03 0. -1.
        -11    1    3    3    0    0  0.90990071419E+01 -0.22911011339E+01  0.25469931172E+01  0.97225639404E+01  0.51100000000E-03 0.  1.
         12    1    3    3    0    0  0.60379382908E+01  0.22663237032E+02  0.15286760114E+02  0.27995786225E+02  0.00000000000E+00 0. -1.
</event>
<event>
 7    1  0.1826069E-013  0.7246159E+02  0.7816164E-02  0.1226708E+00
        -11   -1    0    0    0    0  0.00000000000E+00  0.00000000000E+00  0.45593999997E+02  0.45594000000E+02  0.51100000000E-03 0. -1.
         11   -1    0    0    0    0 -0.00000000000E+00 -0.00000000000E+00 -0.45593999997E+02  0.45594000000E+02  0.51100000000E-03 0.  1.
    9900012    2    1    2    0    0 -0.76934582580E+00  0.55861581476E+01  0.17857248253E+02  0.72461591615E+02  0.70000027774E+02 0.  0.
        -12    1    1    2    0    0  0.76934582580E+00 -0.55861581476E+01 -0.17857248253E+02  0.18726408385E+02  0.00000000000E+00 0.  1.
         11    1    3    3    0    0  0.83949339327E+01  0.31690940331E+02  0.11091947777E+02  0.34609564004E+02  0.51100000000E-03 0. -1.
        -11    1    3    3    0    0  0.77267134942E+01 -0.15404308335E+02  0.26170966040E+01  0.17431121926E+02  0.51100000000E-03 0.  1.
         12    1    3    3    0    0 -0.16890993253E+02 -0.10700473848E+02  0.41482038721E+01  0.20420905685E+02  0.00000000000E+00 0. -1.
</event>
<event>
 7    1  0.1826069E-013  0.7246155E+02  0.7816164E-02  0.1226708E+00
        -11   -1    0    0    0    0  0.00000000000E+00  0.00000000000E+00  0.45593999997E+02  0.45594000000E+02  0.51100000000E-03 0.  1.
         11   -1    0    0    0    0 -0.00000000000E+00 -0.00000000000E+00 -0.45593999997E+02  0.45594000000E+02  0.51100000000E-03 0. -1.
    9900012    2    1    2    0    0  0.17288172397E+02 -0.71083036272E+01 -0.11274273557E+01  0.72461548715E+02  0.69999971889E+02 0.  0.
        -12    1    1    2    0    0 -0.17288172397E+02  0.71083036272E+01  0.11274273557E+01  0.18726451285E+02  0.00000000000E+00 0.  1.
         11    1    3    3    0    0  0.24366470747E+02 -0.32540861331E+02 -0.38894726197E+01  0.40838224133E+02  0.51100000000E-03 0. -1.
        -11    1    3    3    0    0 -0.27468640606E+01  0.26123386469E+02  0.49372755780E+01  0.26727388073E+02  0.51100000000E-03 0.  1.
         12    1    3    3    0    0 -0.43314342894E+01 -0.69082876609E+00 -0.21752303141E+01  0.48959365096E+01  0.00000000000E+00 0. -1.
</event>
<event>
 7    1  0.1826069E-013  0.7246166E+02  0.7816164E-02  0.1226708E+00
        -11   -1    0    0    0    0  0.00000000000E+00  0.00000000000E+00  0.45593999997E+02  0.45594000000E+02  0.51100000000E-03 0.  1.
         11   -1    0    0    0    0 -0.00000000000E+00 -0.00000000000E+00 -0.45593999997E+02  0.45594000000E+02  0.51100000000E-03 0. -1.
    9900012    2    1    2    0    0 -0.87035339670E+01 -0.66907515284E+01 -0.15170969070E+02  0.72461655935E+02  0.70000111562E+02 0.  0.
        -12    1    1    2    0    0  0.87035339670E+01  0.66907515284E+01  0.15170969070E+02  0.18726344065E+02  0.00000000000E+00 0.  1.
         11    1    3    3    0    0 -0.10990249270E+02 -0.17134670686E+02 -0.51523180828E+01  0.20998307084E+02  0.51100000000E-03 0. -1.
        -11    1    3    3    0    0 -0.13648715946E+01  0.83026107713E+01  0.19712096132E+02  0.21432754239E+02  0.51100000000E-03 0.  1.
        -12    1    3    3    0    0  0.36515868973E+01  0.21413083861E+01 -0.29730747119E+02  0.30030594612E+02  0.00000000000E+00 0.  1.
</event>
<event>
 7    1  0.1826069E-013  0.7246162E+02  0.7816164E-02  0.1226708E+00
        -11   -1    0    0    0    0  0.00000000000E+00  0.00000000000E+00  0.45593999997E+02  0.45594000000E+02  0.51100000000E-03 0.  1.
         11   -1    0    0    0    0 -0.00000000000E+00 -0.00000000000E+00 -0.45593999997E+02  0.45594000000E+02  0.51100000000E-03 0. -1.
    9900012    2    1    2    0    0  0.14306827540E+01 -0.18651123321E+02 -0.87527260396E+00  0.72461618705E+02  0.70000063064E+02 0.  0.
        -12    1    1    2    0    0 -0.14306827540E+01  0.18651123321E+02  0.87527260396E+00  0.18726381295E+02  0.00000000000E+00 0.  1.
         11    1    3    3    0    0 -0.18707503190E+02  0.12352988348E+02 -0.16922704124E+02  0.28088163198E+02  0.51100000000E-03 0.  1.
        -11    1    3    3    0    0  0.95094351887E+01 -0.28195550492E+02  0.81960849827E+01  0.30864125363E+02  0.51100000000E-03 0. -1.
        -12    1    3    3    0    0  0.10628750755E+02 -0.28085611766E+01  0.78513465371E+01  0.13509330144E+02  0.00000000000E+00 0.  1.
</event>
<event>
 7    1  0.1826069E-013  0.7246155E+02  0.7816164E-02  0.1226708E+00
        -11   -1    0    0    0    0  0.00000000000E+00  0.00000000000E+00  0.45593999997E+02  0.45594000000E+02  0.51100000000E-03 0.  1.
         11   -1    0    0    0    0 -0.00000000000E+00 -0.00000000000E+00 -0.45593999997E+02  0.45594000000E+02  0.51100000000E-03 0. -1.
    9900012    2    1    2    0    0 -0.18152322389E+02 -0.32248661067E+01 -0.32822858993E+01  0.72461548915E+02  0.69999972150E+02 0.  0.
        -12    1    1    2    0    0  0.18152322389E+02  0.32248661067E+01  0.32822858993E+01  0.18726451085E+02  0.00000000000E+00 0.  1.
         11    1    3    3    0    0 -0.20834114915E+00  0.17366794047E+02 -0.16799035955E+02  0.24163123779E+02  0.51100000000E-03 0. -1.
        -11    1    3    3    0    0 -0.79815945036E+01 -0.28849869543E+02  0.49094773744E+00  0.29937632729E+02  0.51100000000E-03 0.  1.
        -12    1    3    3    0    0 -0.99623867358E+01  0.82582093894E+01  0.13025802318E+02  0.18360792407E+02  0.00000000000E+00 0.  1.
</event>
<event>
 7    1  0.1826069E-013  0.7246156E+02  0.7816164E-02  0.1226708E+00
        -11   -1    0    0    0    0  0.00000000000E+00  0.00000000000E+00  0.45593999997E+02  0.45594000000E+02  0.51100000000E-03 0.  1.
         11   -1    0    0    0    0 -0.00000000000E+00 -0.00000000000E+00 -0.45593999997E+02  0.45594000000E+02  0.51100000000E-03 0. -1.
    9900012    2    1    2    0    0  0.90906728706E+01  0.10108353324E+02  0.12878674401E+02  0.72461564288E+02  0.69999992175E+02 0.  0.
        -12    1    1    2    0    0 -0.90906728706E+01 -0.10108353324E+02 -0.12878674401E+02  0.18726435712E+02  0.00000000000E+00 0.  1.
         11    1    3    3    0    0 -0.52981780208E+01  0.18317841983E+02  0.36739144776E+01  0.19419363355E+02  0.51100000000E-03 0. -1.
        -11    1    3    3    0    0  0.22727693633E+02 -0.40412503198E+00  0.24845384144E+02  0.33674983124E+02  0.51100000000E-03 0.  1.
        -12    1    3    3    0    0 -0.83388427415E+01 -0.78053636275E+01 -0.15640624221E+02  0.19367217808E+02  0.00000000000E+00 0.  1.
</event>
<event>
 7    1  0.1826069E-013  0.7246157E+02  0.7816164E-02  0.1226708E+00
        -11   -1    0    0    0    0  0.00000000000E+00  0.00000000000E+00  0.45593999997E+02  0.45594000000E+02  0.51100000000E-03 0.  1.
         11   -1    0    0    0    0 -0.00000000000E+00 -0.00000000000E+00 -0.45593999997E+02  0.45594000000E+02  0.51100000000E-03 0. -1.
    9900012    2    1    2    0    0 -0.83314075128E+01 -0.16572216285E+02  0.25745653435E+01  0.72461572405E+02  0.70000002750E+02 0.  0.
        -12    1    1    2    0    0  0.83314075128E+01  0.16572216285E+02 -0.25745653435E+01  0.18726427595E+02  0.00000000000E+00 0.  1.
         11    1    3    3    0    0 -0.80745776462E+01 -0.93802104063E+01 -0.23595472596E+02  0.26644576910E+02  0.51100000000E-03 0. -1.
        -11    1    3    3    0    0  0.51781941232E+01 -0.74311194323E+01  0.34610048198E+02  0.35775559631E+02  0.51100000000E-03 0.  1.
        -12    1    3    3    0    0 -0.54350239898E+01  0.23911355346E+00 -0.84400102586E+01  0.10041435865E+02  0.00000000000E+00 0.  1.
</event>
<event>
 7    1  0.1826069E-013  0.7246159E+02  0.7816164E-02  0.1226708E+00
        -11   -1    0    0    0    0  0.00000000000E+00  0.00000000000E+00  0.45593999997E+02  0.45594000000E+02  0.51100000000E-03 0. -1.
         11   -1    0    0    0    0 -0.00000000000E+00 -0.00000000000E+00 -0.45593999997E+02  0.45594000000E+02  0.51100000000E-03 0.  1.
    9900012    2    1    2    0    0  0.70983935806E+01  0.13605871853E+01  0.17275411958E+02  0.72461594919E+02  0.70000032079E+02 0.  0.
        -12    1    1    2    0    0 -0.70983935806E+01 -0.13605871853E+01 -0.17275411958E+02  0.18726405081E+02  0.00000000000E+00 0.  1.
         11    1    3    3    0    0  0.32064071743E+02 -0.10492657004E+02  0.12212752166E+02  0.35879685944E+02  0.51100000000E-03 0.  1.
        -11    1    3    3    0    0 -0.24921741364E+02  0.70014689094E+01  0.11660930080E+02  0.28391742640E+02  0.51100000000E-03 0. -1.
        -12    1    3    3    0    0 -0.43936797750E-01  0.48517752804E+01 -0.65982702875E+01  0.81901663353E+01  0.00000000000E+00 0.  1.
</event>
<event>
 7    1  0.1826069E-013  0.7246110E+02  0.7816164E-02  0.1226709E+00
        -11   -1    0    0    0    0  0.00000000000E+00  0.00000000000E+00  0.45593999997E+02  0.45594000000E+02  0.51100000000E-03 0. -1.
         11   -1    0    0    0    0 -0.00000000000E+00 -0.00000000000E+00 -0.45593999997E+02  0.45594000000E+02  0.51100000000E-03 0.  1.
    9900012    2    1    2    0    0  0.83816170031E-01  0.18414740575E+02  0.34039884368E+01  0.72461098685E+02  0.69999385638E+02 0.  0.
        -12    1    1    2    0    0 -0.83816170031E-01 -0.18414740575E+02 -0.34039884368E+01  0.18726901315E+02  0.00000000000E+00 0.  1.
         11    1    3    3    0    0 -0.74962868824E+01 -0.11676172455E+02  0.27361940343E+02  0.30679033554E+02  0.51100000000E-03 0. -1.
        -11    1    3    3    0    0  0.97057263554E+01  0.15228033375E+02 -0.76399098706E+01  0.19607711434E+02  0.51100000000E-03 0.  1.
         12    1    3    3    0    0 -0.21256233030E+01  0.14862879654E+02 -0.16318042035E+02  0.22174353698E+02  0.00000000000E+00 0. -1.
</event>
<event>
 7    1  0.1826069E-013  0.7246165E+02  0.7816164E-02  0.1226708E+00
        -11   -1    0    0    0    0  0.00000000000E+00  0.00000000000E+00  0.45593999997E+02  0.45594000000E+02  0.51100000000E-03 0. -1.
         11   -1    0    0    0    0 -0.00000000000E+00 -0.00000000000E+00 -0.45593999997E+02  0.45594000000E+02  0.51100000000E-03 0.  1.
    9900012    2    1    2    0    0  0.11485397999E+02 -0.14614204445E+02  0.22774714380E+01  0.72461649183E+02  0.70000102767E+02 0.  0.
        -12    1    1    2    0    0 -0.11485397999E+02  0.14614204445E+02 -0.22774714380E+01  0.18726350817E+02  0.00000000000E+00 0.  1.
         11    1    3    3    0    0  0.44026986253E+01 -0.20420442574E+02  0.18416502744E+02  0.27848623013E+02  0.51100000000E-03 0. -1.
        -11    1    3    3    0    0  0.54800581234E+01  0.62484264888E+01 -0.29756033521E+02  0.30894908995E+02  0.51100000000E-03 0.  1.
        -12    1    3    3    0    0  0.16026412502E+01 -0.44218835959E+00  0.13617002215E+02  0.13718117176E+02  0.00000000000E+00 0.  1.
</event>
<event>
 7    1  0.1826069E-013  0.7246190E+02  0.7816164E-02  0.1226707E+00
        -11   -1    0    0    0    0  0.00000000000E+00  0.00000000000E+00  0.45593999997E+02  0.45594000000E+02  0.51100000000E-03 0.  1.
         11   -1    0    0    0    0 -0.00000000000E+00 -0.00000000000E+00 -0.45593999997E+02  0.45594000000E+02  0.51100000000E-03 0. -1.
    9900012    2    1    2    0    0 -0.14651859424E+02 -0.10654925450E+02  0.47394400763E+01  0.72461902885E+02  0.70000433260E+02 0.  0.
        -12    1    1    2    0    0  0.14651859424E+02  0.10654925450E+02 -0.47394400763E+01  0.18726097115E+02  0.00000000000E+00 0.  1.
         11    1    3    3    0    0  0.23884725820E+02 -0.31409096592E+01  0.64723901432E+00  0.24099053085E+02  0.51100000000E-03 0.  1.
        -11    1    3    3    0    0 -0.25886418217E+02 -0.97142890742E+01 -0.99037185185E+01  0.29369332663E+02  0.51100000000E-03 0. -1.
        -12    1    3    3    0    0 -0.12650167027E+02  0.22002732832E+01  0.13995919580E+02  0.18993517137E+02  0.00000000000E+00 0.  1.
</event>
<event>
 7    1  0.1826069E-013  0.7246159E+02  0.7816164E-02  0.1226708E+00
        -11   -1    0    0    0    0  0.00000000000E+00  0.00000000000E+00  0.45593999997E+02  0.45594000000E+02  0.51100000000E-03 0.  1.
         11   -1    0    0    0    0 -0.00000000000E+00 -0.00000000000E+00 -0.45593999997E+02  0.45594000000E+02  0.51100000000E-03 0. -1.
    9900012    2    1    2    0    0 -0.15163825078E+02  0.23850942202E+01 -0.10726054199E+02  0.72461588061E+02  0.70000023145E+02 0.  0.
        -12    1    1    2    0    0  0.15163825078E+02 -0.23850942202E+01  0.10726054199E+02  0.18726411939E+02  0.00000000000E+00 0.  1.
         11    1    3    3    0    0  0.48361294463E+01  0.30255561276E+02 -0.38749397849E+01  0.30883689785E+02  0.51100000000E-03 0. -1.
        -11    1    3    3    0    0 -0.14601811099E+02 -0.38531480362E+01  0.23789428546E+01  0.15287871222E+02  0.51100000000E-03 0.  1.
         12    1    3    3    0    0 -0.53981434253E+01 -0.24017319020E+02 -0.92300572682E+01  0.26290027054E+02  0.00000000000E+00 0. -1.
</event>
<event>
 7    1  0.1826069E-013  0.7246155E+02  0.7816164E-02  0.1226708E+00
        -11   -1    0    0    0    0  0.00000000000E+00  0.00000000000E+00  0.45593999997E+02  0.45594000000E+02  0.51100000000E-03 0. -1.
         11   -1    0    0    0    0 -0.00000000000E+00 -0.00000000000E+00 -0.45593999997E+02  0.45594000000E+02  0.51100000000E-03 0.  1.
    9900012    2    1    2    0    0  0.18491692689E+02  0.87364179433E+00 -0.28237942330E+01  0.72461554465E+02  0.69999979380E+02 0.  0.
        -12    1    1    2    0    0 -0.18491692689E+02 -0.87364179433E+00  0.28237942330E+01  0.18726445535E+02  0.00000000000E+00 0.  1.
         11    1    3    3    0    0  0.24180053542E+02  0.60896326111E+01  0.25230875118E+02  0.35473309320E+02  0.51100000000E-03 0. -1.
        -11    1    3    3    0    0 -0.64098458245E+01 -0.12668660087E+02 -0.97833079160E+01  0.17242221026E+02  0.51100000000E-03 0.  1.
        -12    1    3    3    0    0  0.72148497112E+00  0.74526692698E+01 -0.18271361435E+02  0.19746024119E+02  0.00000000000E+00 0.  1.
</event>
<event>
 7    1  0.1826069E-013  0.7246162E+02  0.7816164E-02  0.1226708E+00
        -11   -1    0    0    0    0  0.00000000000E+00  0.00000000000E+00  0.45593999997E+02  0.45594000000E+02  0.51100000000E-03 0.  1.
         11   -1    0    0    0    0 -0.00000000000E+00 -0.00000000000E+00 -0.45593999997E+02  0.45594000000E+02  0.51100000000E-03 0. -1.
    9900012    2    1    2    0    0  0.16234047074E+02  0.93334656963E+01 -0.13932655065E+00  0.72461620793E+02  0.70000065784E+02 0.  0.
        -12    1    1    2    0    0 -0.16234047074E+02 -0.93334656963E+01  0.13932655065E+00  0.18726379207E+02  0.00000000000E+00 0.  1.
         11    1    3    3    0    0  0.24979497284E+02 -0.15751366225E+02 -0.48253139544E+01  0.29922641553E+02  0.51100000000E-03 0. -1.
        -11    1    3    3    0    0 -0.82643771494E+01  0.16514960140E+02  0.18586996421E+02  0.26201531908E+02  0.51100000000E-03 0.  1.
        -12    1    3    3    0    0 -0.48107306003E+00  0.85698717809E+01 -0.13901009017E+02  0.16337447332E+02  0.00000000000E+00 0.  1.
</event>
<event>
 7    1  0.1826069E-013  0.7246144E+02  0.7816164E-02  0.1226708E+00
        -11   -1    0    0    0    0  0.00000000000E+00  0.00000000000E+00  0.45593999997E+02  0.45594000000E+02  0.51100000000E-03 0.  1.
         11   -1    0    0    0    0 -0.00000000000E+00 -0.00000000000E+00 -0.45593999997E+02  0.45594000000E+02  0.51100000000E-03 0. -1.
    9900012    2    1    2    0    0 -0.12548911567E+02  0.11840345081E+02 -0.72811410991E+01  0.72461442152E+02  0.69999833070E+02 0.  0.
        -12    1    1    2    0    0  0.12548911567E+02 -0.11840345081E+02  0.72811410991E+01  0.18726557848E+02  0.00000000000E+00 0.  1.
         11    1    3    3    0    0 -0.18235675288E+02  0.32665973832E+01 -0.16024379826E+02  0.24494719037E+02  0.51100000000E-03 0. -1.
        -11    1    3    3    0    0  0.16656179942E+02  0.55639251634E+01  0.23498865926E+02  0.29335682940E+02  0.51100000000E-03 0.  1.
        -12    1    3    3    0    0 -0.10969416221E+02  0.30098225340E+01 -0.14755627200E+02  0.18631040174E+02  0.00000000000E+00 0.  1.
</event>
<event>
 7    1  0.1826069E-013  0.7246148E+02  0.7816164E-02  0.1226708E+00
        -11   -1    0    0    0    0  0.00000000000E+00  0.00000000000E+00  0.45593999997E+02  0.45594000000E+02  0.51100000000E-03 0. -1.
         11   -1    0    0    0    0 -0.00000000000E+00 -0.00000000000E+00 -0.45593999997E+02  0.45594000000E+02  0.51100000000E-03 0.  1.
    9900012    2    1    2    0    0  0.17829358584E+02  0.85238479594E+00  0.56630267364E+01  0.72461482460E+02  0.69999885580E+02 0.  0.
        -12    1    1    2    0    0 -0.17829358584E+02 -0.85238479594E+00 -0.56630267364E+01  0.18726517540E+02  0.00000000000E+00 0.  1.
         11    1    3    3    0    0 -0.83552703657E+00 -0.22857847829E+02 -0.11146482864E+02  0.25444515977E+02  0.51100000000E-03 0. -1.
        -11    1    3    3    0    0  0.21650721949E+02  0.20182428606E+01  0.57810821295E+01  0.22499955022E+02  0.51100000000E-03 0.  1.
         12    1    3    3    0    0 -0.29858363288E+01  0.21691989764E+02  0.11028427470E+02  0.24517011461E+02  0.00000000000E+00 0. -1.
</event>
<event>
 7    1  0.1826069E-013  0.7246133E+02  0.7816164E-02  0.1226709E+00
        -11   -1    0    0    0    0  0.00000000000E+00  0.00000000000E+00  0.45593999997E+02  0.45594000000E+02  0.51100000000E-03 0. -1.
         11   -1    0    0    0    0 -0.00000000000E+00 -0.00000000000E+00 -0.45593999997E+02  0.45594000000E+02  0.51100000000E-03 0.  1.
    9900012    2    1    2    0    0  0.17724469794E+02  0.47748592725E+01 -0.37056727928E+01  0.72461331279E+02  0.69999688637E+02 0.  0.
        -12    1    1    2    0    0 -0.17724469794E+02 -0.47748592725E+01  0.37056727928E+01  0.18726668721E+02  0.00000000000E+00 0.  1.
         11    1    3    3    0    0  0.14384298994E+01  0.21781613724E+02  0.56467685092E+01  0.22547589047E+02  0.51100000000E-03 0. -1.
        -11    1    3    3    0    0 -0.70503909451E+01 -0.22072768312E+02  0.24056338905E+01  0.23295969354E+02  0.51100000000E-03 0.  1.
         12    1    3    3    0    0  0.23336430839E+02  0.50660138614E+01 -0.11758075192E+02  0.26617772878E+02  0.00000000000E+00 0. -1.
</event>
<event>
 7    1  0.1826069E-013  0.7246153E+02  0.7816164E-02  0.1226708E+00
        -11   -1    0    0    0    0  0.00000000000E+00  0.00000000000E+00  0.45593999997E+02  0.45594000000E+02  0.51100000000E-03 0.  1.
         11   -1    0    0    0    0 -0.00000000000E+00 -0.00000000000E+00 -0.45593999997E+02  0.45594000000E+02  0.51100000000E-03 0. -1.
    9900012    2    1    2    0    0  0.18300992766E+02  0.37584369179E+01 -0.12761841613E+01  0.72461525951E+02  0.69999942235E+02 0.  0.
        -12    1    1    2    0    0 -0.18300992766E+02 -0.37584369179E+01  0.12761841613E+01  0.18726474049E+02  0.00000000000E+00 0.  1.
         11    1    3    3    0    0 -0.14363741699E+02 -0.11257492070E+01 -0.42916607452E+01  0.15033387479E+02  0.51100000000E-03 0. -1.
        -11    1    3    3    0    0  0.20276925252E+02  0.29618223456E+01  0.24875212959E+02  0.32228904873E+02  0.51100000000E-03 0.  1.
         12    1    3    3    0    0  0.12387809214E+02  0.19223637793E+01 -0.21859736375E+02  0.25199233600E+02  0.00000000000E+00 0. -1.
</event>
<event>
 7    1  0.1826069E-013  0.7246147E+02  0.7816164E-02  0.1226708E+00
        -11   -1    0    0    0    0  0.00000000000E+00  0.00000000000E+00  0.45593999997E+02  0.45594000000E+02  0.51100000000E-03 0. -1.
         11   -1    0    0    0    0 -0.00000000000E+00 -0.00000000000E+00 -0.45593999997E+02  0.45594000000E+02  0.51100000000E-03 0.  1.
    9900012    2    1    2    0    0  0.61493331400E+01  0.11554590843E+01  0.17650308130E+02  0.72461474405E+02  0.69999875086E+02 0.  0.
        -12    1    1    2    0    0 -0.61493331400E+01 -0.11554590843E+01 -0.17650308130E+02  0.18726525595E+02  0.00000000000E+00 0.  1.
         11    1    3    3    0    0  0.99796974751E+00  0.28503954751E+02 -0.97076010593E+01  0.30128207691E+02  0.51100000000E-03 0. -1.
        -11    1    3    3    0    0  0.47077925062E+01 -0.63883941718E+00  0.11022453350E+01  0.48771273432E+01  0.51100000000E-03 0.  1.
         12    1    3    3    0    0  0.44357088624E+00 -0.26709656250E+02  0.26255663855E+02  0.37456139371E+02  0.00000000000E+00 0. -1.
</event>
<event>
 7    1  0.1826069E-013  0.7246160E+02  0.7816164E-02  0.1226708E+00
        -11   -1    0    0    0    0  0.00000000000E+00  0.00000000000E+00  0.45593999997E+02  0.45594000000E+02  0.51100000000E-03 0. -1.
         11   -1    0    0    0    0 -0.00000000000E+00 -0.00000000000E+00 -0.45593999997E+02  0.45594000000E+02  0.51100000000E-03 0.  1.
    9900012    2    1    2    0    0  0.11649787052E+02 -0.86680591805E+01  0.11824779727E+02  0.72461596077E+02  0.70000033587E+02 0.  0.
        -12    1    1    2    0    0 -0.11649787052E+02  0.86680591805E+01 -0.11824779727E+02  0.18726403923E+02  0.00000000000E+00 0.  1.
         11    1    3    3    0    0  0.92600660711E+01 -0.24825398168E+02  0.25773480321E+01  0.26621268583E+02  0.51100000000E-03 0. -1.
        -11    1    3    3    0    0 -0.26498802314E+01  0.19688522449E+02  0.23228434319E+02  0.30565011739E+02  0.51100000000E-03 0.  1.
        -12    1    3    3    0    0  0.50396012122E+01 -0.35311834614E+01 -0.13981002624E+02  0.15275315754E+02  0.00000000000E+00 0.  1.
</event>
<event>
 7    1  0.1826069E-013  0.7246158E+02  0.7816164E-02  0.1226708E+00
        -11   -1    0    0    0    0  0.00000000000E+00  0.00000000000E+00  0.45593999997E+02  0.45594000000E+02  0.51100000000E-03 0.  1.
         11   -1    0    0    0    0 -0.00000000000E+00 -0.00000000000E+00 -0.45593999997E+02  0.45594000000E+02  0.51100000000E-03 0. -1.
    9900012    2    1    2    0    0 -0.15155594203E+02  0.10064302015E+02 -0.44381007230E+01  0.72461576189E+02  0.70000007679E+02 0.  0.
        -12    1    1    2    0    0  0.15155594203E+02 -0.10064302015E+02  0.44381007230E+01  0.18726423811E+02  0.00000000000E+00 0.  1.
         11    1    3    3    0    0 -0.83593683065E+00 -0.54574708319E+01 -0.71835802539E+01  0.90601657706E+01  0.51100000000E-03 0. -1.
        -11    1    3    3    0    0 -0.10024931405E+02 -0.10558907825E+02  0.24945358604E+02  0.28883571460E+02  0.51100000000E-03 0.  1.
        -12    1    3    3    0    0 -0.42947259671E+01  0.26080680673E+02 -0.22199879074E+02  0.34517838958E+02  0.00000000000E+00 0.  1.
</event>
<event>
 7    1  0.1826069E-013  0.7246157E+02  0.7816164E-02  0.1226708E+00
        -11   -1    0    0    0    0  0.00000000000E+00  0.00000000000E+00  0.45593999997E+02  0.45594000000E+02  0.51100000000E-03 0.  1.
         11   -1    0    0    0    0 -0.00000000000E+00 -0.00000000000E+00 -0.45593999997E+02  0.45594000000E+02  0.51100000000E-03 0. -1.
    9900012    2    1    2    0    0  0.14563402241E+02 -0.60555009074E+01  0.10095421259E+02  0.72461566638E+02  0.69999995237E+02 0.  0.
        -12    1    1    2    0    0 -0.14563402241E+02  0.60555009074E+01 -0.10095421259E+02  0.18726433362E+02  0.00000000000E+00 0.  1.
         11    1    3    3    0    0  0.52804259993E+01  0.20877891928E+02  0.73920197702E+01  0.22768645691E+02  0.51100000000E-03 0. -1.
        -11    1    3    3    0    0  0.32766615195E+01 -0.34391751320E+02 -0.78648419380E+01  0.35431409914E+02  0.51100000000E-03 0.  1.
         12    1    3    3    0    0  0.60063147218E+01  0.74583584847E+01  0.10568243426E+02  0.14261511033E+02  0.00000000000E+00 0. -1.
</event>
<event>
 7    1  0.1826069E-013  0.7246159E+02  0.7816164E-02  0.1226708E+00
        -11   -1    0    0    0    0  0.00000000000E+00  0.00000000000E+00  0.45593999997E+02  0.45594000000E+02  0.51100000000E-03 0. -1.
         11   -1    0    0    0    0 -0.00000000000E+00 -0.00000000000E+00 -0.45593999997E+02  0.45594000000E+02  0.51100000000E-03 0.  1.
    9900012    2    1    2    0    0 -0.77854075898E+01  0.16427776222E+02  0.44937649790E+01  0.72461592800E+02  0.70000029317E+02 0.  0.
        -12    1    1    2    0    0  0.77854075898E+01 -0.16427776222E+02 -0.44937649790E+01  0.18726407200E+02  0.00000000000E+00 0.  1.
         11    1    3    3    0    0  0.87242065043E+00  0.34086521595E+02  0.89629824298E+01  0.35256022557E+02  0.51100000000E-03 0.  1.
        -11    1    3    3    0    0 -0.15274144226E+02 -0.18956306876E+02  0.57015319975E+01  0.25002970215E+02  0.51100000000E-03 0. -1.
         12    1    3    3    0    0  0.66163159859E+01  0.12975615025E+01 -0.10170749448E+02  0.12202600027E+02  0.00000000000E+00 0. -1.
</event>
<event>
 7    1  0.1826069E-013  0.7246158E+02  0.7816164E-02  0.1226708E+00
        -11   -1    0    0    0    0  0.00000000000E+00  0.00000000000E+00  0.45593999997E+02  0.45594000000E+02  0.51100000000E-03 0.  1.
         11   -1    0    0    0    0 -0.00000000000E+00 -0.00000000000E+00 -0.45593999997E+02  0.45594000000E+02  0.51100000000E-03 0. -1.
    9900012    2    1    2    0    0  0.15454496884E+02  0.22931943865E+01 -0.10323689945E+02  0.72461580467E+02  0.70000013252E+02 0.  0.
        -12    1    1    2    0    0 -0.15454496884E+02 -0.22931943865E+01  0.10323689945E+02  0.18726419533E+02  0.00000000000E+00 0.  1.
         11    1    3    3    0    0  0.29172729779E+02 -0.26593400004E+02 -0.51691269950E+01  0.39811769123E+02  0.51100000000E-03 0. -1.
        -11    1    3    3    0    0 -0.25210187752E+01  0.46018131141E+01  0.64399583689E+00  0.52864875391E+01  0.51100000000E-03 0.  1.
         12    1    3    3    0    0 -0.11197214119E+02  0.24284781277E+02 -0.57985587871E+01  0.27363323806E+02  0.00000000000E+00 0. -1.
</event>
<event>
 7    1  0.1826069E-013  0.7246153E+02  0.7816164E-02  0.1226708E+00
        -11   -1    0    0    0    0  0.00000000000E+00  0.00000000000E+00  0.45593999997E+02  0.45594000000E+02  0.51100000000E-03 0. -1.
         11   -1    0    0    0    0 -0.00000000000E+00 -0.00000000000E+00 -0.45593999997E+02  0.45594000000E+02  0.51100000000E-03 0.  1.
    9900012    2    1    2    0    0 -0.27291947528E-01  0.18724548770E+02 -0.26685410249E+00  0.72461529894E+02  0.69999947372E+02 0.  0.
        -12    1    1    2    0    0  0.27291947528E-01 -0.18724548770E+02  0.26685410249E+00  0.18726470106E+02  0.00000000000E+00 0.  1.
         11    1    3    3    0    0 -0.58838856521E+00  0.34621111341E+02  0.12542105851E+02  0.36827597954E+02  0.51100000000E-03 0. -1.
        -11    1    3    3    0    0 -0.62320915748E+01 -0.10275548444E+02  0.70306812440E+01  0.13923230237E+02  0.51100000000E-03 0.  1.
         12    1    3    3    0    0  0.67931881925E+01 -0.56210141272E+01 -0.19839641197E+02  0.21710701704E+02  0.00000000000E+00 0. -1.
</event>
<event>
 7    1  0.1826069E-013  0.7246163E+02  0.7816164E-02  0.1226708E+00
        -11   -1    0    0    0    0  0.00000000000E+00  0.00000000000E+00  0.45593999997E+02  0.45594000000E+02  0.51100000000E-03 0. -1.
         11   -1    0    0    0    0 -0.00000000000E+00 -0.00000000000E+00 -0.45593999997E+02  0.45594000000E+02  0.51100000000E-03 0.  1.
    9900012    2    1    2    0    0  0.92602537992E+01 -0.10517517647E+02  0.12422017251E+02  0.72461628476E+02  0.70000075792E+02 0.  0.
        -12    1    1    2    0    0 -0.92602537992E+01  0.10517517647E+02 -0.12422017251E+02  0.18726371524E+02  0.00000000000E+00 0.  1.
         11    1    3    3    0    0 -0.35788657974E+01  0.11322213673E+02  0.11445538175E+02  0.16492457283E+02  0.51100000000E-03 0. -1.
        -11    1    3    3    0    0  0.27551553577E+02 -0.20673589874E+02  0.13117369738E+02  0.36858524277E+02  0.51100000000E-03 0.  1.
        -12    1    3    3    0    0 -0.14712433980E+02 -0.11661414460E+01 -0.12140890662E+02  0.19110646916E+02  0.00000000000E+00 0.  1.
</event>
<event>
 7    1  0.1826069E-013  0.7246157E+02  0.7816164E-02  0.1226708E+00
        -11   -1    0    0    0    0  0.00000000000E+00  0.00000000000E+00  0.45593999997E+02  0.45594000000E+02  0.51100000000E-03 0.  1.
         11   -1    0    0    0    0 -0.00000000000E+00 -0.00000000000E+00 -0.45593999997E+02  0.45594000000E+02  0.51100000000E-03 0. -1.
    9900012    2    1    2    0    0 -0.12975746176E+02  0.79196834718E+01 -0.10935623314E+02  0.72461568616E+02  0.69999997814E+02 0.  0.
        -12    1    1    2    0    0  0.12975746176E+02 -0.79196834718E+01  0.10935623314E+02  0.18726431384E+02  0.00000000000E+00 0.  1.
         11    1    3    3    0    0 -0.77238217573E+01  0.17518940179E+02  0.48836996794E+01  0.19759079188E+02  0.51100000000E-03 0.  1.
        -11    1    3    3    0    0  0.13543157709E+02 -0.12511640777E+01 -0.26308626608E+02  0.29616319260E+02  0.51100000000E-03 0. -1.
        -12    1    3    3    0    0 -0.18795082128E+02 -0.83480926293E+01  0.10489303614E+02  0.23086170168E+02  0.00000000000E+00 0.  1.
</event>
<event>
 7    1  0.1826069E-013  0.7246155E+02  0.7816164E-02  0.1226708E+00
        -11   -1    0    0    0    0  0.00000000000E+00  0.00000000000E+00  0.45593999997E+02  0.45594000000E+02  0.51100000000E-03 0.  1.
         11   -1    0    0    0    0 -0.00000000000E+00 -0.00000000000E+00 -0.45593999997E+02  0.45594000000E+02  0.51100000000E-03 0. -1.
    9900012    2    1    2    0    0 -0.12496955878E+02  0.62158483363E+01 -0.12484756229E+02  0.72461553063E+02  0.69999977554E+02 0.  0.
        -12    1    1    2    0    0  0.12496955878E+02 -0.62158483363E+01  0.12484756229E+02  0.18726446937E+02  0.00000000000E+00 0.  1.
         11    1    3    3    0    0  0.18649422312E+02  0.24884236988E+02 -0.10801529707E+02  0.32919587593E+02  0.51100000000E-03 0. -1.
        -11    1    3    3    0    0 -0.16831912924E+02 -0.79100183901E+01  0.67028803906E+01  0.19768922313E+02  0.51100000000E-03 0.  1.
         12    1    3    3    0    0 -0.14314465266E+02 -0.10758370261E+02 -0.83861069130E+01  0.19773043157E+02  0.00000000000E+00 0. -1.
</event>
<event>
 7    1  0.1826069E-013  0.7246158E+02  0.7816164E-02  0.1226708E+00
        -11   -1    0    0    0    0  0.00000000000E+00  0.00000000000E+00  0.45593999997E+02  0.45594000000E+02  0.51100000000E-03 0.  1.
         11   -1    0    0    0    0 -0.00000000000E+00 -0.00000000000E+00 -0.45593999997E+02  0.45594000000E+02  0.51100000000E-03 0. -1.
    9900012    2    1    2    0    0  0.11159324070E+02 -0.82164549948E+01  0.12595162775E+02  0.72461580916E+02  0.70000013837E+02 0.  0.
        -12    1    1    2    0    0 -0.11159324070E+02  0.82164549948E+01 -0.12595162775E+02  0.18726419084E+02  0.00000000000E+00 0.  1.
         11    1    3    3    0    0  0.34398819233E+02  0.12908048238E+02 -0.10788899785E+01  0.36756774584E+02  0.51100000000E-03 0. -1.
        -11    1    3    3    0    0 -0.21895647535E+01 -0.34157162505E+01  0.58249805569E+01  0.70987118594E+01  0.51100000000E-03 0.  1.
         12    1    3    3    0    0 -0.21049930410E+02 -0.17708786983E+02  0.78490721969E+01  0.28606094473E+02  0.00000000000E+00 0. -1.
</event>
<event>
 7    1  0.1826069E-013  0.7246163E+02  0.7816164E-02  0.1226708E+00
        -11   -1    0    0    0    0  0.00000000000E+00  0.00000000000E+00  0.45593999997E+02  0.45594000000E+02  0.51100000000E-03 0.  1.
         11   -1    0    0    0    0 -0.00000000000E+00 -0.00000000000E+00 -0.45593999997E+02  0.45594000000E+02  0.51100000000E-03 0. -1.
    9900012    2    1    2    0    0  0.17063896525E+02 -0.79712950837E+00 -0.76723418102E+01  0.72461633323E+02  0.70000082107E+02 0.  0.
        -12    1    1    2    0    0 -0.17063896525E+02  0.79712950837E+00  0.76723418102E+01  0.18726366677E+02  0.00000000000E+00 0.  1.
         11    1    3    3    0    0  0.27991843640E+02  0.17651206056E+02 -0.26737651078E+02  0.42544216658E+02  0.51100000000E-03 0. -1.
        -11    1    3    3    0    0 -0.37954729728E+00 -0.80953605864E+01  0.50507863400E+01  0.95493121265E+01  0.51100000000E-03 0.  1.
         12    1    3    3    0    0 -0.10548399818E+02 -0.10352974978E+02  0.14014522928E+02  0.20368104539E+02  0.00000000000E+00 0. -1.
</event>
<event>
 7    1  0.1826069E-013  0.7246173E+02  0.7816164E-02  0.1226708E+00
        -11   -1    0    0    0    0  0.00000000000E+00  0.00000000000E+00  0.45593999997E+02  0.45594000000E+02  0.51100000000E-03 0.  1.
         11   -1    0    0    0    0 -0.00000000000E+00 -0.00000000000E+00 -0.45593999997E+02  0.45594000000E+02  0.51100000000E-03 0. -1.
    9900012    2    1    2    0    0 -0.50934788587E+01 -0.64933068845E+01 -0.16809721515E+02  0.72461727050E+02  0.70000204203E+02 0.  0.
        -12    1    1    2    0    0  0.50934788587E+01  0.64933068845E+01  0.16809721515E+02  0.18726272950E+02  0.00000000000E+00 0.  1.
         11    1    3    3    0    0  0.15346406067E+02 -0.71113247918E+01 -0.18223442229E+02  0.24863164851E+02  0.51100000000E-03 0. -1.
        -11    1    3    3    0    0 -0.10890011729E+02  0.17079933171E+02  0.14140721885E+02  0.24703774778E+02  0.51100000000E-03 0.  1.
        -12    1    3    3    0    0 -0.95498731973E+01 -0.16461915264E+02 -0.12727001171E+02  0.22894787421E+02  0.00000000000E+00 0.  1.
</event>
<event>
 7    1  0.1826069E-013  0.7246157E+02  0.7816164E-02  0.1226708E+00
        -11   -1    0    0    0    0  0.00000000000E+00  0.00000000000E+00  0.45593999997E+02  0.45594000000E+02  0.51100000000E-03 0. -1.
         11   -1    0    0    0    0 -0.00000000000E+00 -0.00000000000E+00 -0.45593999997E+02  0.45594000000E+02  0.51100000000E-03 0.  1.
    9900012    2    1    2    0    0  0.64813176828E+01  0.23105096212E+00  0.17567540098E+02  0.72461566048E+02  0.69999994469E+02 0.  0.
        -12    1    1    2    0    0 -0.64813176828E+01 -0.23105096212E+00 -0.17567540098E+02  0.18726433952E+02  0.00000000000E+00 0.  1.
         11    1    3    3    0    0  0.26912950860E+02  0.21101261154E+02 -0.42727141151E+01  0.34464855033E+02  0.51100000000E-03 0.  1.
        -11    1    3    3    0    0 -0.15675204173E+02 -0.14606636357E+02  0.21142414026E+02  0.30100955510E+02  0.51100000000E-03 0. -1.
        -12    1    3    3    0    0 -0.47564290043E+01 -0.62635738357E+01  0.69784018728E+00  0.78957555050E+01  0.00000000000E+00 0.  1.
</event>
<event>
 7    1  0.1826069E-013  0.7246154E+02  0.7816164E-02  0.1226708E+00
        -11   -1    0    0    0    0  0.00000000000E+00  0.00000000000E+00  0.45593999997E+02  0.45594000000E+02  0.51100000000E-03 0. -1.
         11   -1    0    0    0    0 -0.00000000000E+00 -0.00000000000E+00 -0.45593999997E+02  0.45594000000E+02  0.51100000000E-03 0.  1.
    9900012    2    1    2    0    0 -0.10405593657E+02  0.13751523106E+02 -0.73006592370E+01  0.72461537643E+02  0.69999957466E+02 0.  0.
        -12    1    1    2    0    0  0.10405593657E+02 -0.13751523106E+02  0.73006592370E+01  0.18726462357E+02  0.00000000000E+00 0.  1.
         11    1    3    3    0    0  0.25858879985E+02  0.10019210930E+02 -0.24176528233E+01  0.27837228799E+02  0.51100000000E-03 0. -1.
        -11    1    3    3    0    0 -0.19974590609E+01 -0.77033939779E+01  0.10099533974E+01  0.80219777864E+01  0.51100000000E-03 0.  1.
         12    1    3    3    0    0 -0.34267014582E+02  0.11435706154E+02 -0.58929598111E+01  0.36602331058E+02  0.00000000000E+00 0. -1.
</event>
<event>
 7    1  0.1826069E-013  0.7246124E+02  0.7816164E-02  0.1226709E+00
        -11   -1    0    0    0    0  0.00000000000E+00  0.00000000000E+00  0.45593999997E+02  0.45594000000E+02  0.51100000000E-03 0.  1.
         11   -1    0    0    0    0 -0.00000000000E+00 -0.00000000000E+00 -0.45593999997E+02  0.45594000000E+02  0.51100000000E-03 0. -1.
    9900012    2    1    2    0    0  0.13866866123E+00 -0.11494620659E+02  0.14783303242E+02  0.72461238725E+02  0.69999568068E+02 0.  0.
        -12    1    1    2    0    0 -0.13866866123E+00  0.11494620659E+02 -0.14783303242E+02  0.18726761275E+02  0.00000000000E+00 0.  1.
         11    1    3    3    0    0  0.21925112511E+02 -0.22238428314E+02  0.40659786139E+01  0.31492704470E+02  0.51100000000E-03 0. -1.
        -11    1    3    3    0    0 -0.43022031799E+01  0.19146751203E+02  0.86969371291E+01  0.21464942337E+02  0.51100000000E-03 0.  1.
         12    1    3    3    0    0 -0.17484240670E+02 -0.84029435479E+01  0.20203874993E+01  0.19503591918E+02  0.00000000000E+00 0. -1.
</event>
<event>
 7    1  0.1826069E-013  0.7246158E+02  0.7816164E-02  0.1226708E+00
        -11   -1    0    0    0    0  0.00000000000E+00  0.00000000000E+00  0.45593999997E+02  0.45594000000E+02  0.51100000000E-03 0. -1.
         11   -1    0    0    0    0 -0.00000000000E+00 -0.00000000000E+00 -0.45593999997E+02  0.45594000000E+02  0.51100000000E-03 0.  1.
    9900012    2    1    2    0    0  0.15547168520E+02 -0.44214971224E+01  0.94559320892E+01  0.72461581830E+02  0.70000015027E+02 0.  0.
        -12    1    1    2    0    0 -0.15547168520E+02  0.44214971224E+01 -0.94559320892E+01  0.18726418170E+02  0.00000000000E+00 0.  1.
         11    1    3    3    0    0  0.23572329232E+02  0.22528444533E+02  0.21432350389E+02  0.39019625344E+02  0.51100000000E-03 0. -1.
        -11    1    3    3    0    0 -0.99225139725E+01 -0.10101857463E+02 -0.68466660739E+01  0.15728338893E+02  0.51100000000E-03 0.  1.
        -12    1    3    3    0    0  0.18973532610E+01 -0.16848084192E+02 -0.51297522260E+01  0.17713617593E+02  0.00000000000E+00 0.  1.
</event>
<event>
 7    1  0.1826069E-013  0.7246148E+02  0.7816164E-02  0.1226708E+00
        -11   -1    0    0    0    0  0.00000000000E+00  0.00000000000E+00  0.45593999997E+02  0.45594000000E+02  0.51100000000E-03 0.  1.
         11   -1    0    0    0    0 -0.00000000000E+00 -0.00000000000E+00 -0.45593999997E+02  0.45594000000E+02  0.51100000000E-03 0. -1.
    9900012    2    1    2    0    0 -0.63163122845E+01  0.37326903426E+01 -0.17229439735E+02  0.72461484797E+02  0.69999888624E+02 0.  0.
        -12    1    1    2    0    0  0.63163122845E+01 -0.37326903426E+01  0.17229439735E+02  0.18726515203E+02  0.00000000000E+00 0.  1.
         11    1    3    3    0    0 -0.23675369585E+02 -0.38202934690E+01  0.57501582703E+01  0.24661348048E+02  0.51100000000E-03 0. -1.
        -11    1    3    3    0    0  0.15266947237E+02  0.12239668433E+02 -0.31949633135E+02  0.37465560439E+02  0.51100000000E-03 0.  1.
        -12    1    3    3    0    0  0.20921100636E+01 -0.46866846213E+01  0.89700351302E+01  0.10334576309E+02  0.00000000000E+00 0.  1.
</event>
<event>
 7    1  0.1826069E-013  0.7246167E+02  0.7816164E-02  0.1226708E+00
        -11   -1    0    0    0    0  0.00000000000E+00  0.00000000000E+00  0.45593999997E+02  0.45594000000E+02  0.51100000000E-03 0.  1.
         11   -1    0    0    0    0 -0.00000000000E+00 -0.00000000000E+00 -0.45593999997E+02  0.45594000000E+02  0.51100000000E-03 0. -1.
    9900012    2    1    2    0    0 -0.80283951653E+01  0.49419402296E+00 -0.16910824910E+02  0.72461672122E+02  0.70000132649E+02 0.  0.
        -12    1    1    2    0    0  0.80283951653E+01 -0.49419402296E+00  0.16910824910E+02  0.18726327878E+02  0.00000000000E+00 0.  1.
         11    1    3    3    0    0  0.22302044945E+02  0.20516244967E+02  0.18597051083E+01  0.30360435103E+02  0.51100000000E-03 0.  1.
        -11    1    3    3    0    0 -0.13481499077E+02 -0.14779903812E+02 -0.90697139156E+01  0.21964882991E+02  0.51100000000E-03 0. -1.
        -12    1    3    3    0    0 -0.16848941033E+02 -0.52421471325E+01 -0.97008161025E+01  0.20136354028E+02  0.00000000000E+00 0.  1.
</event>
<event>
 7    1  0.1826069E-013  0.7246155E+02  0.7816164E-02  0.1226708E+00
        -11   -1    0    0    0    0  0.00000000000E+00  0.00000000000E+00  0.45593999997E+02  0.45594000000E+02  0.51100000000E-03 0.  1.
         11   -1    0    0    0    0 -0.00000000000E+00 -0.00000000000E+00 -0.45593999997E+02  0.45594000000E+02  0.51100000000E-03 0. -1.
    9900012    2    1    2    0    0 -0.18097338044E+02  0.20877474549E+01 -0.43367747346E+01  0.72461549487E+02  0.69999972895E+02 0.  0.
        -12    1    1    2    0    0  0.18097338044E+02 -0.20877474549E+01  0.43367747346E+01  0.18726450513E+02  0.00000000000E+00 0.  1.
         11    1    3    3    0    0 -0.13457125119E+02  0.31687152725E+02 -0.30023796412E+01  0.34556969601E+02  0.51100000000E-03 0. -1.
        -11    1    3    3    0    0 -0.90498866720E+01 -0.13893163603E+01  0.12247671227E+01  0.92374619616E+01  0.51100000000E-03 0.  1.
         12    1    3    3    0    0  0.44096737468E+01 -0.28210088909E+02 -0.25591622161E+01  0.28667117924E+02  0.00000000000E+00 0. -1.
</event>
<event>
 7    1  0.1826069E-013  0.7246157E+02  0.7816164E-02  0.1226708E+00
        -11   -1    0    0    0    0  0.00000000000E+00  0.00000000000E+00  0.45593999997E+02  0.45594000000E+02  0.51100000000E-03 0.  1.
         11   -1    0    0    0    0 -0.00000000000E+00 -0.00000000000E+00 -0.45593999997E+02  0.45594000000E+02  0.51100000000E-03 0. -1.
    9900012    2    1    2    0    0 -0.56939501503E+01  0.17598180496E+02 -0.29261195043E+01  0.72461569469E+02  0.69999998925E+02 0.  0.
        -12    1    1    2    0    0  0.56939501503E+01 -0.17598180496E+02  0.29261195043E+01  0.18726430531E+02  0.00000000000E+00 0.  1.
         11    1    3    3    0    0 -0.17592171292E+02  0.29473640527E+02 -0.28255177697E+01  0.34440724842E+02  0.51100000000E-03 0. -1.
        -11    1    3    3    0    0 -0.18889971279E+01 -0.31446415913E+01  0.15208637955E+02  0.15644799442E+02  0.51100000000E-03 0.  1.
         12    1    3    3    0    0  0.13787218270E+02 -0.87308184401E+01 -0.15309239690E+02  0.22376045185E+02  0.00000000000E+00 0. -1.
</event>
<event>
 7    1  0.1826069E-013  0.7246161E+02  0.7816164E-02  0.1226708E+00
        -11   -1    0    0    0    0  0.00000000000E+00  0.00000000000E+00  0.45593999997E+02  0.45594000000E+02  0.51100000000E-03 0.  1.
         11   -1    0    0    0    0 -0.00000000000E+00 -0.00000000000E+00 -0.45593999997E+02  0.45594000000E+02  0.51100000000E-03 0. -1.
    9900012    2    1    2    0    0  0.82155387033E+01 -0.36519163627E+01 -0.16426991562E+02  0.72461611638E+02  0.70000053858E+02 0.  0.
        -12    1    1    2    0    0 -0.82155387033E+01  0.36519163627E+01  0.16426991562E+02  0.18726388362E+02  0.00000000000E+00 0.  1.
         11    1    3    3    0    0  0.85129848795E+01 -0.17273393542E+02 -0.26963472874E+02  0.33134119963E+02  0.51100000000E-03 0. -1.
        -11    1    3    3    0    0  0.15328148332E+02  0.15688730429E+02  0.41597930918E+01  0.22324700952E+02  0.51100000000E-03 0.  1.
        -12    1    3    3    0    0 -0.15625594508E+02 -0.20672532501E+01  0.63766882207E+01  0.17002790724E+02  0.00000000000E+00 0.  1.
</event>
<event>
 7    1  0.1826069E-013  0.7246159E+02  0.7816164E-02  0.1226708E+00
        -11   -1    0    0    0    0  0.00000000000E+00  0.00000000000E+00  0.45593999997E+02  0.45594000000E+02  0.51100000000E-03 0. -1.
         11   -1    0    0    0    0 -0.00000000000E+00 -0.00000000000E+00 -0.45593999997E+02  0.45594000000E+02  0.51100000000E-03 0.  1.
    9900012    2    1    2    0    0  0.22825826010E+00 -0.14290018161E+02  0.12100486708E+02  0.72461588186E+02  0.70000023307E+02 0.  0.
        -12    1    1    2    0    0 -0.22825826010E+00  0.14290018161E+02 -0.12100486708E+02  0.18726411814E+02  0.00000000000E+00 0.  1.
         11    1    3    3    0    0 -0.10877609102E+02  0.19260043525E+02 -0.11002834777E+02  0.24704939380E+02  0.51100000000E-03 0. -1.
        -11    1    3    3    0    0  0.18814844722E+00 -0.73431884601E+01 -0.41210610855E+01  0.84226457440E+01  0.51100000000E-03 0.  1.
         12    1    3    3    0    0  0.10917718915E+02 -0.26206873226E+02  0.27224382570E+02  0.39334003062E+02  0.00000000000E+00 0. -1.
</event>
<event>
 7    1  0.1826069E-013  0.7246159E+02  0.7816164E-02  0.1226708E+00
        -11   -1    0    0    0    0  0.00000000000E+00  0.00000000000E+00  0.45593999997E+02  0.45594000000E+02  0.51100000000E-03 0. -1.
         11   -1    0    0    0    0 -0.00000000000E+00 -0.00000000000E+00 -0.45593999997E+02  0.45594000000E+02  0.51100000000E-03 0.  1.
    9900012    2    1    2    0    0  0.71099044873E+01 -0.14584333879E+02  0.93501232417E+01  0.72461592412E+02  0.70000028813E+02 0.  0.
        -12    1    1    2    0    0 -0.71099044873E+01  0.14584333879E+02 -0.93501232417E+01  0.18726407588E+02  0.00000000000E+00 0.  1.
         11    1    3    3    0    0  0.37391483270E+01 -0.15448454443E+02  0.24079193221E+00  0.15896350396E+02  0.51100000000E-03 0. -1.
        -11    1    3    3    0    0  0.96383795607E+01  0.16111189239E+02 -0.17236756078E+02  0.25486752238E+02  0.51100000000E-03 0.  1.
        -12    1    3    3    0    0 -0.62676234003E+01 -0.15247068675E+02  0.26346087388E+02  0.31078489779E+02  0.00000000000E+00 0.  1.
</event>
<event>
 7    1  0.1826069E-013  0.7246158E+02  0.7816164E-02  0.1226708E+00
        -11   -1    0    0    0    0  0.00000000000E+00  0.00000000000E+00  0.45593999997E+02  0.45594000000E+02  0.51100000000E-03 0.  1.
         11   -1    0    0    0    0 -0.00000000000E+00 -0.00000000000E+00 -0.45593999997E+02  0.45594000000E+02  0.51100000000E-03 0. -1.
    9900012    2    1    2    0    0 -0.68411168688E+01 -0.14041189997E+02 -0.10330676480E+02  0.72461580879E+02  0.70000013789E+02 0.  0.
        -12    1    1    2    0    0  0.68411168688E+01  0.14041189997E+02  0.10330676480E+02  0.18726419121E+02  0.00000000000E+00 0.  1.
         11    1    3    3    0    0  0.20074545690E+02 -0.26222240344E+02  0.37490974345E+01  0.33236260397E+02  0.51100000000E-03 0. -1.
        -11    1    3    3    0    0 -0.12841152011E+02 -0.15144044446E+01  0.29149095039E+01  0.13254633283E+02  0.51100000000E-03 0.  1.
         12    1    3    3    0    0 -0.14074510547E+02  0.13695454792E+02 -0.16994683419E+02  0.25970687199E+02  0.00000000000E+00 0. -1.
</event>
<event>
 7    1  0.1826069E-013  0.7246148E+02  0.7816164E-02  0.1226708E+00
        -11   -1    0    0    0    0  0.00000000000E+00  0.00000000000E+00  0.45593999997E+02  0.45594000000E+02  0.51100000000E-03 0.  1.
         11   -1    0    0    0    0 -0.00000000000E+00 -0.00000000000E+00 -0.45593999997E+02  0.45594000000E+02  0.51100000000E-03 0. -1.
    9900012    2    1    2    0    0  0.16127250402E+02  0.67227574500E+00  0.94943360918E+01  0.72461479287E+02  0.69999881445E+02 0.  0.
        -12    1    1    2    0    0 -0.16127250402E+02 -0.67227574500E+00 -0.94943360918E+01  0.18726520713E+02  0.00000000000E+00 0.  1.
         11    1    3    3    0    0  0.22960842416E+02  0.37535562414E+01  0.24549500946E+02  0.33822588101E+02  0.51100000000E-03 0.  1.
        -11    1    3    3    0    0 -0.61438916740E+01  0.92638613697E+01 -0.21861197028E+02  0.24525057964E+02  0.51100000000E-03 0. -1.
         12    1    3    3    0    0 -0.68970034021E+00 -0.12345141866E+02  0.68060321742E+01  0.14113833222E+02  0.00000000000E+00 0. -1.
</event>
<event>
 7    1  0.1826069E-013  0.7246163E+02  0.7816164E-02  0.1226708E+00
        -11   -1    0    0    0    0  0.00000000000E+00  0.00000000000E+00  0.45593999997E+02  0.45594000000E+02  0.51100000000E-03 0. -1.
         11   -1    0    0    0    0 -0.00000000000E+00 -0.00000000000E+00 -0.45593999997E+02  0.45594000000E+02  0.51100000000E-03 0.  1.
    9900012    2    1    2    0    0 -0.45755412660E+01 -0.97216225708E+01  0.15337253038E+02  0.72461632118E+02  0.70000080537E+02 0.  0.
        -12    1    1    2    0    0  0.45755412660E+01  0.97216225708E+01 -0.15337253038E+02  0.18726367882E+02  0.00000000000E+00 0.  1.
         11    1    3    3    0    0 -0.25469618877E+02  0.13361404704E+01  0.13959567335E+02  0.29075011221E+02  0.51100000000E-03 0. -1.
        -11    1    3    3    0    0  0.17900543644E+02 -0.21409012759E+02  0.99395465188E+01  0.29623805889E+02  0.51100000000E-03 0.  1.
        -12    1    3    3    0    0  0.29935339670E+01  0.10351249718E+02 -0.85618608154E+01  0.13762815009E+02  0.00000000000E+00 0.  1.
</event>
<event>
 7    1  0.1826069E-013  0.7246161E+02  0.7816164E-02  0.1226708E+00
        -11   -1    0    0    0    0  0.00000000000E+00  0.00000000000E+00  0.45593999997E+02  0.45594000000E+02  0.51100000000E-03 0. -1.
         11   -1    0    0    0    0 -0.00000000000E+00 -0.00000000000E+00 -0.45593999997E+02  0.45594000000E+02  0.51100000000E-03 0.  1.
    9900012    2    1    2    0    0 -0.43815883985E+01 -0.40859969647E+00  0.18201985766E+02  0.72461613365E+02  0.70000056107E+02 0.  0.
        -12    1    1    2    0    0  0.43815883985E+01  0.40859969647E+00 -0.18201985766E+02  0.18726386635E+02  0.00000000000E+00 0.  1.
         11    1    3    3    0    0  0.98047759117E+01  0.53505760764E+01  0.24618353377E+02  0.27033786606E+02  0.51100000000E-03 0. -1.
        -11    1    3    3    0    0 -0.23806630051E+02  0.10507995913E+02 -0.47824904828E+01  0.26458379164E+02  0.51100000000E-03 0.  1.
        -12    1    3    3    0    0  0.96202657406E+01 -0.16267171686E+02 -0.16338771286E+01  0.18969447595E+02  0.00000000000E+00 0.  1.
</event>
<event>
 7    1  0.1826069E-013  0.7246158E+02  0.7816164E-02  0.1226708E+00
        -11   -1    0    0    0    0  0.00000000000E+00  0.00000000000E+00  0.45593999997E+02  0.45594000000E+02  0.51100000000E-03 0.  1.
         11   -1    0    0    0    0 -0.00000000000E+00 -0.00000000000E+00 -0.45593999997E+02  0.45594000000E+02  0.51100000000E-03 0. -1.
    9900012    2    1    2    0    0 -0.43830075432E+01  0.18206268399E+02  0.12687279391E-02  0.72461575735E+02  0.70000007088E+02 0.  0.
        -12    1    1    2    0    0  0.43830075432E+01 -0.18206268399E+02 -0.12687279391E-02  0.18726424265E+02  0.00000000000E+00 0.  1.
         11    1    3    3    0    0 -0.27706217943E+02  0.84264669493E+01 -0.83227376752E+01  0.30131508768E+02  0.51100000000E-03 0. -1.
        -11    1    3    3    0    0  0.20638281342E+02  0.15639545915E+02 -0.60368486245E+01  0.26589050279E+02  0.51100000000E-03 0.  1.
        -12    1    3    3    0    0  0.26849290582E+01 -0.58597444657E+01  0.14360855028E+02  0.15741016688E+02  0.00000000000E+00 0.  1.
</event>
<event>
 7    1  0.1826069E-013  0.7246162E+02  0.7816164E-02  0.1226708E+00
        -11   -1    0    0    0    0  0.00000000000E+00  0.00000000000E+00  0.45593999997E+02  0.45594000000E+02  0.51100000000E-03 0.  1.
         11   -1    0    0    0    0 -0.00000000000E+00 -0.00000000000E+00 -0.45593999997E+02  0.45594000000E+02  0.51100000000E-03 0. -1.
    9900012    2    1    2    0    0  0.58736730246E+01  0.14658825079E+02 -0.10064595042E+02  0.72461621256E+02  0.70000066387E+02 0.  0.
        -12    1    1    2    0    0 -0.58736730246E+01 -0.14658825079E+02  0.10064595042E+02  0.18726378744E+02  0.00000000000E+00 0.  1.
         11    1    3    3    0    0  0.33428485587E+01  0.95118625710E+01  0.22008807874E+02  0.24208217413E+02  0.51100000000E-03 0. -1.
        -11    1    3    3    0    0  0.15110940307E+02  0.10883078288E+02 -0.75367245722E+01  0.20089403364E+02  0.51100000000E-03 0.  1.
         12    1    3    3    0    0 -0.12580115842E+02 -0.57361157797E+01 -0.24536678344E+02  0.28164000479E+02  0.00000000000E+00 0. -1.
</event>
<event>
 7    1  0.1826069E-013  0.7246153E+02  0.7816164E-02  0.1226708E+00
        -11   -1    0    0    0    0  0.00000000000E+00  0.00000000000E+00  0.45593999997E+02  0.45594000000E+02  0.51100000000E-03 0.  1.
         11   -1    0    0    0    0 -0.00000000000E+00 -0.00000000000E+00 -0.45593999997E+02  0.45594000000E+02  0.51100000000E-03 0. -1.
    9900012    2    1    2    0    0  0.74465299811E+01  0.16457911328E+02 -0.49362924726E+01  0.72461531102E+02  0.69999948944E+02 0.  0.
        -12    1    1    2    0    0 -0.74465299811E+01 -0.16457911328E+02  0.49362924726E+01  0.18726468898E+02  0.00000000000E+00 0.  1.
         11    1    3    3    0    0  0.10481132032E+02 -0.15165632841E+02  0.33819949385E+01  0.18742690260E+02  0.51100000000E-03 0. -1.
        -11    1    3    3    0    0  0.17722093721E+02  0.20201425921E+02 -0.12537850413E+02  0.29654138131E+02  0.51100000000E-03 0.  1.
        -12    1    3    3    0    0 -0.20756695772E+02  0.11422118248E+02  0.42195630015E+01  0.24064702711E+02  0.00000000000E+00 0.  1.
</event>
<event>
 7    1  0.1826069E-013  0.7246155E+02  0.7816164E-02  0.1226708E+00
        -11   -1    0    0    0    0  0.00000000000E+00  0.00000000000E+00  0.45593999997E+02  0.45594000000E+02  0.51100000000E-03 0. -1.
         11   -1    0    0    0    0 -0.00000000000E+00 -0.00000000000E+00 -0.45593999997E+02  0.45594000000E+02  0.51100000000E-03 0.  1.
    9900012    2    1    2    0    0  0.15088574110E+02 -0.10797912937E+02  0.25337478076E+01  0.72461551581E+02  0.69999975622E+02 0.  0.
        -12    1    1    2    0    0 -0.15088574110E+02  0.10797912937E+02 -0.25337478076E+01  0.18726448419E+02  0.00000000000E+00 0.  1.
         11    1    3    3    0    0  0.14538292225E+01 -0.25524851050E+02  0.16760136698E+02  0.30570145942E+02  0.51100000000E-03 0. -1.
        -11    1    3    3    0    0 -0.74526485506E+01  0.16624659025E+02 -0.70611890562E+01  0.19539233589E+02  0.51100000000E-03 0.  1.
         12    1    3    3    0    0  0.21087393438E+02 -0.18977209112E+01 -0.71651998338E+01  0.22352172049E+02  0.00000000000E+00 0. -1.
</event>
<event>
 7    1  0.1826069E-013  0.7246155E+02  0.7816164E-02  0.1226708E+00
        -11   -1    0    0    0    0  0.00000000000E+00  0.00000000000E+00  0.45593999997E+02  0.45594000000E+02  0.51100000000E-03 0.  1.
         11   -1    0    0    0    0 -0.00000000000E+00 -0.00000000000E+00 -0.45593999997E+02  0.45594000000E+02  0.51100000000E-03 0. -1.
    9900012    2    1    2    0    0 -0.12117481437E+02  0.88047521377E+01 -0.11239344176E+02  0.72461551482E+02  0.69999975494E+02 0.  0.
        -12    1    1    2    0    0  0.12117481437E+02 -0.88047521377E+01  0.11239344176E+02  0.18726448518E+02  0.00000000000E+00 0.  1.
         11    1    3    3    0    0 -0.18497797349E+02  0.10813187194E+02 -0.11898554213E+02  0.24508551909E+02  0.51100000000E-03 0. -1.
        -11    1    3    3    0    0  0.26430626829E+02  0.31725459743E+01  0.41813470021E+01  0.26946739052E+02  0.51100000000E-03 0.  1.
         12    1    3    3    0    0 -0.20050310916E+02 -0.51809810304E+01 -0.35221369650E+01  0.21006260521E+02  0.00000000000E+00 0. -1.
</event>
<event>
 7    1  0.1826069E-013  0.7246158E+02  0.7816164E-02  0.1226708E+00
        -11   -1    0    0    0    0  0.00000000000E+00  0.00000000000E+00  0.45593999997E+02  0.45594000000E+02  0.51100000000E-03 0. -1.
         11   -1    0    0    0    0 -0.00000000000E+00 -0.00000000000E+00 -0.45593999997E+02  0.45594000000E+02  0.51100000000E-03 0.  1.
    9900012    2    1    2    0    0  0.10286031173E+02  0.15544282608E+02 -0.18032608932E+01  0.72461577252E+02  0.70000009063E+02 0.  0.
        -12    1    1    2    0    0 -0.10286031173E+02 -0.15544282608E+02  0.18032608932E+01  0.18726422748E+02  0.00000000000E+00 0.  1.
         11    1    3    3    0    0  0.30180657602E+02  0.42960697590E+01  0.10183490794E+02  0.32140811963E+02  0.51100000000E-03 0. -1.
        -11    1    3    3    0    0 -0.19815658813E+02 -0.32008307690E+01  0.20488483085E+01  0.20176804292E+02  0.51100000000E-03 0.  1.
         12    1    3    3    0    0 -0.78967615907E-01  0.14449043618E+02 -0.14035599996E+02  0.20143960996E+02  0.00000000000E+00 0. -1.
</event>
<event>
 7    1  0.1826069E-013  0.7246189E+02  0.7816164E-02  0.1226707E+00
        -11   -1    0    0    0    0  0.00000000000E+00  0.00000000000E+00  0.45593999997E+02  0.45594000000E+02  0.51100000000E-03 0.  1.
         11   -1    0    0    0    0 -0.00000000000E+00 -0.00000000000E+00 -0.45593999997E+02  0.45594000000E+02  0.51100000000E-03 0. -1.
    9900012    2    1    2    0    0  0.63005040681E+01 -0.74250317736E+01 -0.15994992060E+02  0.72461889369E+02  0.70000415653E+02 0.  0.
        -12    1    1    2    0    0 -0.63005040681E+01  0.74250317736E+01  0.15994992060E+02  0.18726110631E+02  0.00000000000E+00 0.  1.
         11    1    3    3    0    0 -0.17816521892E+02 -0.16134917613E+02 -0.17140190827E+02  0.29522028394E+02  0.51100000000E-03 0. -1.
        -11    1    3    3    0    0  0.88467241360E+00  0.16400013636E+02  0.68770546230E+01  0.17805532092E+02  0.51100000000E-03 0.  1.
         12    1    3    3    0    0  0.23232353546E+02 -0.76901277966E+01 -0.57318558568E+01  0.25134328883E+02  0.00000000000E+00 0. -1.
</event>
<event>
 7    1  0.1826069E-013  0.7246148E+02  0.7816164E-02  0.1226708E+00
        -11   -1    0    0    0    0  0.00000000000E+00  0.00000000000E+00  0.45593999997E+02  0.45594000000E+02  0.51100000000E-03 0.  1.
         11   -1    0    0    0    0 -0.00000000000E+00 -0.00000000000E+00 -0.45593999997E+02  0.45594000000E+02  0.51100000000E-03 0. -1.
    9900012    2    1    2    0    0 -0.58760539542E+01 -0.16412442624E+02 -0.68400576760E+01  0.72461476778E+02  0.69999878178E+02 0.  0.
        -12    1    1    2    0    0  0.58760539542E+01  0.16412442624E+02  0.68400576760E+01  0.18726523222E+02  0.00000000000E+00 0.  1.
         11    1    3    3    0    0  0.13208279633E+01 -0.27376944336E+02  0.29105522380E+00  0.27410333473E+02  0.51100000000E-03 0. -1.
        -11    1    3    3    0    0 -0.10956304403E+02  0.23244025753E+02  0.63111247806E+01  0.26460454185E+02  0.51100000000E-03 0.  1.
         12    1    3    3    0    0  0.37594224858E+01 -0.12279524041E+02 -0.13442237680E+02  0.18590689120E+02  0.00000000000E+00 0. -1.
</event>
<event>
 7    1  0.1826069E-013  0.7246168E+02  0.7816164E-02  0.1226708E+00
        -11   -1    0    0    0    0  0.00000000000E+00  0.00000000000E+00  0.45593999997E+02  0.45594000000E+02  0.51100000000E-03 0.  1.
         11   -1    0    0    0    0 -0.00000000000E+00 -0.00000000000E+00 -0.45593999997E+02  0.45594000000E+02  0.51100000000E-03 0. -1.
    9900012    2    1    2    0    0  0.49203051826E+01  0.11981231709E+02 -0.13524628340E+02  0.72461684610E+02  0.70000148917E+02 0.  0.
        -12    1    1    2    0    0 -0.49203051826E+01 -0.11981231709E+02  0.13524628340E+02  0.18726315390E+02  0.00000000000E+00 0.  1.
         11    1    3    3    0    0 -0.12291430616E+01 -0.35649679356E+01 -0.34105757344E+01  0.50844681284E+01  0.51100000000E-03 0. -1.
        -11    1    3    3    0    0  0.35141062888E+02  0.12312846183E+02 -0.82995193801E+01  0.38149475805E+02  0.51100000000E-03 0.  1.
        -12    1    3    3    0    0 -0.28991614643E+02  0.32333534612E+01 -0.18145332257E+01  0.29227740677E+02  0.00000000000E+00 0.  1.
</event>
<event>
 7    1  0.1826069E-013  0.7246154E+02  0.7816164E-02  0.1226708E+00
        -11   -1    0    0    0    0  0.00000000000E+00  0.00000000000E+00  0.45593999997E+02  0.45594000000E+02  0.51100000000E-03 0.  1.
         11   -1    0    0    0    0 -0.00000000000E+00 -0.00000000000E+00 -0.45593999997E+02  0.45594000000E+02  0.51100000000E-03 0. -1.
    9900012    2    1    2    0    0  0.10686144292E+02 -0.54608547360E+01 -0.14375869955E+02  0.72461541412E+02  0.69999962376E+02 0.  0.
        -12    1    1    2    0    0 -0.10686144292E+02  0.54608547360E+01  0.14375869955E+02  0.18726458588E+02  0.00000000000E+00 0.  1.
         11    1    3    3    0    0  0.26518025963E+02 -0.10871255700E+02 -0.16075268567E+02  0.32860373723E+02  0.51100000000E-03 0. -1.
        -11    1    3    3    0    0 -0.93806734286E+01  0.13078831866E+00  0.18557760052E+02  0.20794340527E+02  0.51100000000E-03 0.  1.
         12    1    3    3    0    0 -0.64512082423E+01  0.52796126450E+01 -0.16858361439E+02  0.18806827162E+02  0.00000000000E+00 0. -1.
</event>
<event>
 7    1  0.1826069E-013  0.7246161E+02  0.7816164E-02  0.1226708E+00
        -11   -1    0    0    0    0  0.00000000000E+00  0.00000000000E+00  0.45593999997E+02  0.45594000000E+02  0.51100000000E-03 0. -1.
         11   -1    0    0    0    0 -0.00000000000E+00 -0.00000000000E+00 -0.45593999997E+02  0.45594000000E+02  0.51100000000E-03 0.  1.
    9900012    2    1    2    0    0  0.63148279457E+01  0.77165246755E+01 -0.15851050455E+02  0.72461612052E+02  0.70000054397E+02 0.  0.
        -12    1    1    2    0    0 -0.63148279457E+01 -0.77165246755E+01  0.15851050455E+02  0.18726387948E+02  0.00000000000E+00 0.  1.
         11    1    3    3    0    0  0.14343109148E+02  0.95679551543E+01  0.11454647024E+01  0.17279543846E+02  0.51100000000E-03 0. -1.
        -11    1    3    3    0    0  0.96936632142E+01  0.98649309511E+01 -0.28020113023E+02  0.31247571158E+02  0.51100000000E-03 0.  1.
        -12    1    3    3    0    0 -0.17721944417E+02 -0.11716361430E+02  0.11023597865E+02  0.23934497048E+02  0.00000000000E+00 0.  1.
</event>
<event>
 7    1  0.1826069E-013  0.7246158E+02  0.7816164E-02  0.1226708E+00
        -11   -1    0    0    0    0  0.00000000000E+00  0.00000000000E+00  0.45593999997E+02  0.45594000000E+02  0.51100000000E-03 0.  1.
         11   -1    0    0    0    0 -0.00000000000E+00 -0.00000000000E+00 -0.45593999997E+02  0.45594000000E+02  0.51100000000E-03 0. -1.
    9900012    2    1    2    0    0 -0.33016884024E+01 -0.12720324350E+02 -0.13340583223E+02  0.72461575926E+02  0.70000007336E+02 0.  0.
        -12    1    1    2    0    0  0.33016884024E+01  0.12720324350E+02  0.13340583223E+02  0.18726424074E+02  0.00000000000E+00 0.  1.
         11    1    3    3    0    0 -0.11899649490E+02 -0.30449857163E+02 -0.15196355114E+02  0.36051694388E+02  0.51100000000E-03 0. -1.
        -11    1    3    3    0    0  0.92726671761E+01  0.20469530164E+02 -0.97281888433E+01  0.24487173788E+02  0.51100000000E-03 0.  1.
        -12    1    3    3    0    0 -0.67470608799E+00 -0.27399973512E+01  0.11583960735E+02  0.11922707750E+02  0.00000000000E+00 0.  1.
</event>
<event>
 7    1  0.1826069E-013  0.7246155E+02  0.7816164E-02  0.1226708E+00
        -11   -1    0    0    0    0  0.00000000000E+00  0.00000000000E+00  0.45593999997E+02  0.45594000000E+02  0.51100000000E-03 0.  1.
         11   -1    0    0    0    0 -0.00000000000E+00 -0.00000000000E+00 -0.45593999997E+02  0.45594000000E+02  0.51100000000E-03 0. -1.
    9900012    2    1    2    0    0  0.17688861365E+01 -0.98042941118E+01 -0.15856440793E+02  0.72461551970E+02  0.69999976129E+02 0.  0.
        -12    1    1    2    0    0 -0.17688861365E+01  0.98042941118E+01  0.15856440793E+02  0.18726448030E+02  0.00000000000E+00 0.  1.
         11    1    3    3    0    0  0.28682791475E+02  0.64921656228E+01 -0.20071960452E+01  0.29476763348E+02  0.51100000000E-03 0. -1.
        -11    1    3    3    0    0 -0.28257752626E+01  0.20595325752E+01  0.58794131836E+01  0.68406271575E+01  0.51100000000E-03 0.  1.
         12    1    3    3    0    0 -0.24088130075E+02 -0.18355992310E+02 -0.19728657931E+02  0.36144161465E+02  0.00000000000E+00 0. -1.
</event>
<event>
 7    1  0.2043447E-013  0.7246158E+02  0.7816164E-02  0.1226708E+00
        -11   -1    0    0    0    0  0.00000000000E+00  0.00000000000E+00  0.45593999997E+02  0.45594000000E+02  0.51100000000E-03 0. -1.
         11   -1    0    0    0    0 -0.00000000000E+00 -0.00000000000E+00 -0.45593999997E+02  0.45594000000E+02  0.51100000000E-03 0.  1.
    9900012    2    1    2    0    0 -0.83964516935E+01 -0.12503888388E+02  0.11127941617E+02  0.72461582550E+02  0.70000015966E+02 0.  0.
        -12    1    1    2    0    0  0.83964516935E+01  0.12503888388E+02 -0.11127941617E+02  0.18726417450E+02  0.00000000000E+00 0.  1.
         11    1    3    3    0    0 -0.79511318790E+01 -0.28656610500E+02 -0.62802430362E+01  0.30395119285E+02  0.51100000000E-03 0. -1.
        -11    1    3    3    0    0  0.12798118185E+02  0.95982681955E+01 -0.35850036964E+01  0.16394231705E+02  0.51100000000E-03 0.  1.
         12    1    3    3    0    0 -0.13243438000E+02  0.65544539166E+01  0.20993188350E+02  0.25672231560E+02  0.00000000000E+00 0. -1.
</event>
<event>
 7    1  0.1826069E-013  0.7246165E+02  0.7816164E-02  0.1226708E+00
        -11   -1    0    0    0    0  0.00000000000E+00  0.00000000000E+00  0.45593999997E+02  0.45594000000E+02  0.51100000000E-03 0.  1.
         11   -1    0    0    0    0 -0.00000000000E+00 -0.00000000000E+00 -0.45593999997E+02  0.45594000000E+02  0.51100000000E-03 0. -1.
    9900012    2    1    2    0    0 -0.17885492479E+02 -0.48066295878E+01  0.27715925819E+01  0.72461648122E+02  0.70000101385E+02 0.  0.
        -12    1    1    2    0    0  0.17885492479E+02  0.48066295878E+01 -0.27715925819E+01  0.18726351878E+02  0.00000000000E+00 0.  1.
         11    1    3    3    0    0 -0.36688451898E+02  0.13532166561E+02  0.14579179071E+02  0.41733853131E+02  0.51100000000E-03 0. -1.
        -11    1    3    3    0    0  0.12349195489E+02 -0.15684107920E+02 -0.41906367670E+01  0.20397433840E+02  0.51100000000E-03 0.  1.
         12    1    3    3    0    0  0.64537639298E+01 -0.26546882286E+01 -0.76169497221E+01  0.10330361152E+02  0.00000000000E+00 0. -1.
</event>
<event>
 7    1  0.1826069E-013  0.7246153E+02  0.7816164E-02  0.1226708E+00
        -11   -1    0    0    0    0  0.00000000000E+00  0.00000000000E+00  0.45593999997E+02  0.45594000000E+02  0.51100000000E-03 0. -1.
         11   -1    0    0    0    0 -0.00000000000E+00 -0.00000000000E+00 -0.45593999997E+02  0.45594000000E+02  0.51100000000E-03 0.  1.
    9900012    2    1    2    0    0 -0.11049912147E+02 -0.69332708102E+01  0.13435390483E+02  0.72461534236E+02  0.69999953027E+02 0.  0.
        -12    1    1    2    0    0  0.11049912147E+02  0.69332708102E+01 -0.13435390483E+02  0.18726465764E+02  0.00000000000E+00 0.  1.
         11    1    3    3    0    0  0.49379910996E+01 -0.59585221629E+01  0.32807036692E+02  0.33707408670E+02  0.51100000000E-03 0. -1.
        -11    1    3    3    0    0 -0.40020085181E+01 -0.38686448646E+01 -0.24701734256E+02  0.25321101098E+02  0.51100000000E-03 0.  1.
        -12    1    3    3    0    0 -0.11985894729E+02  0.28938962173E+01  0.53300880473E+01  0.13433024468E+02  0.00000000000E+00 0.  1.
</event>
<event>
 7    1  0.1826069E-013  0.7246178E+02  0.7816164E-02  0.1226707E+00
        -11   -1    0    0    0    0  0.00000000000E+00  0.00000000000E+00  0.45593999997E+02  0.45594000000E+02  0.51100000000E-03 0. -1.
         11   -1    0    0    0    0 -0.00000000000E+00 -0.00000000000E+00 -0.45593999997E+02  0.45594000000E+02  0.51100000000E-03 0.  1.
    9900012    2    1    2    0    0 -0.77628897073E+01 -0.11799893993E+02  0.12295170293E+02  0.72461783955E+02  0.70000278332E+02 0.  0.
        -12    1    1    2    0    0  0.77628897073E+01  0.11799893993E+02 -0.12295170293E+02  0.18726216045E+02  0.00000000000E+00 0.  1.
         11    1    3    3    0    0 -0.22316959043E+02  0.14032509589E+02  0.14159067981E+02  0.29923856580E+02  0.51100000000E-03 0. -1.
        -11    1    3    3    0    0  0.14558208747E+02  0.15365633252E+01  0.24136083202E+01  0.14836710355E+02  0.51100000000E-03 0.  1.
         12    1    3    3    0    0 -0.41394109359E-02 -0.27368966907E+02 -0.42775060088E+01  0.27701217019E+02  0.00000000000E+00 0. -1.
</event>
<event>
 7    1  0.1826069E-013  0.7246155E+02  0.7816164E-02  0.1226708E+00
        -11   -1    0    0    0    0  0.00000000000E+00  0.00000000000E+00  0.45593999997E+02  0.45594000000E+02  0.51100000000E-03 0.  1.
         11   -1    0    0    0    0 -0.00000000000E+00 -0.00000000000E+00 -0.45593999997E+02  0.45594000000E+02  0.51100000000E-03 0. -1.
    9900012    2    1    2    0    0 -0.16817237072E+02 -0.37191509039E+01  0.73503962319E+01  0.72461551566E+02  0.69999975603E+02 0.  0.
        -12    1    1    2    0    0  0.16817237072E+02  0.37191509039E+01 -0.73503962319E+01  0.18726448434E+02  0.00000000000E+00 0.  1.
         11    1    3    3    0    0 -0.21254575101E+02 -0.21691036040E+02  0.78204466691E+01  0.31359486501E+02  0.51100000000E-03 0.  1.
        -11    1    3    3    0    0 -0.55333409975E+01  0.17501568800E+02 -0.14841015327E+02  0.23604628980E+02  0.51100000000E-03 0. -1.
         12    1    3    3    0    0  0.99706790266E+01  0.47031633642E+00  0.14370964890E+02  0.17497436086E+02  0.00000000000E+00 0. -1.
</event>
<event>
 7    1  0.1826069E-013  0.7246156E+02  0.7816164E-02  0.1226708E+00
        -11   -1    0    0    0    0  0.00000000000E+00  0.00000000000E+00  0.45593999997E+02  0.45594000000E+02  0.51100000000E-03 0. -1.
         11   -1    0    0    0    0 -0.00000000000E+00 -0.00000000000E+00 -0.45593999997E+02  0.45594000000E+02  0.51100000000E-03 0.  1.
    9900012    2    1    2    0    0 -0.35908615874E+01  0.71814129248E+01  0.16917819157E+02  0.72461559239E+02  0.69999985598E+02 0.  0.
        -12    1    1    2    0    0  0.35908615874E+01 -0.71814129248E+01 -0.16917819157E+02  0.18726440761E+02  0.00000000000E+00 0.  1.
         11    1    3    3    0    0 -0.17992202250E+02  0.15033681019E+02  0.21016290850E+02  0.31486749406E+02  0.51100000000E-03 0. -1.
        -11    1    3    3    0    0  0.15879873751E+02 -0.19888885588E+02  0.48434690661E+01  0.25907476781E+02  0.51100000000E-03 0.  1.
        -12    1    3    3    0    0 -0.14785330886E+01  0.12036617494E+02 -0.89419407588E+01  0.15067333053E+02  0.00000000000E+00 0.  1.
</event>
<event>
 7    1  0.1826069E-013  0.7246171E+02  0.7816164E-02  0.1226708E+00
        -11   -1    0    0    0    0  0.00000000000E+00  0.00000000000E+00  0.45593999997E+02  0.45594000000E+02  0.51100000000E-03 0. -1.
         11   -1    0    0    0    0 -0.00000000000E+00 -0.00000000000E+00 -0.45593999997E+02  0.45594000000E+02  0.51100000000E-03 0.  1.
    9900012    2    1    2    0    0 -0.12330818810E+02  0.69180306446E+01  0.12278660775E+02  0.72461714972E+02  0.70000188469E+02 0.  0.
        -12    1    1    2    0    0  0.12330818810E+02 -0.69180306446E+01 -0.12278660775E+02  0.18726285028E+02  0.00000000000E+00 0.  1.
         11    1    3    3    0    0 -0.32688502265E+02 -0.14860360182E+02  0.19980707149E+02  0.41092543649E+02  0.51100000000E-03 0. -1.
        -11    1    3    3    0    0  0.83227222888E+01  0.12835155115E+02 -0.25117003490E+01  0.15502178945E+02  0.51100000000E-03 0.  1.
         12    1    3    3    0    0  0.12034961166E+02  0.89432357115E+01 -0.51903460257E+01  0.15866992378E+02  0.00000000000E+00 0. -1.
</event>
<event>
 7    1  0.1826069E-013  0.7246157E+02  0.7816164E-02  0.1226708E+00
        -11   -1    0    0    0    0  0.00000000000E+00  0.00000000000E+00  0.45593999997E+02  0.45594000000E+02  0.51100000000E-03 0.  1.
         11   -1    0    0    0    0 -0.00000000000E+00 -0.00000000000E+00 -0.45593999997E+02  0.45594000000E+02  0.51100000000E-03 0. -1.
    9900012    2    1    2    0    0 -0.17387776295E+02  0.30470696840E+01 -0.62497794122E+01  0.72461571060E+02  0.70000000997E+02 0.  0.
        -12    1    1    2    0    0  0.17387776295E+02 -0.30470696840E+01  0.62497794122E+01  0.18726428940E+02  0.00000000000E+00 0.  1.
         11    1    3    3    0    0  0.39202665459E+01 -0.37851762276E+01 -0.33871841548E+02  0.34307400062E+02  0.51100000000E-03 0. -1.
        -11    1    3    3    0    0 -0.31888616744E+01 -0.17858090375E+01  0.12516954618E+02  0.13039635956E+02  0.51100000000E-03 0.  1.
         12    1    3    3    0    0 -0.18119181167E+02  0.86180549491E+01  0.15105107518E+02  0.25114535042E+02  0.00000000000E+00 0. -1.
</event>
<event>
 7    1  0.1826069E-013  0.7246154E+02  0.7816164E-02  0.1226708E+00
        -11   -1    0    0    0    0  0.00000000000E+00  0.00000000000E+00  0.45593999997E+02  0.45594000000E+02  0.51100000000E-03 0. -1.
         11   -1    0    0    0    0 -0.00000000000E+00 -0.00000000000E+00 -0.45593999997E+02  0.45594000000E+02  0.51100000000E-03 0.  1.
    9900012    2    1    2    0    0  0.17445769211E+02 -0.16053165929E+01  0.66142677033E+01  0.72461536320E+02  0.69999955742E+02 0.  0.
        -12    1    1    2    0    0 -0.17445769211E+02  0.16053165929E+01 -0.66142677033E+01  0.18726463680E+02  0.00000000000E+00 0.  1.
         11    1    3    3    0    0 -0.12956272071E+02 -0.24758333393E+02 -0.97458966177E+01  0.29594299443E+02  0.51100000000E-03 0.  1.
        -11    1    3    3    0    0  0.30668712533E+02  0.23664996211E+02  0.16714640066E+02  0.42189823025E+02  0.51100000000E-03 0. -1.
         12    1    3    3    0    0 -0.26667125200E+00 -0.51197941055E+00 -0.35447574480E+00  0.67741385218E+00  0.00000000000E+00 0. -1.
</event>
<event>
 7    1  0.1826069E-013  0.7246167E+02  0.7816164E-02  0.1226708E+00
        -11   -1    0    0    0    0  0.00000000000E+00  0.00000000000E+00  0.45593999997E+02  0.45594000000E+02  0.51100000000E-03 0.  1.
         11   -1    0    0    0    0 -0.00000000000E+00 -0.00000000000E+00 -0.45593999997E+02  0.45594000000E+02  0.51100000000E-03 0. -1.
    9900012    2    1    2    0    0  0.14537704350E+02 -0.65778522674E+00 -0.11785491587E+02  0.72461672514E+02  0.70000133160E+02 0.  0.
        -12    1    1    2    0    0 -0.14537704350E+02  0.65778522674E+00  0.11785491587E+02  0.18726327486E+02  0.00000000000E+00 0.  1.
         11    1    3    3    0    0  0.32678572277E+02  0.75863940577E+01 -0.11540943282E+01  0.33567460357E+02  0.51100000000E-03 0.  1.
        -11    1    3    3    0    0 -0.12551515401E+02  0.99460972354E+01 -0.11702179026E+02  0.19834474616E+02  0.51100000000E-03 0. -1.
         12    1    3    3    0    0 -0.55893525258E+01 -0.18190276520E+02  0.10707817670E+01  0.19059737541E+02  0.00000000000E+00 0. -1.
</event>
<event>
 7    1  0.1826069E-013  0.7246156E+02  0.7816164E-02  0.1226708E+00
        -11   -1    0    0    0    0  0.00000000000E+00  0.00000000000E+00  0.45593999997E+02  0.45594000000E+02  0.51100000000E-03 0. -1.
         11   -1    0    0    0    0 -0.00000000000E+00 -0.00000000000E+00 -0.45593999997E+02  0.45594000000E+02  0.51100000000E-03 0.  1.
    9900012    2    1    2    0    0 -0.67714179679E+01  0.12685738782E+02  0.11995812508E+02  0.72461559135E+02  0.69999985463E+02 0.  0.
        -12    1    1    2    0    0  0.67714179679E+01 -0.12685738782E+02 -0.11995812508E+02  0.18726440865E+02  0.00000000000E+00 0.  1.
         11    1    3    3    0    0  0.20964664890E+02 -0.10337707184E+02  0.14013375835E+02  0.27253624829E+02  0.51100000000E-03 0. -1.
        -11    1    3    3    0    0 -0.18306791103E+02 -0.77555495024E-01 -0.72910562052E+01  0.19705433672E+02  0.51100000000E-03 0.  1.
         12    1    3    3    0    0 -0.94292917548E+01  0.23101001461E+02  0.52734928783E+01  0.25502500635E+02  0.00000000000E+00 0. -1.
</event>
<event>
 7    1  0.1826069E-013  0.7246169E+02  0.7816164E-02  0.1226708E+00
        -11   -1    0    0    0    0  0.00000000000E+00  0.00000000000E+00  0.45593999997E+02  0.45594000000E+02  0.51100000000E-03 0.  1.
         11   -1    0    0    0    0 -0.00000000000E+00 -0.00000000000E+00 -0.45593999997E+02  0.45594000000E+02  0.51100000000E-03 0. -1.
    9900012    2    1    2    0    0 -0.83386618126E+01  0.81945287723E+01 -0.14628430830E+02  0.72461693072E+02  0.70000159940E+02 0.  0.
        -12    1    1    2    0    0  0.83386618126E+01 -0.81945287723E+01  0.14628430830E+02  0.18726306928E+02  0.00000000000E+00 0.  1.
         11    1    3    3    0    0  0.16508040364E+02 -0.75909321307E+01 -0.27805849394E+02  0.33216003794E+02  0.51100000000E-03 0. -1.
        -11    1    3    3    0    0 -0.10068764704E+02 -0.15143070341E+01  0.12974095059E+02  0.16492431334E+02  0.51100000000E-03 0.  1.
         12    1    3    3    0    0 -0.14777937472E+02  0.17299767937E+02  0.20332350493E+00  0.22753257944E+02  0.00000000000E+00 0. -1.
</event>
<event>
 7    1  0.1826069E-013  0.7246157E+02  0.7816164E-02  0.1226708E+00
        -11   -1    0    0    0    0  0.00000000000E+00  0.00000000000E+00  0.45593999997E+02  0.45594000000E+02  0.51100000000E-03 0.  1.
         11   -1    0    0    0    0 -0.00000000000E+00 -0.00000000000E+00 -0.45593999997E+02  0.45594000000E+02  0.51100000000E-03 0. -1.
    9900012    2    1    2    0    0 -0.99243128873E+01 -0.15763300158E+02  0.19250151509E+01  0.72461566771E+02  0.69999995410E+02 0.  0.
        -12    1    1    2    0    0  0.99243128873E+01  0.15763300158E+02 -0.19250151509E+01  0.18726433229E+02  0.00000000000E+00 0.  1.
         11    1    3    3    0    0 -0.20928393660E+02 -0.31205812039E+02  0.15046237488E+02  0.40474555328E+02  0.51100000000E-03 0. -1.
        -11    1    3    3    0    0  0.58315863589E+01  0.61716378658E+01  0.58056979019E+01  0.10286041114E+02  0.51100000000E-03 0.  1.
         12    1    3    3    0    0  0.51724944139E+01  0.92708740147E+01 -0.18926920239E+02  0.21700970329E+02  0.00000000000E+00 0. -1.
</event>
<event>
 7    1  0.1826069E-013  0.7246158E+02  0.7816164E-02  0.1226708E+00
        -11   -1    0    0    0    0  0.00000000000E+00  0.00000000000E+00  0.45593999997E+02  0.45594000000E+02  0.51100000000E-03 0.  1.
         11   -1    0    0    0    0 -0.00000000000E+00 -0.00000000000E+00 -0.45593999997E+02  0.45594000000E+02  0.51100000000E-03 0. -1.
    9900012    2    1    2    0    0  0.50025959125E+01  0.27851895184E+01 -0.17829630411E+02  0.72461575699E+02  0.70000007040E+02 0.  0.
        -12    1    1    2    0    0 -0.50025959125E+01 -0.27851895184E+01  0.17829630411E+02  0.18726424301E+02  0.00000000000E+00 0.  1.
         11    1    3    3    0    0  0.24041540376E+02 -0.16262601440E+01 -0.30215232609E+02  0.38647130133E+02  0.51100000000E-03 0. -1.
        -11    1    3    3    0    0 -0.20003462796E+02 -0.45358970967E+01  0.28592590270E+01  0.20709617301E+02  0.51100000000E-03 0.  1.
         12    1    3    3    0    0  0.96451833253E+00  0.89473467591E+01  0.95263431705E+01  0.13104828265E+02  0.00000000000E+00 0. -1.
</event>
<event>
 7    1  0.1937798E-013  0.7246159E+02  0.7816164E-02  0.1226708E+00
        -11   -1    0    0    0    0  0.00000000000E+00  0.00000000000E+00  0.45593999997E+02  0.45594000000E+02  0.51100000000E-03 0. -1.
         11   -1    0    0    0    0 -0.00000000000E+00 -0.00000000000E+00 -0.45593999997E+02  0.45594000000E+02  0.51100000000E-03 0.  1.
    9900012    2    1    2    0    0 -0.22563172594E+01  0.12559626717E+02  0.13705592706E+02  0.72461589178E+02  0.70000024599E+02 0.  0.
        -12    1    1    2    0    0  0.22563172594E+01 -0.12559626717E+02 -0.13705592706E+02  0.18726410822E+02  0.00000000000E+00 0.  1.
         11    1    3    3    0    0  0.11632389357E+02  0.24422872273E+02  0.24380129555E+02  0.36416752870E+02  0.51100000000E-03 0. -1.
        -11    1    3    3    0    0  0.65433542575E+01 -0.12350801311E+02 -0.38488870876E+01  0.14497300095E+02  0.51100000000E-03 0.  1.
         12    1    3    3    0    0 -0.20432060874E+02  0.48755575526E+00 -0.68256497612E+01  0.21547536213E+02  0.00000000000E+00 0. -1.
</event>
<event>
 7    1  0.1826069E-013  0.7246167E+02  0.7816164E-02  0.1226708E+00
        -11   -1    0    0    0    0  0.00000000000E+00  0.00000000000E+00  0.45593999997E+02  0.45594000000E+02  0.51100000000E-03 0.  1.
         11   -1    0    0    0    0 -0.00000000000E+00 -0.00000000000E+00 -0.45593999997E+02  0.45594000000E+02  0.51100000000E-03 0. -1.
    9900012    2    1    2    0    0 -0.11700411818E+02 -0.79230681471E+00 -0.14599594378E+02  0.72461667128E+02  0.70000126144E+02 0.  0.
        -12    1    1    2    0    0  0.11700411818E+02  0.79230681471E+00  0.14599594378E+02  0.18726332872E+02  0.00000000000E+00 0.  1.
         11    1    3    3    0    0 -0.59163111811E+01  0.30452397976E+02 -0.16078885853E+02  0.34941119773E+02  0.51100000000E-03 0. -1.
        -11    1    3    3    0    0 -0.11390449425E+02 -0.89039289676E+01  0.64190313243E+00  0.14471846083E+02  0.51100000000E-03 0.  1.
         12    1    3    3    0    0  0.56063487876E+01 -0.22340775823E+02  0.83738834202E+00  0.23048701272E+02  0.00000000000E+00 0. -1.
</event>
<event>
 7    1  0.1826069E-013  0.7246159E+02  0.7816164E-02  0.1226708E+00
        -11   -1    0    0    0    0  0.00000000000E+00  0.00000000000E+00  0.45593999997E+02  0.45594000000E+02  0.51100000000E-03 0. -1.
         11   -1    0    0    0    0 -0.00000000000E+00 -0.00000000000E+00 -0.45593999997E+02  0.45594000000E+02  0.51100000000E-03 0.  1.
    9900012    2    1    2    0    0  0.45813931826E+01 -0.66111487730E+01  0.16910999481E+02  0.72461592041E+02  0.70000028330E+02 0.  0.
        -12    1    1    2    0    0 -0.45813931826E+01  0.66111487730E+01 -0.16910999481E+02  0.18726407959E+02  0.00000000000E+00 0.  1.
         11    1    3    3    0    0  0.34436207403E+02 -0.42290579163E+01  0.37771072491E+01  0.34899911900E+02  0.51100000000E-03 0. -1.
        -11    1    3    3    0    0 -0.23566097814E+02  0.46266379846E+01  0.14489079242E+02  0.28048175748E+02  0.51100000000E-03 0.  1.
         12    1    3    3    0    0 -0.62887164065E+01 -0.70087288413E+01 -0.13551870106E+01  0.95135043935E+01  0.00000000000E+00 0. -1.
</event>
<event>
 7    1  0.1826069E-013  0.7246140E+02  0.7816164E-02  0.1226708E+00
        -11   -1    0    0    0    0  0.00000000000E+00  0.00000000000E+00  0.45593999997E+02  0.45594000000E+02  0.51100000000E-03 0. -1.
         11   -1    0    0    0    0 -0.00000000000E+00 -0.00000000000E+00 -0.45593999997E+02  0.45594000000E+02  0.51100000000E-03 0.  1.
    9900012    2    1    2    0    0  0.69968897321E+01 -0.15496220149E+02  0.78483225177E+01  0.72461402040E+02  0.69999780817E+02 0.  0.
        -12    1    1    2    0    0 -0.69968897321E+01  0.15496220149E+02 -0.78483225177E+01  0.18726597960E+02  0.00000000000E+00 0.  1.
         11    1    3    3    0    0  0.10267422132E+02 -0.20497092563E+02  0.23951382912E+02  0.33154479402E+02  0.51100000000E-03 0. -1.
        -11    1    3    3    0    0  0.24456935427E+01  0.65084710720E+00 -0.26527123706E+02  0.26647576086E+02  0.51100000000E-03 0.  1.
        -12    1    3    3    0    0 -0.57162259428E+01  0.43500253068E+01  0.10424063312E+02  0.12659346552E+02  0.00000000000E+00 0.  1.
</event>
<event>
 7    1  0.1826069E-013  0.7246163E+02  0.7816164E-02  0.1226708E+00
        -11   -1    0    0    0    0  0.00000000000E+00  0.00000000000E+00  0.45593999997E+02  0.45594000000E+02  0.51100000000E-03 0.  1.
         11   -1    0    0    0    0 -0.00000000000E+00 -0.00000000000E+00 -0.45593999997E+02  0.45594000000E+02  0.51100000000E-03 0. -1.
    9900012    2    1    2    0    0 -0.43949797070E+01  0.72245969450E+01 -0.16708272042E+02  0.72461628160E+02  0.70000075381E+02 0.  0.
        -12    1    1    2    0    0  0.43949797070E+01 -0.72245969450E+01  0.16708272042E+02  0.18726371840E+02  0.00000000000E+00 0.  1.
         11    1    3    3    0    0 -0.55330074802E+01  0.36277836249E+02 -0.15725155944E+02  0.39924630297E+02  0.51100000000E-03 0. -1.
        -11    1    3    3    0    0  0.45103578991E+01 -0.96220790833E+01  0.52512770052E+01  0.11853423333E+02  0.51100000000E-03 0.  1.
         12    1    3    3    0    0 -0.33723301258E+01 -0.19431160220E+02 -0.62343931032E+01  0.20683574530E+02  0.00000000000E+00 0. -1.
</event>
<event>
 7    1  0.1826069E-013  0.7246158E+02  0.7816164E-02  0.1226708E+00
        -11   -1    0    0    0    0  0.00000000000E+00  0.00000000000E+00  0.45593999997E+02  0.45594000000E+02  0.51100000000E-03 0.  1.
         11   -1    0    0    0    0 -0.00000000000E+00 -0.00000000000E+00 -0.45593999997E+02  0.45594000000E+02  0.51100000000E-03 0. -1.
    9900012    2    1    2    0    0  0.24134946641E+01 -0.15316560101E+02 -0.10500329199E+02  0.72461577942E+02  0.70000009963E+02 0.  0.
        -12    1    1    2    0    0 -0.24134946641E+01  0.15316560101E+02  0.10500329199E+02  0.18726422058E+02  0.00000000000E+00 0.  1.
         11    1    3    3    0    0  0.11638580874E+02 -0.50889701164E+01 -0.86094572457E+01  0.15345257767E+02  0.51100000000E-03 0. -1.
        -11    1    3    3    0    0 -0.17190180396E+02 -0.30642552114E+02 -0.21540315536E+01  0.35200968087E+02  0.51100000000E-03 0.  1.
        -12    1    3    3    0    0  0.79650941859E+01  0.20414962130E+02  0.26315960063E+00  0.21915352088E+02  0.00000000000E+00 0.  1.
</event>
<event>
 7    1  0.1826069E-013  0.7246158E+02  0.7816164E-02  0.1226708E+00
        -11   -1    0    0    0    0  0.00000000000E+00  0.00000000000E+00  0.45593999997E+02  0.45594000000E+02  0.51100000000E-03 0.  1.
         11   -1    0    0    0    0 -0.00000000000E+00 -0.00000000000E+00 -0.45593999997E+02  0.45594000000E+02  0.51100000000E-03 0. -1.
    9900012    2    1    2    0    0 -0.45695144159E+01  0.11426031397E+02 -0.14115386140E+02  0.72461580658E+02  0.70000013501E+02 0.  0.
        -12    1    1    2    0    0  0.45695144159E+01 -0.11426031397E+02  0.14115386140E+02  0.18726419342E+02  0.00000000000E+00 0.  1.
         11    1    3    3    0    0  0.18842037133E+02 -0.98396774680E+01  0.13342340730E+01  0.21298398926E+02  0.51100000000E-03 0.  1.
        -11    1    3    3    0    0 -0.42128301174E+01  0.19424742099E+02 -0.23046908518E+02  0.30434002953E+02  0.51100000000E-03 0. -1.
         12    1    3    3    0    0 -0.19198721432E+02  0.18409667659E+01  0.75972883055E+01  0.20729178779E+02  0.00000000000E+00 0. -1.
</event>
<event>
 7    1  0.1826069E-013  0.7246152E+02  0.7816164E-02  0.1226708E+00
        -11   -1    0    0    0    0  0.00000000000E+00  0.00000000000E+00  0.45593999997E+02  0.45594000000E+02  0.51100000000E-03 0.  1.
         11   -1    0    0    0    0 -0.00000000000E+00 -0.00000000000E+00 -0.45593999997E+02  0.45594000000E+02  0.51100000000E-03 0. -1.
    9900012    2    1    2    0    0 -0.48742035076E+01  0.11227021010E+02 -0.14173118698E+02  0.72461517303E+02  0.69999930969E+02 0.  0.
        -12    1    1    2    0    0  0.48742035076E+01 -0.11227021010E+02  0.14173118698E+02  0.18726482697E+02  0.00000000000E+00 0.  1.
         11    1    3    3    0    0 -0.21679963240E+02 -0.43529111006E+00 -0.11701686636E+02  0.24640206063E+02  0.51100000000E-03 0. -1.
        -11    1    3    3    0    0  0.18472364976E+02  0.45451364522E+01  0.17935237395E+02  0.26144966511E+02  0.51100000000E-03 0.  1.
        -12    1    3    3    0    0 -0.16666052443E+01  0.71171756675E+01 -0.20406669456E+02  0.21676344729E+02  0.00000000000E+00 0.  1.
</event>
<event>
 7    1  0.1826069E-013  0.7246176E+02  0.7816164E-02  0.1226708E+00
        -11   -1    0    0    0    0  0.00000000000E+00  0.00000000000E+00  0.45593999997E+02  0.45594000000E+02  0.51100000000E-03 0. -1.
         11   -1    0    0    0    0 -0.00000000000E+00 -0.00000000000E+00 -0.45593999997E+02  0.45594000000E+02  0.51100000000E-03 0.  1.
    9900012    2    1    2    0    0 -0.85116825476E+00  0.28726758424E+00  0.18704677177E+02  0.72461762835E+02  0.70000250820E+02 0.  0.
        -12    1    1    2    0    0  0.85116825476E+00 -0.28726758424E+00 -0.18704677177E+02  0.18726237165E+02  0.00000000000E+00 0.  1.
         11    1    3    3    0    0  0.12053534013E+02  0.22697806598E+00  0.25095104558E+02  0.27840680205E+02  0.51100000000E-03 0. -1.
        -11    1    3    3    0    0 -0.26838576226E+02 -0.69851934263E+01  0.45786684821E-01  0.27732727917E+02  0.51100000000E-03 0.  1.
        -12    1    3    3    0    0  0.13933873958E+02  0.70454829445E+01 -0.64362140662E+01  0.16888354713E+02  0.00000000000E+00 0.  1.
</event>
<event>
 7    1  0.1826069E-013  0.7246156E+02  0.7816164E-02  0.1226708E+00
        -11   -1    0    0    0    0  0.00000000000E+00  0.00000000000E+00  0.45593999997E+02  0.45594000000E+02  0.51100000000E-03 0.  1.
         11   -1    0    0    0    0 -0.00000000000E+00 -0.00000000000E+00 -0.45593999997E+02  0.45594000000E+02  0.51100000000E-03 0. -1.
    9900012    2    1    2    0    0 -0.83803809275E+01  0.10951344271E+02 -0.12669524230E+02  0.72461559600E+02  0.69999986069E+02 0.  0.
        -12    1    1    2    0    0  0.83803809275E+01 -0.10951344271E+02  0.12669524230E+02  0.18726440400E+02  0.00000000000E+00 0.  1.
         11    1    3    3    0    0  0.88793808747E+01  0.24585770941E+02  0.16457926648E+02  0.30889591893E+02  0.51100000000E-03 0. -1.
        -11    1    3    3    0    0  0.37644944866E+01 -0.19063841981E+01 -0.62933886990E+00  0.42663552507E+01  0.51100000000E-03 0.  1.
         12    1    3    3    0    0 -0.21024256289E+02 -0.11728042472E+02 -0.28498112009E+02  0.37305612457E+02  0.00000000000E+00 0. -1.
</event>
<event>
 7    1  0.1826069E-013  0.7246154E+02  0.7816164E-02  0.1226708E+00
        -11   -1    0    0    0    0  0.00000000000E+00  0.00000000000E+00  0.45593999997E+02  0.45594000000E+02  0.51100000000E-03 0. -1.
         11   -1    0    0    0    0 -0.00000000000E+00 -0.00000000000E+00 -0.45593999997E+02  0.45594000000E+02  0.51100000000E-03 0.  1.
    9900012    2    1    2    0    0 -0.35613897559E+01 -0.11181353159E+02  0.14593632104E+02  0.72461541353E+02  0.69999962299E+02 0.  0.
        -12    1    1    2    0    0  0.35613897559E+01  0.11181353159E+02 -0.14593632104E+02  0.18726458647E+02  0.00000000000E+00 0.  1.
         11    1    3    3    0    0 -0.19538415239E+02  0.48876245796E+01  0.28994782608E+02  0.35303483721E+02  0.51100000000E-03 0. -1.
        -11    1    3    3    0    0  0.15587609838E+00  0.55327063977E+01 -0.78282884465E+01  0.95873477930E+01  0.51100000000E-03 0.  1.
         12    1    3    3    0    0  0.15821149385E+02 -0.21601684137E+02 -0.65728620574E+01  0.27570709839E+02  0.00000000000E+00 0. -1.
</event>
<event>
 7    1  0.1826069E-013  0.7246161E+02  0.7816164E-02  0.1226708E+00
        -11   -1    0    0    0    0  0.00000000000E+00  0.00000000000E+00  0.45593999997E+02  0.45594000000E+02  0.51100000000E-03 0.  1.
         11   -1    0    0    0    0 -0.00000000000E+00 -0.00000000000E+00 -0.45593999997E+02  0.45594000000E+02  0.51100000000E-03 0. -1.
    9900012    2    1    2    0    0  0.18227150428E+01  0.14996039542E+02 -0.11066805816E+02  0.72461609984E+02  0.70000051703E+02 0.  0.
        -12    1    1    2    0    0 -0.18227150428E+01 -0.14996039542E+02  0.11066805816E+02  0.18726390016E+02  0.00000000000E+00 0.  1.
         11    1    3    3    0    0  0.14542502601E+02 -0.67671494220E+01  0.81128051044E+01  0.17974879697E+02  0.51100000000E-03 0.  1.
        -11    1    3    3    0    0  0.36463453242E+01  0.14518744399E+02 -0.30031751693E+02  0.33555862128E+02  0.51100000000E-03 0. -1.
        -12    1    3    3    0    0 -0.16366132882E+02  0.72444445643E+01  0.10852140773E+02  0.20930868159E+02  0.00000000000E+00 0.  1.
</event>
<event>
 7    1  0.1826069E-013  0.7246153E+02  0.7816164E-02  0.1226708E+00
        -11   -1    0    0    0    0  0.00000000000E+00  0.00000000000E+00  0.45593999997E+02  0.45594000000E+02  0.51100000000E-03 0.  1.
         11   -1    0    0    0    0 -0.00000000000E+00 -0.00000000000E+00 -0.45593999997E+02  0.45594000000E+02  0.51100000000E-03 0. -1.
    9900012    2    1    2    0    0  0.13598625047E+02  0.44115142623E+00 -0.12867146335E+02  0.72461530163E+02  0.69999947721E+02 0.  0.
        -12    1    1    2    0    0 -0.13598625047E+02 -0.44115142623E+00  0.12867146335E+02  0.18726469837E+02  0.00000000000E+00 0.  1.
         11    1    3    3    0    0  0.22479433589E+02 -0.12593846427E+02 -0.22045289936E+02  0.33910539820E+02  0.51100000000E-03 0. -1.
        -11    1    3    3    0    0 -0.18209150648E+02 -0.30868645576E+01  0.71897276134E+01  0.19819033365E+02  0.51100000000E-03 0.  1.
        -12    1    3    3    0    0  0.93283421067E+01  0.16121862411E+02  0.19884159869E+01  0.18731956977E+02  0.00000000000E+00 0.  1.
</event>
<event>
 7    1  0.1826069E-013  0.7246157E+02  0.7816164E-02  0.1226708E+00
        -11   -1    0    0    0    0  0.00000000000E+00  0.00000000000E+00  0.45593999997E+02  0.45594000000E+02  0.51100000000E-03 0. -1.
         11   -1    0    0    0    0 -0.00000000000E+00 -0.00000000000E+00 -0.45593999997E+02  0.45594000000E+02  0.51100000000E-03 0.  1.
    9900012    2    1    2    0    0 -0.12611681307E+02  0.12514097686E+02  0.59179377209E+01  0.72461571265E+02  0.70000001265E+02 0.  0.
        -12    1    1    2    0    0  0.12611681307E+02 -0.12514097686E+02 -0.59179377209E+01  0.18726428735E+02  0.00000000000E+00 0.  1.
         11    1    3    3    0    0 -0.12744655865E+02 -0.56078990156E+01  0.21166977590E+02  0.25336055830E+02  0.51100000000E-03 0.  1.
        -11    1    3    3    0    0 -0.94061519192E+01  0.28491296282E+02 -0.13591588101E+02  0.32938745045E+02  0.51100000000E-03 0. -1.
        -12    1    3    3    0    0  0.95391264773E+01 -0.10369299581E+02 -0.16574517679E+01  0.14186770390E+02  0.00000000000E+00 0.  1.
</event>
<event>
 8    1  0.1826069E-013  0.7246161E+02  0.7816164E-02  0.1226708E+00
        -11   -1    0    0    0    0  0.00000000000E+00  0.00000000000E+00  0.45593999997E+02  0.45594000000E+02  0.51100000000E-03 0.  1.
         11   -1    0    0    0    0 -0.00000000000E+00 -0.00000000000E+00 -0.45593999997E+02  0.45594000000E+02  0.51100000000E-03 0. -1.
    9900012    2    1    2    0    0  0.44518935174E+01 -0.12658016296E+02 -0.13062660271E+02  0.72461606172E+02  0.70000046737E+02 0.  0.
        -24    2    3    3    0    0  0.14085982723E+02 -0.12251358605E+02 -0.38854720875E+01  0.59149888457E+02  0.55991979017E+02 0.  0.
        -12    1    1    2    0    0 -0.44518935174E+01  0.12658016296E+02  0.13062660271E+02  0.18726393828E+02  0.00000000000E+00 0.  1.
         11    1    4    4    0    0  0.13114155951E+02  0.19941892388E+01  0.24226066557E+02  0.27619923572E+02  0.51100000000E-03 0.  1.
        -11    1    3    3    0    0 -0.96340892061E+01 -0.40665769145E+00 -0.91771881832E+01  0.13311717715E+02  0.51100000000E-03 0. -1.
        -12    1    4    4    0    0  0.97182677205E+00 -0.14245547844E+02 -0.28111538645E+02  0.31529964885E+02  0.00000000000E+00 0.  1.
</event>
<event>
 7    1  0.1826069E-013  0.7246152E+02  0.7816164E-02  0.1226708E+00
        -11   -1    0    0    0    0  0.00000000000E+00  0.00000000000E+00  0.45593999997E+02  0.45594000000E+02  0.51100000000E-03 0.  1.
         11   -1    0    0    0    0 -0.00000000000E+00 -0.00000000000E+00 -0.45593999997E+02  0.45594000000E+02  0.51100000000E-03 0. -1.
    9900012    2    1    2    0    0 -0.49360057589E+01 -0.26742033446E+01 -0.17865205193E+02  0.72461519472E+02  0.69999933794E+02 0.  0.
        -12    1    1    2    0    0  0.49360057589E+01  0.26742033446E+01  0.17865205193E+02  0.18726480528E+02  0.00000000000E+00 0.  1.
         11    1    3    3    0    0 -0.68094824998E+01  0.10721933839E+02  0.73961931465E+01  0.14698047165E+02  0.51100000000E-03 0. -1.
        -11    1    3    3    0    0 -0.11067484224E+02  0.45150617965E+01 -0.32405941122E+02  0.34540121748E+02  0.51100000000E-03 0.  1.
        -12    1    3    3    0    0  0.12940960965E+02 -0.17911198980E+02  0.71445427821E+01  0.23223350559E+02  0.00000000000E+00 0.  1.
</event>
<event>
 8    1  0.1826069E-013  0.7246152E+02  0.7816164E-02  0.1226708E+00
        -11   -1    0    0    0    0  0.00000000000E+00  0.00000000000E+00  0.45593999997E+02  0.45594000000E+02  0.51100000000E-03 0.  1.
         11   -1    0    0    0    0 -0.00000000000E+00 -0.00000000000E+00 -0.45593999997E+02  0.45594000000E+02  0.51100000000E-03 0. -1.
    9900012    2    1    2    0    0  0.13829612524E+00  0.16073776225E+02 -0.96070699053E+01  0.72461516077E+02  0.69999929371E+02 0.  0.
         24    2    3    3    0    0  0.28975372463E+01  0.56994769657E+01  0.44755444977E+01  0.54753904002E+02  0.54194831351E+02 0.  0.
        -12    1    1    2    0    0 -0.13829612524E+00 -0.16073776225E+02  0.96070699053E+01  0.18726483923E+02  0.00000000000E+00 0.  1.
         11    1    3    3    0    0 -0.27592411211E+01  0.10374299260E+02 -0.14082614403E+02  0.17707612075E+02  0.51100000000E-03 0. -1.
        -11    1    4    4    0    0  0.10232991561E+01 -0.23380849530E+02  0.93621392614E+01  0.25206366611E+02  0.51100000000E-03 0.  1.
         12    1    4    4    0    0  0.18742380902E+01  0.29080326496E+02 -0.48865947637E+01  0.29547537391E+02  0.00000000000E+00 0. -1.
</event>
<event>
 7    1  0.1826069E-013  0.7246155E+02  0.7816164E-02  0.1226708E+00
        -11   -1    0    0    0    0  0.00000000000E+00  0.00000000000E+00  0.45593999997E+02  0.45594000000E+02  0.51100000000E-03 0.  1.
         11   -1    0    0    0    0 -0.00000000000E+00 -0.00000000000E+00 -0.45593999997E+02  0.45594000000E+02  0.51100000000E-03 0. -1.
    9900012    2    1    2    0    0 -0.14630394785E+02 -0.84736092226E+01  0.80516764626E+01  0.72461548156E+02  0.69999971161E+02 0.  0.
        -12    1    1    2    0    0  0.14630394785E+02  0.84736092226E+01 -0.80516764626E+01  0.18726451844E+02  0.00000000000E+00 0.  1.
         11    1    3    3    0    0  0.10889504925E+02  0.23165905751E+02 -0.73810874716E+01  0.26640588569E+02  0.51100000000E-03 0.  1.
        -11    1    3    3    0    0 -0.15729176426E+02 -0.22607900555E+02  0.17067217456E+02  0.32400834411E+02  0.51100000000E-03 0. -1.
        -12    1    3    3    0    0 -0.97907232833E+01 -0.90316144186E+01 -0.16344535223E+01  0.13420125176E+02  0.00000000000E+00 0.  1.
</event>
<event>
 7    1  0.1826069E-013  0.7246157E+02  0.7816164E-02  0.1226708E+00
        -11   -1    0    0    0    0  0.00000000000E+00  0.00000000000E+00  0.45593999997E+02  0.45594000000E+02  0.51100000000E-03 0. -1.
         11   -1    0    0    0    0 -0.00000000000E+00 -0.00000000000E+00 -0.45593999997E+02  0.45594000000E+02  0.51100000000E-03 0.  1.
    9900012    2    1    2    0    0 -0.17232566227E+02 -0.32113840381E+00  0.73222137623E+01  0.72461567264E+02  0.69999996052E+02 0.  0.
        -12    1    1    2    0    0  0.17232566227E+02  0.32113840381E+00 -0.73222137623E+01  0.18726432736E+02  0.00000000000E+00 0.  1.
         11    1    3    3    0    0 -0.22176582906E+01 -0.19258285904E+02  0.39506824484E+00  0.19389576154E+02  0.51100000000E-03 0. -1.
        -11    1    3    3    0    0 -0.24575787453E+02  0.28973531024E+02  0.10252098423E+01  0.38006392679E+02  0.51100000000E-03 0.  1.
        -12    1    3    3    0    0  0.95608795164E+01 -0.10036383524E+02  0.59019356752E+01  0.15065598431E+02  0.00000000000E+00 0.  1.
</event>
<event>
 7    1  0.1826069E-013  0.7246155E+02  0.7816164E-02  0.1226708E+00
        -11   -1    0    0    0    0  0.00000000000E+00  0.00000000000E+00  0.45593999997E+02  0.45594000000E+02  0.51100000000E-03 0. -1.
         11   -1    0    0    0    0 -0.00000000000E+00 -0.00000000000E+00 -0.45593999997E+02  0.45594000000E+02  0.51100000000E-03 0.  1.
    9900012    2    1    2    0    0  0.89734113567E+01 -0.83691661370E+01  0.14146195685E+02  0.72461550642E+02  0.69999974399E+02 0.  0.
        -12    1    1    2    0    0 -0.89734113567E+01  0.83691661370E+01 -0.14146195685E+02  0.18726449358E+02  0.00000000000E+00 0.  1.
         11    1    3    3    0    0 -0.24132603514E+02  0.12316365348E+02  0.13156591080E+02  0.30119284468E+02  0.51100000000E-03 0. -1.
        -11    1    3    3    0    0  0.22890519610E+02 -0.16504026836E+02 -0.65561681080E+01  0.28971401939E+02  0.51100000000E-03 0.  1.
         12    1    3    3    0    0  0.10215495261E+02 -0.41815046487E+01  0.75457727126E+01  0.13370864235E+02  0.00000000000E+00 0. -1.
</event>
<event>
 7    1  0.1826069E-013  0.7246158E+02  0.7816164E-02  0.1226708E+00
        -11   -1    0    0    0    0  0.00000000000E+00  0.00000000000E+00  0.45593999997E+02  0.45594000000E+02  0.51100000000E-03 0. -1.
         11   -1    0    0    0    0 -0.00000000000E+00 -0.00000000000E+00 -0.45593999997E+02  0.45594000000E+02  0.51100000000E-03 0.  1.
    9900012    2    1    2    0    0  0.34923702550E+01  0.18077660756E+02  0.34176319843E+01  0.72461583450E+02  0.70000017138E+02 0.  0.
        -12    1    1    2    0    0 -0.34923702550E+01 -0.18077660756E+02 -0.34176319843E+01  0.18726416550E+02  0.00000000000E+00 0.  1.
         11    1    3    3    0    0  0.15964097857E+02  0.17308477101E+02 -0.16817187392E+01  0.23606439336E+02  0.51100000000E-03 0. -1.
        -11    1    3    3    0    0 -0.16938912018E+02 -0.17443151307E+02 -0.84272595293E+01  0.25733421291E+02  0.51100000000E-03 0.  1.
        -12    1    3    3    0    0  0.44671844163E+01  0.18212334963E+02  0.13526610253E+02  0.23121722824E+02  0.00000000000E+00 0.  1.
</event>
<event>
 7    1  0.1826069E-013  0.7246158E+02  0.7816164E-02  0.1226708E+00
        -11   -1    0    0    0    0  0.00000000000E+00  0.00000000000E+00  0.45593999997E+02  0.45594000000E+02  0.51100000000E-03 0.  1.
         11   -1    0    0    0    0 -0.00000000000E+00 -0.00000000000E+00 -0.45593999997E+02  0.45594000000E+02  0.51100000000E-03 0. -1.
    9900012    2    1    2    0    0 -0.67794868241E+01  0.14804040252E+02 -0.92497461914E+01  0.72461578719E+02  0.70000010975E+02 0.  0.
        -12    1    1    2    0    0  0.67794868241E+01 -0.14804040252E+02  0.92497461914E+01  0.18726421281E+02  0.00000000000E+00 0.  1.
         11    1    3    3    0    0  0.86221970213E+01 -0.10466043762E+02  0.92580486497E+01  0.16419251462E+02  0.51100000000E-03 0. -1.
        -11    1    3    3    0    0 -0.29361960658E+02  0.14470855134E+02 -0.35858543717E+01  0.32930058211E+02  0.51100000000E-03 0.  1.
         12    1    3    3    0    0  0.13960276812E+02  0.10799228881E+02 -0.14921940469E+02  0.23112269046E+02  0.00000000000E+00 0. -1.
</event>
<event>
 7    1  0.1826069E-013  0.7246152E+02  0.7816164E-02  0.1226708E+00
        -11   -1    0    0    0    0  0.00000000000E+00  0.00000000000E+00  0.45593999997E+02  0.45594000000E+02  0.51100000000E-03 0. -1.
         11   -1    0    0    0    0 -0.00000000000E+00 -0.00000000000E+00 -0.45593999997E+02  0.45594000000E+02  0.51100000000E-03 0.  1.
    9900012    2    1    2    0    0 -0.11229943903E+02 -0.11536522228E+02  0.95644239070E+01  0.72461516351E+02  0.69999929729E+02 0.  0.
        -12    1    1    2    0    0  0.11229943903E+02  0.11536522228E+02 -0.95644239070E+01  0.18726483649E+02  0.00000000000E+00 0.  1.
         11    1    3    3    0    0 -0.58949128297E+00  0.18739413555E+01  0.24728512401E+01  0.31581877230E+01  0.51100000000E-03 0. -1.
        -11    1    3    3    0    0 -0.78999156870E+01 -0.40624984521E+02  0.16739930271E+01  0.41419805506E+02  0.51100000000E-03 0.  1.
        -12    1    3    3    0    0 -0.27405369327E+01  0.27214520938E+02  0.54175796398E+01  0.27883523123E+02  0.00000000000E+00 0.  1.
</event>
<event>
 7    1  0.1826069E-013  0.7246159E+02  0.7816164E-02  0.1226708E+00
        -11   -1    0    0    0    0  0.00000000000E+00  0.00000000000E+00  0.45593999997E+02  0.45594000000E+02  0.51100000000E-03 0. -1.
         11   -1    0    0    0    0 -0.00000000000E+00 -0.00000000000E+00 -0.45593999997E+02  0.45594000000E+02  0.51100000000E-03 0.  1.
    9900012    2    1    2    0    0 -0.18072158491E+02  0.36151899434E+01  0.33175444432E+01  0.72461585181E+02  0.70000019392E+02 0.  0.
        -12    1    1    2    0    0  0.18072158491E+02 -0.36151899434E+01 -0.33175444432E+01  0.18726414819E+02  0.00000000000E+00 0.  1.
         11    1    3    3    0    0 -0.21238544592E+02 -0.35987049414E+01  0.24321710850E+02  0.32489568673E+02  0.51100000000E-03 0. -1.
        -11    1    3    3    0    0  0.11895796215E+02 -0.67575060635E+01 -0.18946485971E+02  0.23369706603E+02  0.51100000000E-03 0.  1.
        -12    1    3    3    0    0 -0.87294101141E+01  0.13971400948E+02 -0.20576804356E+01  0.16602309905E+02  0.00000000000E+00 0.  1.
</event>
<event>
 7    1  0.1826069E-013  0.7246155E+02  0.7816164E-02  0.1226708E+00
        -11   -1    0    0    0    0  0.00000000000E+00  0.00000000000E+00  0.45593999997E+02  0.45594000000E+02  0.51100000000E-03 0.  1.
         11   -1    0    0    0    0 -0.00000000000E+00 -0.00000000000E+00 -0.45593999997E+02  0.45594000000E+02  0.51100000000E-03 0. -1.
    9900012    2    1    2    0    0  0.64264088380E+01 -0.17562514451E+02 -0.96909012550E+00  0.72461553993E+02  0.69999978765E+02 0.  0.
        -12    1    1    2    0    0 -0.64264088380E+01  0.17562514451E+02  0.96909012550E+00  0.18726446007E+02  0.00000000000E+00 0.  1.
         11    1    3    3    0    0  0.17895175946E+02  0.55890239174E-01 -0.54170533517E+01  0.18697189980E+02  0.51100000000E-03 0. -1.
        -11    1    3    3    0    0 -0.28089250157E+02 -0.22006166364E+02 -0.11040761770E+01  0.35700088472E+02  0.51100000000E-03 0.  1.
        -12    1    3    3    0    0  0.16620483049E+02  0.43877616746E+01  0.55520394032E+01  0.18064275541E+02  0.00000000000E+00 0.  1.
</event>
<event>
 7    1  0.1826069E-013  0.7246151E+02  0.7816164E-02  0.1226708E+00
        -11   -1    0    0    0    0  0.00000000000E+00  0.00000000000E+00  0.45593999997E+02  0.45594000000E+02  0.51100000000E-03 0. -1.
         11   -1    0    0    0    0 -0.00000000000E+00 -0.00000000000E+00 -0.45593999997E+02  0.45594000000E+02  0.51100000000E-03 0.  1.
    9900012    2    1    2    0    0  0.17051259643E+01 -0.71991022927E+01  0.17203107005E+02  0.72461510233E+02  0.69999921759E+02 0.  0.
        -12    1    1    2    0    0 -0.17051259643E+01  0.71991022927E+01 -0.17203107005E+02  0.18726489767E+02  0.00000000000E+00 0.  1.
         11    1    3    3    0    0 -0.14374855998E+02  0.14406238914E+02  0.14370765964E+02  0.24913753617E+02  0.51100000000E-03 0. -1.
        -11    1    3    3    0    0  0.39995873341E+01 -0.13386370844E+02 -0.17573407580E+02  0.22450306845E+02  0.51100000000E-03 0.  1.
         12    1    3    3    0    0  0.12080394629E+02 -0.82189703631E+01  0.20405748621E+02  0.25097449770E+02  0.00000000000E+00 0. -1.
</event>
<event>
 8    1  0.1826069E-013  0.7246158E+02  0.7816164E-02  0.1226708E+00
        -11   -1    0    0    0    0  0.00000000000E+00  0.00000000000E+00  0.45593999997E+02  0.45594000000E+02  0.51100000000E-03 0.  1.
         11   -1    0    0    0    0 -0.00000000000E+00 -0.00000000000E+00 -0.45593999997E+02  0.45594000000E+02  0.51100000000E-03 0. -1.
    9900012    2    1    2    0    0  0.99765755101E+01  0.67807505037E+01 -0.14323697955E+02  0.72461575904E+02  0.70000007308E+02 0.  0.
        -24    2    3    3    0    0  0.10593055488E+02 -0.27114292597E+01  0.44542164978E+01  0.51411834916E+02  0.50037706298E+02 0.  0.
        -12    1    1    2    0    0 -0.99765755101E+01 -0.67807505037E+01  0.14323697955E+02  0.18726424096E+02  0.00000000000E+00 0.  1.
         11    1    4    4    0    0  0.30813637162E+02 -0.11784397978E+01  0.10850444490E+01  0.30855247159E+02  0.51100000000E-03 0. -1.
        -11    1    3    3    0    0 -0.61647997784E+00  0.94921797634E+01 -0.18777914453E+02  0.21049740989E+02  0.51100000000E-03 0.  1.
        -12    1    4    4    0    0 -0.20220581674E+02 -0.15329894619E+01  0.33691720488E+01  0.20556587757E+02  0.00000000000E+00 0.  1.
</event>
<event>
 7    1  0.1826069E-013  0.7246160E+02  0.7816164E-02  0.1226708E+00
        -11   -1    0    0    0    0  0.00000000000E+00  0.00000000000E+00  0.45593999997E+02  0.45594000000E+02  0.51100000000E-03 0. -1.
         11   -1    0    0    0    0 -0.00000000000E+00 -0.00000000000E+00 -0.45593999997E+02  0.45594000000E+02  0.51100000000E-03 0.  1.
    9900012    2    1    2    0    0  0.23078080128E+01 -0.14966516883E+02  0.11016148683E+02  0.72461597857E+02  0.70000035905E+02 0.  0.
        -12    1    1    2    0    0 -0.23078080128E+01  0.14966516883E+02 -0.11016148683E+02  0.18726402143E+02  0.00000000000E+00 0.  1.
         11    1    3    3    0    0  0.92678671879E+01 -0.17523932263E+02  0.25644480625E+02  0.32413283557E+02  0.51100000000E-03 0. -1.
        -11    1    3    3    0    0  0.60944725999E+01 -0.44498783838E+01 -0.22172834327E+02  0.23421754764E+02  0.51100000000E-03 0.  1.
         12    1    3    3    0    0 -0.13054531775E+02  0.70072937637E+01  0.75445023841E+01  0.16626559535E+02  0.00000000000E+00 0. -1.
</event>
<event>
 7    1  0.1826069E-013  0.7246157E+02  0.7816164E-02  0.1226708E+00
        -11   -1    0    0    0    0  0.00000000000E+00  0.00000000000E+00  0.45593999997E+02  0.45594000000E+02  0.51100000000E-03 0.  1.
         11   -1    0    0    0    0 -0.00000000000E+00 -0.00000000000E+00 -0.45593999997E+02  0.45594000000E+02  0.51100000000E-03 0. -1.
    9900012    2    1    2    0    0 -0.14571099389E+02 -0.10098053057E+02  0.60325304746E+01  0.72461573836E+02  0.70000004614E+02 0.  0.
        -12    1    1    2    0    0  0.14571099389E+02  0.10098053057E+02 -0.60325304746E+01  0.18726426164E+02  0.00000000000E+00 0.  1.
         11    1    3    3    0    0 -0.25223448187E+02  0.92985684703E+01 -0.15369753496E+02  0.30966353302E+02  0.51100000000E-03 0. -1.
        -11    1    3    3    0    0 -0.55681166603E+01 -0.15417714425E+02  0.18192361495E+02  0.24488198346E+02  0.51100000000E-03 0.  1.
         12    1    3    3    0    0  0.16220465458E+02 -0.39789071023E+01  0.32099224756E+01  0.17007022188E+02  0.00000000000E+00 0. -1.
</event>
<event>
 7    1  0.1826069E-013  0.7246165E+02  0.7816164E-02  0.1226708E+00
        -11   -1    0    0    0    0  0.00000000000E+00  0.00000000000E+00  0.45593999997E+02  0.45594000000E+02  0.51100000000E-03 0.  1.
         11   -1    0    0    0    0 -0.00000000000E+00 -0.00000000000E+00 -0.45593999997E+02  0.45594000000E+02  0.51100000000E-03 0. -1.
    9900012    2    1    2    0    0  0.10538411084E+02 -0.10229466880E+02 -0.11617918265E+02  0.72461651567E+02  0.70000105873E+02 0.  0.
        -12    1    1    2    0    0 -0.10538411084E+02  0.10229466880E+02  0.11617918265E+02  0.18726348433E+02  0.00000000000E+00 0.  1.
         11    1    3    3    0    0  0.23531066343E+02 -0.12581527727E+02  0.86821885649E+00  0.26697560327E+02  0.51100000000E-03 0. -1.
        -11    1    3    3    0    0 -0.15908884049E+02  0.20166586343E+02 -0.99004045037E+01  0.27528200196E+02  0.51100000000E-03 0.  1.
        -12    1    3    3    0    0  0.29162287902E+01 -0.17814525496E+02 -0.25857326182E+01  0.18235891045E+02  0.00000000000E+00 0.  1.
</event>
<event>
 7    1  0.1826069E-013  0.7246213E+02  0.7816164E-02  0.1226707E+00
        -11   -1    0    0    0    0  0.00000000000E+00  0.00000000000E+00  0.45593999997E+02  0.45594000000E+02  0.51100000000E-03 0. -1.
         11   -1    0    0    0    0 -0.00000000000E+00 -0.00000000000E+00 -0.45593999997E+02  0.45594000000E+02  0.51100000000E-03 0.  1.
    9900012    2    1    2    0    0 -0.12700485247E+02  0.13723625677E+02 -0.10090387010E+01  0.72462125219E+02  0.70000722888E+02 0.  0.
        -12    1    1    2    0    0  0.12700485247E+02 -0.13723625677E+02  0.10090387010E+01  0.18725874781E+02  0.00000000000E+00 0.  1.
         11    1    3    3    0    0  0.15133882261E+02 -0.23940246745E+01 -0.19820540123E+02  0.25052336367E+02  0.51100000000E-03 0.  1.
        -11    1    3    3    0    0 -0.60846518069E+01  0.20454300888E+02  0.92425640215E+01  0.23255674628E+02  0.51100000000E-03 0. -1.
         12    1    3    3    0    0 -0.21749715702E+02 -0.43366505369E+01  0.95689374001E+01  0.24154114224E+02  0.00000000000E+00 0. -1.
</event>
<event>
 7    1  0.1826069E-013  0.7246169E+02  0.7816164E-02  0.1226708E+00
        -11   -1    0    0    0    0  0.00000000000E+00  0.00000000000E+00  0.45593999997E+02  0.45594000000E+02  0.51100000000E-03 0. -1.
         11   -1    0    0    0    0 -0.00000000000E+00 -0.00000000000E+00 -0.45593999997E+02  0.45594000000E+02  0.51100000000E-03 0.  1.
    9900012    2    1    2    0    0  0.76757736501E+01 -0.62688066818E+01  0.15888970204E+02  0.72461686629E+02  0.70000151547E+02 0.  0.
        -12    1    1    2    0    0 -0.76757736501E+01  0.62688066818E+01 -0.15888970204E+02  0.18726313371E+02  0.00000000000E+00 0.  1.
         11    1    3    3    0    0  0.22135831133E+02  0.20353620318E+02  0.14556229375E+02  0.33408811621E+02  0.51100000000E-03 0. -1.
        -11    1    3    3    0    0 -0.18385421523E+02 -0.96956998073E+01 -0.33582294981E+01  0.21054881262E+02  0.51100000000E-03 0.  1.
         12    1    3    3    0    0  0.39253640395E+01 -0.16926727193E+02  0.46909703264E+01  0.17997993747E+02  0.00000000000E+00 0. -1.
</event>
<event>
 7    1  0.1826069E-013  0.7246154E+02  0.7816164E-02  0.1226708E+00
        -11   -1    0    0    0    0  0.00000000000E+00  0.00000000000E+00  0.45593999997E+02  0.45594000000E+02  0.51100000000E-03 0.  1.
         11   -1    0    0    0    0 -0.00000000000E+00 -0.00000000000E+00 -0.45593999997E+02  0.45594000000E+02  0.51100000000E-03 0. -1.
    9900012    2    1    2    0    0 -0.16458433157E+02  0.47539244192E+01 -0.75631040727E+01  0.72461538439E+02  0.69999958503E+02 0.  0.
        -12    1    1    2    0    0  0.16458433157E+02 -0.47539244192E+01  0.75631040727E+01  0.18726461561E+02  0.00000000000E+00 0.  1.
         11    1    3    3    0    0  0.45517739332E+01 -0.11450880658E+02 -0.21929188829E+02  0.25154137567E+02  0.51100000000E-03 0. -1.
        -11    1    3    3    0    0  0.71067607261E+01  0.14705403764E+02  0.89848227073E+01  0.18640868736E+02  0.51100000000E-03 0.  1.
        -12    1    3    3    0    0 -0.28116967817E+02  0.14994013128E+01  0.53812620488E+01  0.28666532137E+02  0.00000000000E+00 0.  1.
</event>
<event>
 7    1  0.1826069E-013  0.7246168E+02  0.7816164E-02  0.1226708E+00
        -11   -1    0    0    0    0  0.00000000000E+00  0.00000000000E+00  0.45593999997E+02  0.45594000000E+02  0.51100000000E-03 0. -1.
         11   -1    0    0    0    0 -0.00000000000E+00 -0.00000000000E+00 -0.45593999997E+02  0.45594000000E+02  0.51100000000E-03 0.  1.
    9900012    2    1    2    0    0  0.21292509731E+01  0.10926145295E+02  0.15058577206E+02  0.72461678733E+02  0.70000141262E+02 0.  0.
        -12    1    1    2    0    0 -0.21292509731E+01 -0.10926145295E+02 -0.15058577206E+02  0.18726321267E+02  0.00000000000E+00 0.  1.
         11    1    3    3    0    0  0.17433841784E+02  0.15507041104E+02  0.10977299417E+02  0.25785815208E+02  0.51100000000E-03 0. -1.
        -11    1    3    3    0    0 -0.18250607948E+02 -0.69176195249E+01 -0.16620408920E+02  0.25635447007E+02  0.51100000000E-03 0.  1.
        -12    1    3    3    0    0  0.29460171361E+01  0.23367237165E+01  0.20701686708E+02  0.21040416518E+02  0.00000000000E+00 0.  1.
</event>
<event>
 7    1  0.1826069E-013  0.7246081E+02  0.7816164E-02  0.1226710E+00
        -11   -1    0    0    0    0  0.00000000000E+00  0.00000000000E+00  0.45593999997E+02  0.45594000000E+02  0.51100000000E-03 0.  1.
         11   -1    0    0    0    0 -0.00000000000E+00 -0.00000000000E+00 -0.45593999997E+02  0.45594000000E+02  0.51100000000E-03 0. -1.
    9900012    2    1    2    0    0 -0.93673138612E+01  0.14423199155E+02 -0.74116472799E+01  0.72460806985E+02  0.69999005641E+02 0.  0.
        -12    1    1    2    0    0  0.93673138612E+01 -0.14423199155E+02  0.74116472799E+01  0.18727193015E+02  0.00000000000E+00 0.  1.
         11    1    3    3    0    0 -0.11601025179E+02  0.22088516024E+02  0.22120603459E+02  0.33343776376E+02  0.51100000000E-03 0. -1.
        -11    1    3    3    0    0 -0.77512266990E+01 -0.12380052081E+02 -0.16532367124E+02  0.22060516038E+02  0.51100000000E-03 0.  1.
         12    1    3    3    0    0  0.99849380173E+01  0.47147352122E+01 -0.12999883615E+02  0.17056514571E+02  0.00000000000E+00 0. -1.
</event>
<event>
 7    1  0.1826069E-013  0.7246181E+02  0.7816164E-02  0.1226707E+00
        -11   -1    0    0    0    0  0.00000000000E+00  0.00000000000E+00  0.45593999997E+02  0.45594000000E+02  0.51100000000E-03 0.  1.
         11   -1    0    0    0    0 -0.00000000000E+00 -0.00000000000E+00 -0.45593999997E+02  0.45594000000E+02  0.51100000000E-03 0. -1.
    9900012    2    1    2    0    0  0.13343732812E+02  0.11223842044E+02 -0.68293724939E+01  0.72461810739E+02  0.70000313223E+02 0.  0.
        -12    1    1    2    0    0 -0.13343732812E+02 -0.11223842044E+02  0.68293724939E+01  0.18726189261E+02  0.00000000000E+00 0.  1.
         11    1    3    3    0    0 -0.11772120543E+02  0.66772485869E+01 -0.14494644594E+02  0.19830864654E+02  0.51100000000E-03 0. -1.
        -11    1    3    3    0    0  0.37838869249E+02  0.80295412998E+01  0.76968890085E+01  0.39439772568E+02  0.51100000000E-03 0.  1.
        -12    1    3    3    0    0 -0.12723015894E+02 -0.34829478432E+01 -0.31616908006E-01  0.13191173517E+02  0.00000000000E+00 0.  1.
</event>
<event>
 7    1  0.1826069E-013  0.7246153E+02  0.7816164E-02  0.1226708E+00
        -11   -1    0    0    0    0  0.00000000000E+00  0.00000000000E+00  0.45593999997E+02  0.45594000000E+02  0.51100000000E-03 0.  1.
         11   -1    0    0    0    0 -0.00000000000E+00 -0.00000000000E+00 -0.45593999997E+02  0.45594000000E+02  0.51100000000E-03 0. -1.
    9900012    2    1    2    0    0  0.16998129091E+02  0.23903662725E+01  0.74853527166E+01  0.72461528127E+02  0.69999945069E+02 0.  0.
        -12    1    1    2    0    0 -0.16998129091E+02 -0.23903662725E+01 -0.74853527166E+01  0.18726471873E+02  0.00000000000E+00 0.  1.
         11    1    3    3    0    0  0.20619574158E+02  0.24535422842E+02  0.92692870024E+01  0.33362756096E+02  0.51100000000E-03 0. -1.
        -11    1    3    3    0    0 -0.11852712328E+02 -0.17255559758E+02  0.10584447784E+02  0.23457870049E+02  0.51100000000E-03 0.  1.
         12    1    3    3    0    0  0.82312672610E+01 -0.48894968113E+01 -0.12368382070E+02  0.15640901982E+02  0.00000000000E+00 0. -1.
</event>
<event>
 7    1  0.1826069E-013  0.7246154E+02  0.7816164E-02  0.1226708E+00
        -11   -1    0    0    0    0  0.00000000000E+00  0.00000000000E+00  0.45593999997E+02  0.45594000000E+02  0.51100000000E-03 0.  1.
         11   -1    0    0    0    0 -0.00000000000E+00 -0.00000000000E+00 -0.45593999997E+02  0.45594000000E+02  0.51100000000E-03 0. -1.
    9900012    2    1    2    0    0  0.45957124711E+01 -0.15436656879E+02  0.95535006697E+01  0.72461539476E+02  0.69999959854E+02 0.  0.
        -12    1    1    2    0    0 -0.45957124711E+01  0.15436656879E+02 -0.95535006697E+01  0.18726460524E+02  0.00000000000E+00 0.  1.
         11    1    3    3    0    0 -0.33589712331E+01 -0.27327072612E+02  0.65249133250E+00  0.27540467144E+02  0.51100000000E-03 0.  1.
        -11    1    3    3    0    0  0.19673996589E+00  0.13095235037E+02 -0.14912319889E+02  0.19846943645E+02  0.51100000000E-03 0. -1.
        -12    1    3    3    0    0  0.77579437383E+01 -0.12048193038E+01  0.23813329226E+02  0.25074128687E+02  0.00000000000E+00 0.  1.
</event>
<event>
 7    1  0.1826069E-013  0.7246158E+02  0.7816164E-02  0.1226708E+00
        -11   -1    0    0    0    0  0.00000000000E+00  0.00000000000E+00  0.45593999997E+02  0.45594000000E+02  0.51100000000E-03 0.  1.
         11   -1    0    0    0    0 -0.00000000000E+00 -0.00000000000E+00 -0.45593999997E+02  0.45594000000E+02  0.51100000000E-03 0. -1.
    9900012    2    1    2    0    0  0.12302746325E+02 -0.11111938742E+02  0.87089651913E+01  0.72461579508E+02  0.70000012002E+02 0.  0.
        -12    1    1    2    0    0 -0.12302746325E+02  0.11111938742E+02 -0.87089651913E+01  0.18726420492E+02  0.00000000000E+00 0.  1.
         11    1    3    3    0    0 -0.43046191176E+01 -0.25362447036E+02 -0.12098670548E+02  0.28428177829E+02  0.51100000000E-03 0. -1.
        -11    1    3    3    0    0  0.10080663268E+02 -0.61648113404E+01  0.19193876232E+02  0.22539510994E+02  0.51100000000E-03 0.  1.
         12    1    3    3    0    0  0.65267021744E+01  0.20415319634E+02  0.16137595076E+01  0.21493890685E+02  0.00000000000E+00 0. -1.
</event>
<event>
 7    1  0.1826069E-013  0.7246159E+02  0.7816164E-02  0.1226708E+00
        -11   -1    0    0    0    0  0.00000000000E+00  0.00000000000E+00  0.45593999997E+02  0.45594000000E+02  0.51100000000E-03 0.  1.
         11   -1    0    0    0    0 -0.00000000000E+00 -0.00000000000E+00 -0.45593999997E+02  0.45594000000E+02  0.51100000000E-03 0. -1.
    9900012    2    1    2    0    0  0.78003317360E+01 -0.18943271699E+01 -0.16918769523E+02  0.72461590499E+02  0.70000026321E+02 0.  0.
        -12    1    1    2    0    0 -0.78003317360E+01  0.18943271699E+01  0.16918769523E+02  0.18726409501E+02  0.00000000000E+00 0.  1.
         11    1    3    3    0    0 -0.25129009505E+02  0.68611057542E+01 -0.13365109766E+02  0.29277432439E+02  0.51100000000E-03 0. -1.
        -11    1    3    3    0    0  0.15395582771E+02 -0.14503261672E+02  0.65565964302E+01  0.22144017815E+02  0.51100000000E-03 0.  1.
        -12    1    3    3    0    0  0.17533758470E+02  0.57478287475E+01 -0.10110256187E+02  0.21040140246E+02  0.00000000000E+00 0.  1.
</event>
<event>
 7    1  0.1826069E-013  0.7246161E+02  0.7816164E-02  0.1226708E+00
        -11   -1    0    0    0    0  0.00000000000E+00  0.00000000000E+00  0.45593999997E+02  0.45594000000E+02  0.51100000000E-03 0.  1.
         11   -1    0    0    0    0 -0.00000000000E+00 -0.00000000000E+00 -0.45593999997E+02  0.45594000000E+02  0.51100000000E-03 0. -1.
    9900012    2    1    2    0    0 -0.11826942619E+02 -0.11245088522E+02 -0.91841668516E+01  0.72461614648E+02  0.70000057779E+02 0.  0.
        -12    1    1    2    0    0  0.11826942619E+02  0.11245088522E+02  0.91841668516E+01  0.18726385352E+02  0.00000000000E+00 0.  1.
         11    1    3    3    0    0 -0.10186386035E+02  0.23551964370E+02  0.84289912893E+01  0.27009357278E+02  0.51100000000E-03 0.  1.
        -11    1    3    3    0    0 -0.91934864248E+01 -0.28160294378E+02 -0.62421178283E+01  0.30273526510E+02  0.51100000000E-03 0. -1.
        -12    1    3    3    0    0  0.75529298402E+01 -0.66367585139E+01 -0.11371040313E+02  0.15178730861E+02  0.00000000000E+00 0.  1.
</event>
<event>
 7    1  0.1826069E-013  0.7246163E+02  0.7816164E-02  0.1226708E+00
        -11   -1    0    0    0    0  0.00000000000E+00  0.00000000000E+00  0.45593999997E+02  0.45594000000E+02  0.51100000000E-03 0. -1.
         11   -1    0    0    0    0 -0.00000000000E+00 -0.00000000000E+00 -0.45593999997E+02  0.45594000000E+02  0.51100000000E-03 0.  1.
    9900012    2    1    2    0    0  0.11435333545E+02  0.12218073060E+02  0.84040954743E+01  0.72461628666E+02  0.70000076040E+02 0.  0.
        -12    1    1    2    0    0 -0.11435333545E+02 -0.12218073060E+02 -0.84040954743E+01  0.18726371334E+02  0.00000000000E+00 0.  1.
         11    1    3    3    0    0 -0.57526840957E+01  0.19214451187E+01  0.24774842139E+02  0.25506433089E+02  0.51100000000E-03 0. -1.
        -11    1    3    3    0    0  0.38898855918E+01 -0.24418923188E+01 -0.25842269345E+02  0.26247227152E+02  0.51100000000E-03 0.  1.
         12    1    3    3    0    0  0.13298132049E+02  0.12738520261E+02  0.94715226801E+01  0.20707968425E+02  0.00000000000E+00 0. -1.
</event>
<event>
 7    1  0.1826069E-013  0.7246158E+02  0.7816164E-02  0.1226708E+00
        -11   -1    0    0    0    0  0.00000000000E+00  0.00000000000E+00  0.45593999997E+02  0.45594000000E+02  0.51100000000E-03 0. -1.
         11   -1    0    0    0    0 -0.00000000000E+00 -0.00000000000E+00 -0.45593999997E+02  0.45594000000E+02  0.51100000000E-03 0.  1.
    9900012    2    1    2    0    0 -0.15406734184E+02 -0.86607136806E+01  0.61889657669E+01  0.72461582378E+02  0.70000015742E+02 0.  0.
        -12    1    1    2    0    0  0.15406734184E+02  0.86607136806E+01 -0.61889657669E+01  0.18726417622E+02  0.00000000000E+00 0.  1.
         11    1    3    3    0    0  0.47590759323E+01 -0.11386231941E+02  0.24145185241E+02  0.27116140066E+02  0.51100000000E-03 0. -1.
        -11    1    3    3    0    0 -0.23011106267E+02 -0.11465883828E+02 -0.55944360067E+01  0.26311123467E+02  0.51100000000E-03 0.  1.
        -12    1    3    3    0    0  0.28452961509E+01  0.14191402088E+02 -0.12361783467E+02  0.19034318845E+02  0.00000000000E+00 0.  1.
</event>
<event>
 7    1  0.1826069E-013  0.7246157E+02  0.7816164E-02  0.1226708E+00
        -11   -1    0    0    0    0  0.00000000000E+00  0.00000000000E+00  0.45593999997E+02  0.45594000000E+02  0.51100000000E-03 0.  1.
         11   -1    0    0    0    0 -0.00000000000E+00 -0.00000000000E+00 -0.45593999997E+02  0.45594000000E+02  0.51100000000E-03 0. -1.
    9900012    2    1    2    0    0 -0.14035364028E+02 -0.11039126205E+02 -0.56414195506E+01  0.72461565067E+02  0.69999993190E+02 0.  0.
        -12    1    1    2    0    0  0.14035364028E+02  0.11039126205E+02  0.56414195506E+01  0.18726434933E+02  0.00000000000E+00 0.  1.
         11    1    3    3    0    0 -0.46399684976E+01 -0.22262102494E+02  0.25664282262E+02  0.34289734607E+02  0.51100000000E-03 0. -1.
        -11    1    3    3    0    0  0.35888661792E+01  0.72143953267E+01 -0.92651319715E+01  0.12278848932E+02  0.51100000000E-03 0.  1.
         12    1    3    3    0    0 -0.12984261710E+02  0.40085809627E+01 -0.22040569841E+02  0.25892981528E+02  0.00000000000E+00 0. -1.
</event>
<event>
 7    1  0.1826069E-013  0.7246157E+02  0.7816164E-02  0.1226708E+00
        -11   -1    0    0    0    0  0.00000000000E+00  0.00000000000E+00  0.45593999997E+02  0.45594000000E+02  0.51100000000E-03 0. -1.
         11   -1    0    0    0    0 -0.00000000000E+00 -0.00000000000E+00 -0.45593999997E+02  0.45594000000E+02  0.51100000000E-03 0.  1.
    9900012    2    1    2    0    0 -0.12040790633E+01 -0.14052232680E+02 -0.12319257490E+02  0.72461570688E+02  0.70000000513E+02 0.  0.
        -12    1    1    2    0    0  0.12040790633E+01  0.14052232680E+02  0.12319257490E+02  0.18726429312E+02  0.00000000000E+00 0.  1.
         11    1    3    3    0    0  0.25147698468E+02 -0.17298317893E+02  0.18866682918E+01  0.30581008121E+02  0.51100000000E-03 0.  1.
        -11    1    3    3    0    0 -0.25334297770E+02 -0.34081415559E+01  0.64988920096E+00  0.25570772937E+02  0.51100000000E-03 0. -1.
        -12    1    3    3    0    0 -0.10174797616E+01  0.66542267694E+01 -0.14855814983E+02  0.16309789630E+02  0.00000000000E+00 0.  1.
</event>
<event>
 7    1  0.1826069E-013  0.7246164E+02  0.7816164E-02  0.1226708E+00
        -11   -1    0    0    0    0  0.00000000000E+00  0.00000000000E+00  0.45593999997E+02  0.45594000000E+02  0.51100000000E-03 0.  1.
         11   -1    0    0    0    0 -0.00000000000E+00 -0.00000000000E+00 -0.45593999997E+02  0.45594000000E+02  0.51100000000E-03 0. -1.
    9900012    2    1    2    0    0 -0.68229358675E+01 -0.19316189156E+01 -0.17331853253E+02  0.72461635092E+02  0.70000084411E+02 0.  0.
        -12    1    1    2    0    0  0.68229358675E+01  0.19316189156E+01  0.17331853253E+02  0.18726364908E+02  0.00000000000E+00 0.  1.
         11    1    3    3    0    0  0.42608434889E+01 -0.27676761818E+02 -0.12261554702E+02  0.30569652533E+02  0.51100000000E-03 0. -1.
        -11    1    3    3    0    0  0.95935238046E+01  0.16155441536E+02 -0.24946773954E+01  0.18954086783E+02  0.51100000000E-03 0.  1.
         12    1    3    3    0    0 -0.20677303161E+02  0.95897013670E+01 -0.25756211554E+01  0.22937895777E+02  0.00000000000E+00 0. -1.
</event>
<event>
 7    1  0.1826069E-013  0.7246159E+02  0.7816164E-02  0.1226708E+00
        -11   -1    0    0    0    0  0.00000000000E+00  0.00000000000E+00  0.45593999997E+02  0.45594000000E+02  0.51100000000E-03 0. -1.
         11   -1    0    0    0    0 -0.00000000000E+00 -0.00000000000E+00 -0.45593999997E+02  0.45594000000E+02  0.51100000000E-03 0.  1.
    9900012    2    1    2    0    0  0.89166653745E+01  0.10918573959E+02  0.12327051501E+02  0.72461591444E+02  0.70000027552E+02 0.  0.
        -12    1    1    2    0    0 -0.89166653745E+01 -0.10918573959E+02 -0.12327051501E+02  0.18726408556E+02  0.00000000000E+00 0.  1.
         11    1    3    3    0    0 -0.53206522596E+01 -0.54801204953E+01 -0.19855150461E+01  0.78919789261E+01  0.51100000000E-03 0. -1.
        -11    1    3    3    0    0  0.25502677903E+01  0.28788631591E+02  0.29825728486E+02  0.41531473061E+02  0.51100000000E-03 0.  1.
        -12    1    3    3    0    0  0.11687049844E+02 -0.12389937137E+02 -0.15513161939E+02  0.23038139457E+02  0.00000000000E+00 0.  1.
</event>
<event>
 7    1  0.1826069E-013  0.7246157E+02  0.7816164E-02  0.1226708E+00
        -11   -1    0    0    0    0  0.00000000000E+00  0.00000000000E+00  0.45593999997E+02  0.45594000000E+02  0.51100000000E-03 0. -1.
         11   -1    0    0    0    0 -0.00000000000E+00 -0.00000000000E+00 -0.45593999997E+02  0.45594000000E+02  0.51100000000E-03 0.  1.
    9900012    2    1    2    0    0  0.57270519213E+00 -0.11338175735E+02  0.14892848564E+02  0.72461570586E+02  0.70000000380E+02 0.  0.
        -12    1    1    2    0    0 -0.57270519213E+00  0.11338175735E+02 -0.14892848564E+02  0.18726429414E+02  0.00000000000E+00 0.  1.
         11    1    3    3    0    0  0.10687117461E+02 -0.12491172027E+02  0.24564732225E+02  0.29557908042E+02  0.51100000000E-03 0. -1.
        -11    1    3    3    0    0 -0.18786590859E+02  0.14182218659E+02 -0.13017786398E+02  0.26898588907E+02  0.51100000000E-03 0.  1.
         12    1    3    3    0    0  0.86721785904E+01 -0.13029222368E+02  0.33459027375E+01  0.16005073637E+02  0.00000000000E+00 0. -1.
</event>
<event>
 7    1  0.2120310E-013  0.7246147E+02  0.7816164E-02  0.1226708E+00
        -11   -1    0    0    0    0  0.00000000000E+00  0.00000000000E+00  0.45593999997E+02  0.45594000000E+02  0.51100000000E-03 0.  1.
         11   -1    0    0    0    0 -0.00000000000E+00 -0.00000000000E+00 -0.45593999997E+02  0.45594000000E+02  0.51100000000E-03 0. -1.
    9900012    2    1    2    0    0  0.17049705268E+02  0.59383282897E+01 -0.49725807097E+01  0.72461474654E+02  0.69999875411E+02 0.  0.
        -12    1    1    2    0    0 -0.17049705268E+02 -0.59383282897E+01  0.49725807097E+01  0.18726525346E+02  0.00000000000E+00 0.  1.
         11    1    3    3    0    0 -0.11793452382E+01 -0.23836039038E+02 -0.19118658163E+01  0.23941654984E+02  0.51100000000E-03 0. -1.
        -11    1    3    3    0    0 -0.28943690519E+01  0.22613825030E+02  0.72838568973E+01  0.23933596183E+02  0.51100000000E-03 0.  1.
         12    1    3    3    0    0  0.21123419558E+02  0.71605422973E+01 -0.10344571791E+02  0.24586223487E+02  0.00000000000E+00 0. -1.
</event>
<event>
 7    1  0.1826069E-013  0.7246157E+02  0.7816164E-02  0.1226708E+00
        -11   -1    0    0    0    0  0.00000000000E+00  0.00000000000E+00  0.45593999997E+02  0.45594000000E+02  0.51100000000E-03 0. -1.
         11   -1    0    0    0    0 -0.00000000000E+00 -0.00000000000E+00 -0.45593999997E+02  0.45594000000E+02  0.51100000000E-03 0.  1.
    9900012    2    1    2    0    0  0.10074975464E+02 -0.14517140297E+01  0.15718353315E+02  0.72461568542E+02  0.69999997717E+02 0.  0.
        -12    1    1    2    0    0 -0.10074975464E+02  0.14517140297E+01 -0.15718353315E+02  0.18726431458E+02  0.00000000000E+00 0.  1.
         11    1    3    3    0    0 -0.18811290104E+02 -0.18108737672E+02  0.13646805106E+02  0.29462286152E+02  0.51100000000E-03 0.  1.
        -11    1    3    3    0    0  0.19233435359E+02 -0.41679796727E+01  0.35534819953E+01  0.19998108031E+02  0.51100000000E-03 0. -1.
         12    1    3    3    0    0  0.96528302084E+01  0.20825003315E+02 -0.14819337862E+01  0.23001174358E+02  0.00000000000E+00 0. -1.
</event>
<event>
 7    1  0.1826069E-013  0.7246157E+02  0.7816164E-02  0.1226708E+00
        -11   -1    0    0    0    0  0.00000000000E+00  0.00000000000E+00  0.45593999997E+02  0.45594000000E+02  0.51100000000E-03 0.  1.
         11   -1    0    0    0    0 -0.00000000000E+00 -0.00000000000E+00 -0.45593999997E+02  0.45594000000E+02  0.51100000000E-03 0. -1.
    9900012    2    1    2    0    0  0.46762441809E+00  0.16869144261E+01 -0.18644430772E+02  0.72461570771E+02  0.70000000621E+02 0.  0.
        -12    1    1    2    0    0 -0.46762441809E+00 -0.16869144261E+01  0.18644430772E+02  0.18726429229E+02  0.00000000000E+00 0.  1.
         11    1    3    3    0    0 -0.11198066291E+01 -0.99482722811E+01  0.62311707562E+01  0.11791928490E+02  0.51100000000E-03 0.  1.
        -11    1    3    3    0    0  0.11796687325E+02 -0.98845134393E+01 -0.32251199639E+02  0.35735211153E+02  0.51100000000E-03 0. -1.
        -12    1    3    3    0    0 -0.10209256277E+02  0.21519700147E+02  0.73755981111E+01  0.24934431127E+02  0.00000000000E+00 0.  1.
</event>
<event>
 7    1  0.1826069E-013  0.7246160E+02  0.7816164E-02  0.1226708E+00
        -11   -1    0    0    0    0  0.00000000000E+00  0.00000000000E+00  0.45593999997E+02  0.45594000000E+02  0.51100000000E-03 0.  1.
         11   -1    0    0    0    0 -0.00000000000E+00 -0.00000000000E+00 -0.45593999997E+02  0.45594000000E+02  0.51100000000E-03 0. -1.
    9900012    2    1    2    0    0 -0.15820049166E+02  0.63837061925E+01 -0.77234957286E+01  0.72461600275E+02  0.70000039056E+02 0.  0.
        -12    1    1    2    0    0  0.15820049166E+02 -0.63837061925E+01  0.77234957286E+01  0.18726399725E+02  0.00000000000E+00 0.  1.
         11    1    3    3    0    0 -0.11760671754E+02 -0.14733437559E+02  0.16184035337E+02  0.24845735700E+02  0.51100000000E-03 0. -1.
        -11    1    3    3    0    0  0.11519497588E+02  0.21843101742E+02 -0.97404694392E+01  0.26546123324E+02  0.51100000000E-03 0.  1.
         12    1    3    3    0    0 -0.15578875000E+02 -0.72595799036E+00 -0.14167061627E+02  0.21069741252E+02  0.00000000000E+00 0. -1.
</event>
<event>
 7    1  0.1826069E-013  0.7246153E+02  0.7816164E-02  0.1226708E+00
        -11   -1    0    0    0    0  0.00000000000E+00  0.00000000000E+00  0.45593999997E+02  0.45594000000E+02  0.51100000000E-03 0.  1.
         11   -1    0    0    0    0 -0.00000000000E+00 -0.00000000000E+00 -0.45593999997E+02  0.45594000000E+02  0.51100000000E-03 0. -1.
    9900012    2    1    2    0    0 -0.17869711351E+02  0.55955679095E+01 -0.20864920472E+00  0.72461534811E+02  0.69999953776E+02 0.  0.
        -12    1    1    2    0    0  0.17869711351E+02 -0.55955679095E+01  0.20864920472E+00  0.18726465189E+02  0.00000000000E+00 0.  1.
         11    1    3    3    0    0  0.13101337697E+02 -0.75281027967E+01 -0.98422381911E+01  0.18032943022E+02  0.51100000000E-03 0. -1.
        -11    1    3    3    0    0 -0.35997404258E+02  0.11104216430E+01  0.16604306191E+02  0.39657901280E+02  0.51100000000E-03 0.  1.
        -12    1    3    3    0    0  0.50263552104E+01  0.12013249063E+02 -0.69707172046E+01  0.14770690509E+02  0.00000000000E+00 0.  1.
</event>
<event>
 7    1  0.1826069E-013  0.7246152E+02  0.7816164E-02  0.1226708E+00
        -11   -1    0    0    0    0  0.00000000000E+00  0.00000000000E+00  0.45593999997E+02  0.45594000000E+02  0.51100000000E-03 0.  1.
         11   -1    0    0    0    0 -0.00000000000E+00 -0.00000000000E+00 -0.45593999997E+02  0.45594000000E+02  0.51100000000E-03 0. -1.
    9900012    2    1    2    0    0 -0.15361332219E+01  0.34611726423E+01 -0.18339618137E+02  0.72461521027E+02  0.69999935820E+02 0.  0.
        -12    1    1    2    0    0  0.15361332219E+01 -0.34611726423E+01  0.18339618137E+02  0.18726478973E+02  0.00000000000E+00 0.  1.
         11    1    3    3    0    0  0.16510026539E+02  0.31498524990E+01  0.43969665726E+01  0.17373424026E+02  0.51100000000E-03 0. -1.
        -11    1    3    3    0    0 -0.19791737855E+02  0.14461110058E+02  0.39535626834E+01  0.24828758519E+02  0.51100000000E-03 0.  1.
        -12    1    3    3    0    0  0.17455780935E+01 -0.14149789915E+02 -0.26690147393E+02  0.30259338482E+02  0.00000000000E+00 0.  1.
</event>
<event>
 7    1  0.1826069E-013  0.7246150E+02  0.7816164E-02  0.1226708E+00
        -11   -1    0    0    0    0  0.00000000000E+00  0.00000000000E+00  0.45593999997E+02  0.45594000000E+02  0.51100000000E-03 0.  1.
         11   -1    0    0    0    0 -0.00000000000E+00 -0.00000000000E+00 -0.45593999997E+02  0.45594000000E+02  0.51100000000E-03 0. -1.
    9900012    2    1    2    0    0  0.63703817825E+01 -0.29904657500E+01 -0.17353884883E+02  0.72461495521E+02  0.69999902594E+02 0.  0.
        -12    1    1    2    0    0 -0.63703817825E+01  0.29904657500E+01  0.17353884883E+02  0.18726504479E+02  0.00000000000E+00 0.  1.
         11    1    3    3    0    0  0.28349683862E+02  0.60823581849E+01 -0.29784959086E+02  0.41567336265E+02  0.51100000000E-03 0. -1.
        -11    1    3    3    0    0 -0.19830269551E+02 -0.46175733189E+01  0.34641273425E+01  0.20653371452E+02  0.51100000000E-03 0.  1.
        -12    1    3    3    0    0 -0.21490325279E+01 -0.44552506160E+01  0.89669468601E+01  0.10240787804E+02  0.00000000000E+00 0.  1.
</event>
<event>
 7    1  0.1826069E-013  0.7246157E+02  0.7816164E-02  0.1226708E+00
        -11   -1    0    0    0    0  0.00000000000E+00  0.00000000000E+00  0.45593999997E+02  0.45594000000E+02  0.51100000000E-03 0.  1.
         11   -1    0    0    0    0 -0.00000000000E+00 -0.00000000000E+00 -0.45593999997E+02  0.45594000000E+02  0.51100000000E-03 0. -1.
    9900012    2    1    2    0    0 -0.38818185154E+01 -0.17089421211E+02 -0.66001878523E+01  0.72461566490E+02  0.69999995044E+02 0.  0.
        -12    1    1    2    0    0  0.38818185154E+01  0.17089421211E+02  0.66001878523E+01  0.18726433510E+02  0.00000000000E+00 0.  1.
         11    1    3    3    0    0 -0.21786213555E+02 -0.16312675988E+02 -0.19395906383E+02  0.33420707407E+02  0.51100000000E-03 0. -1.
        -11    1    3    3    0    0  0.13161515896E+02 -0.15123327383E+02  0.13062219532E+02  0.23928270125E+02  0.51100000000E-03 0.  1.
         12    1    3    3    0    0  0.47428791434E+01  0.14346582159E+02 -0.26650100099E+00  0.15112588958E+02  0.00000000000E+00 0. -1.
</event>
<event>
 7    1  0.1826069E-013  0.7246157E+02  0.7816164E-02  0.1226708E+00
        -11   -1    0    0    0    0  0.00000000000E+00  0.00000000000E+00  0.45593999997E+02  0.45594000000E+02  0.51100000000E-03 0.  1.
         11   -1    0    0    0    0 -0.00000000000E+00 -0.00000000000E+00 -0.45593999997E+02  0.45594000000E+02  0.51100000000E-03 0. -1.
    9900012    2    1    2    0    0 -0.62224713137E+01 -0.17578787836E+02 -0.17165129505E+01  0.72461565536E+02  0.69999993801E+02 0.  0.
        -12    1    1    2    0    0  0.62224713137E+01  0.17578787836E+02  0.17165129505E+01  0.18726434464E+02  0.00000000000E+00 0.  1.
         11    1    3    3    0    0  0.21779123530E+01  0.16872552640E+02  0.19486953182E+01  0.17123777286E+02  0.51100000000E-03 0. -1.
        -11    1    3    3    0    0 -0.23107776466E+02 -0.19537538205E+02 -0.12322859837E+02  0.32673194015E+02  0.51100000000E-03 0.  1.
        -12    1    3    3    0    0  0.14707392800E+02 -0.14913802272E+02  0.86576515683E+01  0.22664594235E+02  0.00000000000E+00 0.  1.
</event>
<event>
 7    1  0.1826069E-013  0.7246161E+02  0.7816164E-02  0.1226708E+00
        -11   -1    0    0    0    0  0.00000000000E+00  0.00000000000E+00  0.45593999997E+02  0.45594000000E+02  0.51100000000E-03 0.  1.
         11   -1    0    0    0    0 -0.00000000000E+00 -0.00000000000E+00 -0.45593999997E+02  0.45594000000E+02  0.51100000000E-03 0. -1.
    9900012    2    1    2    0    0  0.14554581866E+02  0.11729660162E+02 -0.11210757305E+01  0.72461612426E+02  0.70000054884E+02 0.  0.
        -12    1    1    2    0    0 -0.14554581866E+02 -0.11729660162E+02  0.11210757305E+01  0.18726387574E+02  0.00000000000E+00 0.  1.
         11    1    3    3    0    0  0.58979668635E+01  0.30374614962E+02 -0.18350807412E+02  0.35974371157E+02  0.51100000000E-03 0. -1.
        -11    1    3    3    0    0  0.15665717166E+02 -0.44351340623E+01  0.96072882621E+01  0.18904631615E+02  0.51100000000E-03 0.  1.
         12    1    3    3    0    0 -0.70091021638E+01 -0.14209820738E+02  0.76224434198E+01  0.17582609654E+02  0.00000000000E+00 0. -1.
</event>
<event>
 7    1  0.1826069E-013  0.7246157E+02  0.7816164E-02  0.1226708E+00
        -11   -1    0    0    0    0  0.00000000000E+00  0.00000000000E+00  0.45593999997E+02  0.45594000000E+02  0.51100000000E-03 0.  1.
         11   -1    0    0    0    0 -0.00000000000E+00 -0.00000000000E+00 -0.45593999997E+02  0.45594000000E+02  0.51100000000E-03 0. -1.
    9900012    2    1    2    0    0  0.15535118537E+02 -0.47521709905E+01 -0.93142992022E+01  0.72461569301E+02  0.69999998707E+02 0.  0.
        -12    1    1    2    0    0 -0.15535118537E+02  0.47521709905E+01  0.93142992022E+01  0.18726430699E+02  0.00000000000E+00 0.  1.
         11    1    3    3    0    0 -0.15785594935E+02  0.18133659056E+02 -0.60881448621E+01  0.24800808582E+02  0.51100000000E-03 0. -1.
        -11    1    3    3    0    0  0.21841371835E+02 -0.23640118173E+02  0.77832350830E+01  0.33113131225E+02  0.51100000000E-03 0.  1.
        -12    1    3    3    0    0  0.94793416368E+01  0.75428812685E+00 -0.11009389423E+02  0.14547629495E+02  0.00000000000E+00 0.  1.
</event>
<event>
 7    1  0.1826069E-013  0.7246157E+02  0.7816164E-02  0.1226708E+00
        -11   -1    0    0    0    0  0.00000000000E+00  0.00000000000E+00  0.45593999997E+02  0.45594000000E+02  0.51100000000E-03 0.  1.
         11   -1    0    0    0    0 -0.00000000000E+00 -0.00000000000E+00 -0.45593999997E+02  0.45594000000E+02  0.51100000000E-03 0. -1.
    9900012    2    1    2    0    0  0.34899902267E+01  0.16001322793E+02  0.90805823552E+01  0.72461565774E+02  0.69999994111E+02 0.  0.
        -12    1    1    2    0    0 -0.34899902267E+01 -0.16001322793E+02 -0.90805823552E+01  0.18726434226E+02  0.00000000000E+00 0.  1.
         11    1    3    3    0    0 -0.67990787150E+01  0.64285913564E+00 -0.16191289053E+02  0.17572665725E+02  0.51100000000E-03 0. -1.
        -11    1    3    3    0    0  0.72368457830E+01  0.22763144966E+02  0.34946338687E+02  0.42329414047E+02  0.51100000000E-03 0.  1.
         12    1    3    3    0    0  0.30522231587E+01 -0.74046813082E+01 -0.96744672797E+01  0.12559486002E+02  0.00000000000E+00 0. -1.
</event>
<event>
 7    1  0.1826069E-013  0.7246160E+02  0.7816164E-02  0.1226708E+00
        -11   -1    0    0    0    0  0.00000000000E+00  0.00000000000E+00  0.45593999997E+02  0.45594000000E+02  0.51100000000E-03 0. -1.
         11   -1    0    0    0    0 -0.00000000000E+00 -0.00000000000E+00 -0.45593999997E+02  0.45594000000E+02  0.51100000000E-03 0.  1.
    9900012    2    1    2    0    0 -0.81094912436E+00 -0.18668600596E+02 -0.12262943668E+01  0.72461599263E+02  0.70000037737E+02 0.  0.
        -12    1    1    2    0    0  0.81094912436E+00  0.18668600596E+02  0.12262943668E+01  0.18726400737E+02  0.00000000000E+00 0.  1.
         11    1    3    3    0    0 -0.98573593385E+01 -0.29131834652E+02  0.46392555811E+01  0.31102315283E+02  0.51100000000E-03 0. -1.
        -11    1    3    3    0    0  0.62201601132E+01  0.63947239398E+01 -0.22393441870E+02  0.24104960592E+02  0.51100000000E-03 0.  1.
         12    1    3    3    0    0  0.28262501010E+01  0.40685101162E+01  0.16527891922E+02  0.17254323388E+02  0.00000000000E+00 0. -1.
</event>
<event>
 7    1  0.1826069E-013  0.7246157E+02  0.7816164E-02  0.1226708E+00
        -11   -1    0    0    0    0  0.00000000000E+00  0.00000000000E+00  0.45593999997E+02  0.45594000000E+02  0.51100000000E-03 0. -1.
         11   -1    0    0    0    0 -0.00000000000E+00 -0.00000000000E+00 -0.45593999997E+02  0.45594000000E+02  0.51100000000E-03 0.  1.
    9900012    2    1    2    0    0 -0.12693395486E+02 -0.11855461866E+02 -0.70003423215E+01  0.72461573282E+02  0.70000003892E+02 0.  0.
        -12    1    1    2    0    0  0.12693395486E+02  0.11855461866E+02  0.70003423215E+01  0.18726426718E+02  0.00000000000E+00 0.  1.
         11    1    3    3    0    0 -0.48377112649E+01  0.63927934256E+01  0.50931171882E+01  0.94979524645E+01  0.51100000000E-03 0. -1.
        -11    1    3    3    0    0 -0.24781373435E+02 -0.31443271714E+02 -0.49247545947E+01  0.40336695619E+02  0.51100000000E-03 0.  1.
        -12    1    3    3    0    0  0.16925689214E+02  0.13195016422E+02 -0.71687049151E+01  0.22626925198E+02  0.00000000000E+00 0.  1.
</event>
<event>
 7    1  0.1826069E-013  0.7246158E+02  0.7816164E-02  0.1226708E+00
        -11   -1    0    0    0    0  0.00000000000E+00  0.00000000000E+00  0.45593999997E+02  0.45594000000E+02  0.51100000000E-03 0.  1.
         11   -1    0    0    0    0 -0.00000000000E+00 -0.00000000000E+00 -0.45593999997E+02  0.45594000000E+02  0.51100000000E-03 0. -1.
    9900012    2    1    2    0    0 -0.11687292388E+02  0.61893680908E+01 -0.13258117758E+02  0.72461581036E+02  0.70000013994E+02 0.  0.
        -12    1    1    2    0    0  0.11687292388E+02 -0.61893680908E+01  0.13258117758E+02  0.18726418964E+02  0.00000000000E+00 0.  1.
         11    1    3    3    0    0  0.78531594507E+01  0.11175341621E+02 -0.15021581193E+02  0.20302912980E+02  0.51100000000E-03 0. -1.
        -11    1    3    3    0    0  0.23673669005E+01 -0.22184080973E+02 -0.62645301517E+01  0.23172876665E+02  0.51100000000E-03 0.  1.
        -12    1    3    3    0    0 -0.21907818739E+02  0.17198107443E+02  0.80279935864E+01  0.28985791391E+02  0.00000000000E+00 0.  1.
</event>
<event>
 7    1  0.1826069E-013  0.7246141E+02  0.7816164E-02  0.1226708E+00
        -11   -1    0    0    0    0  0.00000000000E+00  0.00000000000E+00  0.45593999997E+02  0.45594000000E+02  0.51100000000E-03 0.  1.
         11   -1    0    0    0    0 -0.00000000000E+00 -0.00000000000E+00 -0.45593999997E+02  0.45594000000E+02  0.51100000000E-03 0. -1.
    9900012    2    1    2    0    0  0.17259381451E+02 -0.11359558955E+01 -0.71769367528E+01  0.72461412883E+02  0.69999794943E+02 0.  0.
        -12    1    1    2    0    0 -0.17259381451E+02  0.11359558955E+01  0.71769367528E+01  0.18726587117E+02  0.00000000000E+00 0.  1.
         11    1    3    3    0    0  0.25115165275E+02  0.14658552218E+02 -0.38885488902E+01  0.29338805235E+02  0.51100000000E-03 0. -1.
        -11    1    3    3    0    0 -0.68874882021E+01 -0.11538475919E+02  0.17396575322E+02  0.21982146243E+02  0.51100000000E-03 0.  1.
        -12    1    3    3    0    0 -0.96829562109E+00 -0.42560321942E+01 -0.20684963185E+02  0.21140461405E+02  0.00000000000E+00 0.  1.
</event>
<event>
 7    1  0.1826069E-013  0.7246161E+02  0.7816164E-02  0.1226708E+00
        -11   -1    0    0    0    0  0.00000000000E+00  0.00000000000E+00  0.45593999997E+02  0.45594000000E+02  0.51100000000E-03 0. -1.
         11   -1    0    0    0    0 -0.00000000000E+00 -0.00000000000E+00 -0.45593999997E+02  0.45594000000E+02  0.51100000000E-03 0.  1.
    9900012    2    1    2    0    0 -0.16584105986E+02  0.68731296792E+00 -0.86702125494E+01  0.72461613372E+02  0.70000056117E+02 0.  0.
        -12    1    1    2    0    0  0.16584105986E+02 -0.68731296792E+00  0.86702125494E+01  0.18726386628E+02  0.00000000000E+00 0.  1.
         11    1    3    3    0    0  0.85543328307E+01 -0.98491670430E+01 -0.65693214054E-01  0.13045574632E+02  0.51100000000E-03 0. -1.
        -11    1    3    3    0    0 -0.23121396620E+02  0.73015845217E+01  0.19462183485E+02  0.31091617913E+02  0.51100000000E-03 0.  1.
        -12    1    3    3    0    0 -0.20170421972E+01  0.32348954892E+01 -0.28066702820E+02  0.28324420828E+02  0.00000000000E+00 0.  1.
</event>
<event>
 7    1  0.1826069E-013  0.7246156E+02  0.7816164E-02  0.1226708E+00
        -11   -1    0    0    0    0  0.00000000000E+00  0.00000000000E+00  0.45593999997E+02  0.45594000000E+02  0.51100000000E-03 0. -1.
         11   -1    0    0    0    0 -0.00000000000E+00 -0.00000000000E+00 -0.45593999997E+02  0.45594000000E+02  0.51100000000E-03 0.  1.
    9900012    2    1    2    0    0  0.11006476890E+02 -0.13378552383E+02 -0.71099412429E+01  0.72461562489E+02  0.69999989832E+02 0.  0.
        -12    1    1    2    0    0 -0.11006476890E+02  0.13378552383E+02  0.71099412429E+01  0.18726437511E+02  0.00000000000E+00 0.  1.
         11    1    3    3    0    0  0.24620140473E+02 -0.20755992297E+01  0.97212495975E+01  0.26551122821E+02  0.51100000000E-03 0. -1.
        -11    1    3    3    0    0 -0.18179957762E+02 -0.20544658531E+02 -0.21244082197E+02  0.34697332563E+02  0.51100000000E-03 0.  1.
        -12    1    3    3    0    0  0.45662941791E+01  0.92417053775E+01  0.44128913562E+01  0.11213107104E+02  0.00000000000E+00 0.  1.
</event>
<event>
 7    1  0.1826069E-013  0.7246161E+02  0.7816164E-02  0.1226708E+00
        -11   -1    0    0    0    0  0.00000000000E+00  0.00000000000E+00  0.45593999997E+02  0.45594000000E+02  0.51100000000E-03 0.  1.
         11   -1    0    0    0    0 -0.00000000000E+00 -0.00000000000E+00 -0.45593999997E+02  0.45594000000E+02  0.51100000000E-03 0. -1.
    9900012    2    1    2    0    0  0.14222494193E+02 -0.23659719697E+00 -0.12179589025E+02  0.72461609314E+02  0.70000050830E+02 0.  0.
        -12    1    1    2    0    0 -0.14222494193E+02  0.23659719697E+00  0.12179589025E+02  0.18726390686E+02  0.00000000000E+00 0.  1.
         11    1    3    3    0    0 -0.19268987594E+02 -0.25718794437E+01  0.56051706391E+01  0.20231816154E+02  0.51100000000E-03 0. -1.
        -11    1    3    3    0    0  0.18720966203E+02 -0.16394513571E+02 -0.12279328763E+02  0.27749532716E+02  0.51100000000E-03 0.  1.
        -12    1    3    3    0    0  0.14770515583E+02  0.18729795818E+02 -0.55054309012E+01  0.24480260443E+02  0.00000000000E+00 0.  1.
</event>
<event>
 7    1  0.1826069E-013  0.7246122E+02  0.7816164E-02  0.1226709E+00
        -11   -1    0    0    0    0  0.00000000000E+00  0.00000000000E+00  0.45593999997E+02  0.45594000000E+02  0.51100000000E-03 0.  1.
         11   -1    0    0    0    0 -0.00000000000E+00 -0.00000000000E+00 -0.45593999997E+02  0.45594000000E+02  0.51100000000E-03 0. -1.
    9900012    2    1    2    0    0  0.12580976146E+02  0.80526999574E+01 -0.11294481213E+02  0.72461221226E+02  0.69999545272E+02 0.  0.
        -12    1    1    2    0    0 -0.12580976146E+02 -0.80526999574E+01  0.11294481213E+02  0.18726778774E+02  0.00000000000E+00 0.  1.
         11    1    3    3    0    0  0.25129793798E+02  0.47420069929E+01 -0.56251770922E+01  0.26184647873E+02  0.51100000000E-03 0. -1.
        -11    1    3    3    0    0 -0.98200715844E+01 -0.13632408781E+02 -0.18394098432E+02  0.24912230580E+02  0.51100000000E-03 0.  1.
        -12    1    3    3    0    0 -0.27287460681E+01  0.16943101745E+02  0.12724794311E+02  0.21364342773E+02  0.00000000000E+00 0.  1.
</event>
<event>
 7    1  0.1826069E-013  0.7246156E+02  0.7816164E-02  0.1226708E+00
        -11   -1    0    0    0    0  0.00000000000E+00  0.00000000000E+00  0.45593999997E+02  0.45594000000E+02  0.51100000000E-03 0.  1.
         11   -1    0    0    0    0 -0.00000000000E+00 -0.00000000000E+00 -0.45593999997E+02  0.45594000000E+02  0.51100000000E-03 0. -1.
    9900012    2    1    2    0    0  0.31616323887E+01 -0.10692794615E+01 -0.18426620934E+02  0.72461557813E+02  0.69999983741E+02 0.  0.
        -12    1    1    2    0    0 -0.31616323887E+01  0.10692794615E+01  0.18426620934E+02  0.18726442187E+02  0.00000000000E+00 0.  1.
         11    1    3    3    0    0  0.13911817698E+02  0.14684182065E+02  0.16613849834E+02  0.26176017290E+02  0.51100000000E-03 0.  1.
        -11    1    3    3    0    0 -0.17194037413E+02 -0.12910902871E+02 -0.32138944204E+02  0.38668308346E+02  0.51100000000E-03 0. -1.
         12    1    3    3    0    0  0.64438521042E+01 -0.28425586555E+01 -0.29015265641E+01  0.76172321779E+01  0.00000000000E+00 0. -1.
</event>
<event>
 7    1  0.1826069E-013  0.7246157E+02  0.7816164E-02  0.1226708E+00
        -11   -1    0    0    0    0  0.00000000000E+00  0.00000000000E+00  0.45593999997E+02  0.45594000000E+02  0.51100000000E-03 0.  1.
         11   -1    0    0    0    0 -0.00000000000E+00 -0.00000000000E+00 -0.45593999997E+02  0.45594000000E+02  0.51100000000E-03 0. -1.
    9900012    2    1    2    0    0 -0.37588269468E+01  0.79380834891E+00 -0.18328129655E+02  0.72461568189E+02  0.69999997258E+02 0.  0.
        -12    1    1    2    0    0  0.37588269468E+01 -0.79380834891E+00  0.18328129655E+02  0.18726431811E+02  0.00000000000E+00 0.  1.
         11    1    3    3    0    0 -0.25168701854E+02  0.15898039867E+02  0.84694790864E+01  0.30950659135E+02  0.51100000000E-03 0. -1.
        -11    1    3    3    0    0  0.11876815625E+02  0.20661031452E+01 -0.97415201685E+01  0.15499185367E+02  0.51100000000E-03 0.  1.
         12    1    3    3    0    0  0.95330592829E+01 -0.17170334663E+02 -0.17056088573E+02  0.26011723687E+02  0.00000000000E+00 0. -1.
</event>
<event>
 7    1  0.1826069E-013  0.7246157E+02  0.7816164E-02  0.1226708E+00
        -11   -1    0    0    0    0  0.00000000000E+00  0.00000000000E+00  0.45593999997E+02  0.45594000000E+02  0.51100000000E-03 0. -1.
         11   -1    0    0    0    0 -0.00000000000E+00 -0.00000000000E+00 -0.45593999997E+02  0.45594000000E+02  0.51100000000E-03 0.  1.
    9900012    2    1    2    0    0  0.69829132463E+01 -0.34255751492E+01  0.17034779294E+02  0.72461565526E+02  0.69999993789E+02 0.  0.
        -12    1    1    2    0    0 -0.69829132463E+01  0.34255751492E+01 -0.17034779294E+02  0.18726434474E+02  0.00000000000E+00 0.  1.
         11    1    3    3    0    0  0.35442851061E+02 -0.71042203717E+01  0.29558839650E+01  0.36268483408E+02  0.51100000000E-03 0. -1.
        -11    1    3    3    0    0 -0.70477250237E+01  0.27867970117E+01 -0.36198133443E+01  0.83987924432E+01  0.51100000000E-03 0.  1.
         12    1    3    3    0    0 -0.21412212791E+02  0.89184821077E+00  0.17698708673E+02  0.27794289675E+02  0.00000000000E+00 0. -1.
</event>
<event>
 7    1  0.1826069E-013  0.7246143E+02  0.7816164E-02  0.1226708E+00
        -11   -1    0    0    0    0  0.00000000000E+00  0.00000000000E+00  0.45593999997E+02  0.45594000000E+02  0.51100000000E-03 0.  1.
         11   -1    0    0    0    0 -0.00000000000E+00 -0.00000000000E+00 -0.45593999997E+02  0.45594000000E+02  0.51100000000E-03 0. -1.
    9900012    2    1    2    0    0 -0.13269863872E+02  0.88401423830E+01 -0.98207420842E+01  0.72461431184E+02  0.69999818783E+02 0.  0.
        -12    1    1    2    0    0  0.13269863872E+02 -0.88401423830E+01  0.98207420842E+01  0.18726568816E+02  0.00000000000E+00 0.  1.
         11    1    3    3    0    0  0.47549898021E+01  0.17946696893E+02 -0.17908270145E+02  0.25795348364E+02  0.51100000000E-03 0. -1.
        -11    1    3    3    0    0 -0.17932872412E+02 -0.16446912339E+02 -0.10635281524E+02  0.26555565364E+02  0.51100000000E-03 0.  1.
        -12    1    3    3    0    0 -0.91981261898E-01  0.73403578297E+01  0.18722809585E+02  0.20110517456E+02  0.00000000000E+00 0.  1.
</event>
<event>
 7    1  0.1826069E-013  0.7246157E+02  0.7816164E-02  0.1226708E+00
        -11   -1    0    0    0    0  0.00000000000E+00  0.00000000000E+00  0.45593999997E+02  0.45594000000E+02  0.51100000000E-03 0. -1.
         11   -1    0    0    0    0 -0.00000000000E+00 -0.00000000000E+00 -0.45593999997E+02  0.45594000000E+02  0.51100000000E-03 0.  1.
    9900012    2    1    2    0    0  0.12097906840E+01 -0.15696806978E+02  0.10140315745E+02  0.72461565577E+02  0.69999993855E+02 0.  0.
        -12    1    1    2    0    0 -0.12097906840E+01  0.15696806978E+02 -0.10140315745E+02  0.18726434423E+02  0.00000000000E+00 0.  1.
         11    1    3    3    0    0 -0.58430648053E+01  0.24114955701E+02  0.12416000130E+02  0.27745802462E+02  0.51100000000E-03 0. -1.
        -11    1    3    3    0    0 -0.10037786150E+01 -0.30708542972E+01 -0.61053187712E+01  0.69074333281E+01  0.51100000000E-03 0.  1.
         12    1    3    3    0    0  0.80566341044E+01 -0.36740908381E+02  0.38296343864E+01  0.37808329787E+02  0.00000000000E+00 0. -1.
</event>
<event>
 7    1  0.1826069E-013  0.7246156E+02  0.7816164E-02  0.1226708E+00
        -11   -1    0    0    0    0  0.00000000000E+00  0.00000000000E+00  0.45593999997E+02  0.45594000000E+02  0.51100000000E-03 0.  1.
         11   -1    0    0    0    0 -0.00000000000E+00 -0.00000000000E+00 -0.45593999997E+02  0.45594000000E+02  0.51100000000E-03 0. -1.
    9900012    2    1    2    0    0  0.82295019032E+01  0.16218725659E+02 -0.44617953131E+01  0.72461564648E+02  0.69999992644E+02 0.  0.
        -12    1    1    2    0    0 -0.82295019032E+01 -0.16218725659E+02  0.44617953131E+01  0.18726435352E+02  0.00000000000E+00 0.  1.
         11    1    3    3    0    0  0.25990839112E+02 -0.10683150753E+01 -0.12701935486E+02  0.28948301853E+02  0.51100000000E-03 0. -1.
        -11    1    3    3    0    0 -0.96229134224E+01  0.25861504352E+02 -0.22806517084E+01  0.27687889817E+02  0.51100000000E-03 0.  1.
        -12    1    3    3    0    0 -0.81384237862E+01 -0.85744636169E+01  0.10520791881E+02  0.15825372977E+02  0.00000000000E+00 0.  1.
</event>
<event>
 7    1  0.1826069E-013  0.7246081E+02  0.7816164E-02  0.1226710E+00
        -11   -1    0    0    0    0  0.00000000000E+00  0.00000000000E+00  0.45593999997E+02  0.45594000000E+02  0.51100000000E-03 0.  1.
         11   -1    0    0    0    0 -0.00000000000E+00 -0.00000000000E+00 -0.45593999997E+02  0.45594000000E+02  0.51100000000E-03 0. -1.
    9900012    2    1    2    0    0 -0.69903106976E+01 -0.30090765203E+01 -0.17111066128E+02  0.72460812032E+02  0.69999012215E+02 0.  0.
        -12    1    1    2    0    0  0.69903106976E+01  0.30090765203E+01  0.17111066128E+02  0.18727187968E+02  0.00000000000E+00 0.  1.
         11    1    3    3    0    0 -0.17600714168E+02  0.12219193225E+02 -0.19627190246E+02  0.29057192216E+02  0.51100000000E-03 0. -1.
        -11    1    3    3    0    0  0.63852708921E+01  0.83152195581E+01  0.13491576312E+02  0.17086169621E+02  0.51100000000E-03 0.  1.
        -12    1    3    3    0    0  0.42251325779E+01 -0.23543489303E+02 -0.10975452195E+02  0.26317450195E+02  0.00000000000E+00 0.  1.
</event>
<event>
 7    1  0.1826069E-013  0.7246158E+02  0.7816164E-02  0.1226708E+00
        -11   -1    0    0    0    0  0.00000000000E+00  0.00000000000E+00  0.45593999997E+02  0.45594000000E+02  0.51100000000E-03 0. -1.
         11   -1    0    0    0    0 -0.00000000000E+00 -0.00000000000E+00 -0.45593999997E+02  0.45594000000E+02  0.51100000000E-03 0.  1.
    9900012    2    1    2    0    0  0.11234892210E+01 -0.12036511028E+02  0.14301706581E+02  0.72461584515E+02  0.70000018526E+02 0.  0.
        -12    1    1    2    0    0 -0.11234892210E+01  0.12036511028E+02 -0.14301706581E+02  0.18726415485E+02  0.00000000000E+00 0.  1.
         11    1    3    3    0    0  0.29232681502E+02  0.70379351204E+01  0.64067877570E+01  0.30742952497E+02  0.51100000000E-03 0. -1.
        -11    1    3    3    0    0 -0.12840977801E+02 -0.31969243897E+01  0.13588324756E+02  0.18967171808E+02  0.51100000000E-03 0.  1.
         12    1    3    3    0    0 -0.15268214480E+02 -0.15877521759E+02 -0.56934059320E+01  0.22751460211E+02  0.00000000000E+00 0. -1.
</event>
<event>
 7    1  0.1826069E-013  0.7246159E+02  0.7816164E-02  0.1226708E+00
        -11   -1    0    0    0    0  0.00000000000E+00  0.00000000000E+00  0.45593999997E+02  0.45594000000E+02  0.51100000000E-03 0. -1.
         11   -1    0    0    0    0 -0.00000000000E+00 -0.00000000000E+00 -0.45593999997E+02  0.45594000000E+02  0.51100000000E-03 0.  1.
    9900012    2    1    2    0    0  0.11735495102E+02 -0.37256038686E+01  0.14109446950E+02  0.72461589166E+02  0.70000024584E+02 0.  0.
        -12    1    1    2    0    0 -0.11735495102E+02  0.37256038686E+01 -0.14109446950E+02  0.18726410834E+02  0.00000000000E+00 0.  1.
         11    1    3    3    0    0 -0.13425365311E+02  0.14852638757E+02 -0.10576304555E+02  0.22642869299E+02  0.51100000000E-03 0. -1.
        -11    1    3    3    0    0 -0.61282426488E+00 -0.13199317402E+02 -0.71702369368E+00  0.13232976109E+02  0.51100000000E-03 0.  1.
         12    1    3    3    0    0  0.25773684679E+02 -0.53789252233E+01  0.25402775200E+02  0.36585743758E+02  0.00000000000E+00 0. -1.
</event>
<event>
 7    1  0.1826069E-013  0.7246155E+02  0.7816164E-02  0.1226708E+00
        -11   -1    0    0    0    0  0.00000000000E+00  0.00000000000E+00  0.45593999997E+02  0.45594000000E+02  0.51100000000E-03 0. -1.
         11   -1    0    0    0    0 -0.00000000000E+00 -0.00000000000E+00 -0.45593999997E+02  0.45594000000E+02  0.51100000000E-03 0.  1.
    9900012    2    1    2    0    0  0.18456189803E+02  0.37519913423E+00  0.31477333508E+01  0.72461549677E+02  0.69999973142E+02 0.  0.
        -12    1    1    2    0    0 -0.18456189803E+02 -0.37519913423E+00 -0.31477333508E+01  0.18726450323E+02  0.00000000000E+00 0.  1.
         11    1    3    3    0    0 -0.11672656053E+01  0.13199162617E+02 -0.24854028672E+01  0.13481751758E+02  0.51100000000E-03 0. -1.
        -11    1    3    3    0    0  0.20089338757E+02 -0.26250567462E+02 -0.13412066227E+02  0.35672921726E+02  0.51100000000E-03 0.  1.
        -12    1    3    3    0    0 -0.46588334821E+00  0.13426603979E+02  0.19045202445E+02  0.23306876193E+02  0.00000000000E+00 0.  1.
</event>
<event>
 7    1  0.1826069E-013  0.7246123E+02  0.7816164E-02  0.1226709E+00
        -11   -1    0    0    0    0  0.00000000000E+00  0.00000000000E+00  0.45593999997E+02  0.45594000000E+02  0.51100000000E-03 0.  1.
         11   -1    0    0    0    0 -0.00000000000E+00 -0.00000000000E+00 -0.45593999997E+02  0.45594000000E+02  0.51100000000E-03 0. -1.
    9900012    2    1    2    0    0  0.35988326696E+00 -0.17181565632E+02  0.74401750960E+01  0.72461229884E+02  0.69999556550E+02 0.  0.
        -12    1    1    2    0    0 -0.35988326696E+00  0.17181565632E+02 -0.74401750960E+01  0.18726770116E+02  0.00000000000E+00 0.  1.
         11    1    3    3    0    0  0.94534671509E+01  0.38533266575E+01 -0.16430880667E+02  0.19343991503E+02  0.51100000000E-03 0. -1.
        -11    1    3    3    0    0  0.11418414975E+02 -0.17068782941E+00  0.20760317320E+02  0.23693883395E+02  0.51100000000E-03 0.  1.
         12    1    3    3    0    0 -0.20511998859E+02 -0.20864204460E+02  0.31107384434E+01  0.29423354985E+02  0.00000000000E+00 0. -1.
</event>
<event>
 7    1  0.1826069E-013  0.7246156E+02  0.7816164E-02  0.1226708E+00
        -11   -1    0    0    0    0  0.00000000000E+00  0.00000000000E+00  0.45593999997E+02  0.45594000000E+02  0.51100000000E-03 0.  1.
         11   -1    0    0    0    0 -0.00000000000E+00 -0.00000000000E+00 -0.45593999997E+02  0.45594000000E+02  0.51100000000E-03 0. -1.
    9900012    2    1    2    0    0 -0.18462689984E+02 -0.21323213457E+01 -0.22938481907E+01  0.72461562664E+02  0.69999990060E+02 0.  0.
        -12    1    1    2    0    0  0.18462689984E+02  0.21323213457E+01  0.22938481907E+01  0.18726437336E+02  0.00000000000E+00 0.  1.
         11    1    3    3    0    0 -0.24018960609E+02  0.21267593596E+02  0.18840419803E+02  0.37204602198E+02  0.51100000000E-03 0. -1.
        -11    1    3    3    0    0  0.82228409030E+01 -0.64307637171E+01 -0.45744888839E+01  0.11397183131E+02  0.51100000000E-03 0.  1.
         12    1    3    3    0    0 -0.26665702780E+01 -0.16969151225E+02 -0.16559779110E+02  0.23859777335E+02  0.00000000000E+00 0. -1.
</event>
<event>
 7    1  0.1877070E-013  0.7246155E+02  0.7816164E-02  0.1226708E+00
        -11   -1    0    0    0    0  0.00000000000E+00  0.00000000000E+00  0.45593999997E+02  0.45594000000E+02  0.51100000000E-03 0. -1.
         11   -1    0    0    0    0 -0.00000000000E+00 -0.00000000000E+00 -0.45593999997E+02  0.45594000000E+02  0.51100000000E-03 0.  1.
    9900012    2    1    2    0    0  0.54750987623E+01 -0.75625156756E+01  0.16233037148E+02  0.72461552263E+02  0.69999976511E+02 0.  0.
        -12    1    1    2    0    0 -0.54750987623E+01  0.75625156756E+01 -0.16233037148E+02  0.18726447737E+02  0.00000000000E+00 0.  1.
         11    1    3    3    0    0  0.17843583318E+02  0.11876625985E+01  0.29504749046E+02  0.34501220625E+02  0.51100000000E-03 0. -1.
        -11    1    3    3    0    0 -0.20442642418E+02 -0.10402496019E+02 -0.72461416943E+00  0.22948608202E+02  0.51100000000E-03 0.  1.
        -12    1    3    3    0    0  0.80741578619E+01  0.16523177448E+01 -0.12547097729E+02  0.15011723436E+02  0.00000000000E+00 0.  1.
</event>
<event>
 7    1  0.1826069E-013  0.7246142E+02  0.7816164E-02  0.1226708E+00
        -11   -1    0    0    0    0  0.00000000000E+00  0.00000000000E+00  0.45593999997E+02  0.45594000000E+02  0.51100000000E-03 0.  1.
         11   -1    0    0    0    0 -0.00000000000E+00 -0.00000000000E+00 -0.45593999997E+02  0.45594000000E+02  0.51100000000E-03 0. -1.
    9900012    2    1    2    0    0  0.45067364565E+01  0.18174096701E+02  0.27604898368E+00  0.72461423500E+02  0.69999808772E+02 0.  0.
        -12    1    1    2    0    0 -0.45067364565E+01 -0.18174096701E+02 -0.27604898368E+00  0.18726576500E+02  0.00000000000E+00 0.  1.
         11    1    3    3    0    0 -0.21360857356E+02  0.26061981625E+02  0.36253180206E+01  0.33891828576E+02  0.51100000000E-03 0. -1.
        -11    1    3    3    0    0  0.29029769193E+02 -0.11037398002E+02  0.25619860667E+01  0.31162724960E+02  0.51100000000E-03 0.  1.
         12    1    3    3    0    0 -0.31621753808E+01  0.31495130776E+01 -0.59112551036E+01  0.74068699641E+01  0.00000000000E+00 0. -1.
</event>
<event>
 7    1  0.1826069E-013  0.7246157E+02  0.7816164E-02  0.1226708E+00
        -11   -1    0    0    0    0  0.00000000000E+00  0.00000000000E+00  0.45593999997E+02  0.45594000000E+02  0.51100000000E-03 0.  1.
         11   -1    0    0    0    0 -0.00000000000E+00 -0.00000000000E+00 -0.45593999997E+02  0.45594000000E+02  0.51100000000E-03 0. -1.
    9900012    2    1    2    0    0  0.16540160141E+01  0.16860840115E+02 -0.79784485964E+01  0.72461565733E+02  0.69999994058E+02 0.  0.
        -12    1    1    2    0    0 -0.16540160141E+01 -0.16860840115E+02  0.79784485964E+01  0.18726434267E+02  0.00000000000E+00 0.  1.
         11    1    3    3    0    0 -0.13881011242E+02 -0.68420245506E+01  0.15113544622E+02  0.21631343101E+02  0.51100000000E-03 0.  1.
        -11    1    3    3    0    0  0.55658902487E+01  0.30361916579E+02 -0.23561260498E+02  0.38832436302E+02  0.51100000000E-03 0. -1.
         12    1    3    3    0    0  0.99691370069E+01 -0.66590519137E+01  0.46926727925E+00  0.11997786330E+02  0.00000000000E+00 0. -1.
</event>
<event>
 7    1  0.1826069E-013  0.7246156E+02  0.7816164E-02  0.1226708E+00
        -11   -1    0    0    0    0  0.00000000000E+00  0.00000000000E+00  0.45593999997E+02  0.45594000000E+02  0.51100000000E-03 0.  1.
         11   -1    0    0    0    0 -0.00000000000E+00 -0.00000000000E+00 -0.45593999997E+02  0.45594000000E+02  0.51100000000E-03 0. -1.
    9900012    2    1    2    0    0  0.15482257976E+02  0.59493636012E+01 -0.86939285442E+01  0.72461557924E+02  0.69999983885E+02 0.  0.
        -12    1    1    2    0    0 -0.15482257976E+02 -0.59493636012E+01  0.86939285442E+01  0.18726442076E+02  0.00000000000E+00 0.  1.
         11    1    3    3    0    0  0.18609967908E+02  0.17078654530E+02 -0.18430455140E+02  0.31268083136E+02  0.51100000000E-03 0. -1.
        -11    1    3    3    0    0 -0.28748637455E+01 -0.11500100032E+01  0.23770505351E+02  0.23971322231E+02  0.51100000000E-03 0.  1.
        -12    1    3    3    0    0 -0.25284618601E+00 -0.99792809254E+01 -0.14033978756E+02  0.17222152557E+02  0.00000000000E+00 0.  1.
</event>
<event>
 7    1  0.1826069E-013  0.7246165E+02  0.7816164E-02  0.1226708E+00
        -11   -1    0    0    0    0  0.00000000000E+00  0.00000000000E+00  0.45593999997E+02  0.45594000000E+02  0.51100000000E-03 0. -1.
         11   -1    0    0    0    0 -0.00000000000E+00 -0.00000000000E+00 -0.45593999997E+02  0.45594000000E+02  0.51100000000E-03 0.  1.
    9900012    2    1    2    0    0  0.39201418853E+00 -0.11475724864E+02 -0.14792906796E+02  0.72461654180E+02  0.70000109277E+02 0.  0.
        -12    1    1    2    0    0 -0.39201418853E+00  0.11475724864E+02  0.14792906796E+02  0.18726345820E+02  0.00000000000E+00 0.  1.
         11    1    3    3    0    0 -0.10540803733E+02 -0.19101316706E+02 -0.24729374402E+02  0.32977428672E+02  0.51100000000E-03 0. -1.
        -11    1    3    3    0    0 -0.11021495361E+02  0.45984270548E+01  0.12363872139E+02  0.17189654619E+02  0.51100000000E-03 0.  1.
         12    1    3    3    0    0  0.21954313283E+02  0.30271647875E+01 -0.24274045330E+01  0.22294570889E+02  0.00000000000E+00 0. -1.
</event>
<event>
 7    1  0.1826069E-013  0.7246155E+02  0.7816164E-02  0.1226708E+00
        -11   -1    0    0    0    0  0.00000000000E+00  0.00000000000E+00  0.45593999997E+02  0.45594000000E+02  0.51100000000E-03 0. -1.
         11   -1    0    0    0    0 -0.00000000000E+00 -0.00000000000E+00 -0.45593999997E+02  0.45594000000E+02  0.51100000000E-03 0.  1.
    9900012    2    1    2    0    0  0.15482111365E+02  0.86377290764E+01  0.60310663352E+01  0.72461550869E+02  0.69999974695E+02 0.  0.
        -12    1    1    2    0    0 -0.15482111365E+02 -0.86377290764E+01 -0.60310663352E+01  0.18726449131E+02  0.00000000000E+00 0.  1.
         11    1    3    3    0    0  0.53578024691E+01  0.15227720116E+02  0.26205878839E+02  0.30778849771E+02  0.51100000000E-03 0. -1.
        -11    1    3    3    0    0 -0.66112440466E+01 -0.97799949328E+01 -0.21569732948E+02  0.24588823242E+02  0.51100000000E-03 0.  1.
        -12    1    3    3    0    0  0.16735552942E+02  0.31900038929E+01  0.13949204438E+01  0.17093877856E+02  0.00000000000E+00 0.  1.
</event>
<event>
 7    1  0.1826069E-013  0.7246165E+02  0.7816164E-02  0.1226708E+00
        -11   -1    0    0    0    0  0.00000000000E+00  0.00000000000E+00  0.45593999997E+02  0.45594000000E+02  0.51100000000E-03 0. -1.
         11   -1    0    0    0    0 -0.00000000000E+00 -0.00000000000E+00 -0.45593999997E+02  0.45594000000E+02  0.51100000000E-03 0.  1.
    9900012    2    1    2    0    0  0.13123687031E+02 -0.31481287069E+00  0.13354619044E+02  0.72461651764E+02  0.70000106129E+02 0.  0.
        -12    1    1    2    0    0 -0.13123687031E+02  0.31481287069E+00 -0.13354619044E+02  0.18726348236E+02  0.00000000000E+00 0.  1.
         11    1    3    3    0    0  0.59746630394E+01  0.19940192292E+02 -0.10740280224E+02  0.23423524214E+02  0.51100000000E-03 0. -1.
        -11    1    3    3    0    0 -0.12344549210E+02 -0.14257575035E+02  0.21304926889E+02  0.28452877729E+02  0.51100000000E-03 0.  1.
         12    1    3    3    0    0  0.19493573202E+02 -0.59974301277E+01  0.27899723791E+01  0.20585249821E+02  0.00000000000E+00 0. -1.
</event>
<event>
 8    1  0.1826069E-013  0.7246158E+02  0.7816164E-02  0.1226708E+00
        -11   -1    0    0    0    0  0.00000000000E+00  0.00000000000E+00  0.45593999997E+02  0.45594000000E+02  0.51100000000E-03 0.  1.
         11   -1    0    0    0    0 -0.00000000000E+00 -0.00000000000E+00 -0.45593999997E+02  0.45594000000E+02  0.51100000000E-03 0. -1.
    9900012    2    1    2    0    0 -0.14092935708E+02  0.28223286445E+01 -0.12004262572E+02  0.72461582944E+02  0.70000016479E+02 0.  0.
         24    2    3    3    0    0 -0.15334071531E+02 -0.13278916264E+02 -0.94285194511E+01  0.56108449954E+02  0.51456756702E+02 0.  0.
        -12    1    1    2    0    0  0.14092935708E+02 -0.28223286445E+01  0.12004262572E+02  0.18726417056E+02  0.00000000000E+00 0.  1.
         11    1    3    3    0    0  0.12411358231E+01  0.16101244908E+02 -0.25757431209E+01  0.16353132991E+02  0.51100000000E-03 0. -1.
        -11    1    4    4    0    0 -0.19903790428E+02 -0.11603805712E+02  0.17381359926E+02  0.28860368216E+02  0.51100000000E-03 0.  1.
         12    1    4    4    0    0  0.45697188967E+01 -0.16751105518E+01 -0.26809879378E+02  0.27248081738E+02  0.00000000000E+00 0. -1.
</event>
<event>
 7    1  0.1826069E-013  0.7246159E+02  0.7816164E-02  0.1226708E+00
        -11   -1    0    0    0    0  0.00000000000E+00  0.00000000000E+00  0.45593999997E+02  0.45594000000E+02  0.51100000000E-03 0. -1.
         11   -1    0    0    0    0 -0.00000000000E+00 -0.00000000000E+00 -0.45593999997E+02  0.45594000000E+02  0.51100000000E-03 0.  1.
    9900012    2    1    2    0    0 -0.44323644470E+01  0.12728287149E+01  0.18149723831E+02  0.72461590236E+02  0.70000025977E+02 0.  0.
        -12    1    1    2    0    0  0.44323644470E+01 -0.12728287149E+01 -0.18149723831E+02  0.18726409764E+02  0.00000000000E+00 0.  1.
         11    1    3    3    0    0 -0.16073760033E+02  0.22715482669E+02  0.28656478388E+02  0.39944369670E+02  0.51100000000E-03 0. -1.
        -11    1    3    3    0    0  0.33584906078E+01 -0.23767065497E+01 -0.10978811923E+02  0.11724440485E+02  0.51100000000E-03 0.  1.
         12    1    3    3    0    0  0.82829049781E+01 -0.19065947405E+02  0.47205736566E+00  0.20792780080E+02  0.00000000000E+00 0. -1.
</event>
<event>
 7    1  0.2841830E-013  0.7246170E+02  0.7816164E-02  0.1226708E+00
        -11   -1    0    0    0    0  0.00000000000E+00  0.00000000000E+00  0.45593999997E+02  0.45594000000E+02  0.51100000000E-03 0. -1.
         11   -1    0    0    0    0 -0.00000000000E+00 -0.00000000000E+00 -0.45593999997E+02  0.45594000000E+02  0.51100000000E-03 0.  1.
    9900012    2    1    2    0    0 -0.12806036378E+02 -0.95797935881E+01  0.97420323670E+01  0.72461702781E+02  0.70000172588E+02 0.  0.
        -12    1    1    2    0    0  0.12806036378E+02  0.95797935881E+01 -0.97420323670E+01  0.18726297219E+02  0.00000000000E+00 0.  1.
         11    1    3    3    0    0 -0.36929953386E+01 -0.38119146467E+01  0.30549843372E+02  0.31007448108E+02  0.51100000000E-03 0. -1.
        -11    1    3    3    0    0  0.87421090806E+00  0.11610208743E+02 -0.17678150377E+02  0.21167857539E+02  0.51100000000E-03 0.  1.
         12    1    3    3    0    0 -0.99872519474E+01 -0.17378087685E+02 -0.31296606280E+01  0.20286397134E+02  0.00000000000E+00 0. -1.
</event>
<event>
 7    1  0.1826069E-013  0.7246159E+02  0.7816164E-02  0.1226708E+00
        -11   -1    0    0    0    0  0.00000000000E+00  0.00000000000E+00  0.45593999997E+02  0.45594000000E+02  0.51100000000E-03 0.  1.
         11   -1    0    0    0    0 -0.00000000000E+00 -0.00000000000E+00 -0.45593999997E+02  0.45594000000E+02  0.51100000000E-03 0. -1.
    9900012    2    1    2    0    0 -0.30487405790E+01  0.18055102415E+02 -0.39238654538E+01  0.72461594513E+02  0.70000031550E+02 0.  0.
        -12    1    1    2    0    0  0.30487405790E+01 -0.18055102415E+02  0.39238654538E+01  0.18726405487E+02  0.00000000000E+00 0.  1.
         11    1    3    3    0    0  0.18373784637E+02 -0.13957873580E+01 -0.21804112367E+02  0.28547565581E+02  0.51100000000E-03 0. -1.
        -11    1    3    3    0    0 -0.23661406632E+02  0.15307675271E+02  0.30404329553E+01  0.28344864064E+02  0.51100000000E-03 0.  1.
         12    1    3    3    0    0  0.22388814160E+01  0.41432145020E+01  0.14839813958E+02  0.15569164868E+02  0.00000000000E+00 0. -1.
</event>
<event>
 7    1  0.1826069E-013  0.7246161E+02  0.7816164E-02  0.1226708E+00
        -11   -1    0    0    0    0  0.00000000000E+00  0.00000000000E+00  0.45593999997E+02  0.45594000000E+02  0.51100000000E-03 0.  1.
         11   -1    0    0    0    0 -0.00000000000E+00 -0.00000000000E+00 -0.45593999997E+02  0.45594000000E+02  0.51100000000E-03 0. -1.
    9900012    2    1    2    0    0  0.18131775345E+02  0.44991293238E+01  0.12939857669E+01  0.72461605766E+02  0.70000046209E+02 0.  0.
        -12    1    1    2    0    0 -0.18131775345E+02 -0.44991293238E+01 -0.12939857669E+01  0.18726394234E+02  0.00000000000E+00 0.  1.
         11    1    3    3    0    0 -0.17647797682E+01 -0.18729414634E+02  0.22809665518E+02  0.29566641025E+02  0.51100000000E-03 0. -1.
        -11    1    3    3    0    0  0.33061667897E+01  0.19918847819E+02 -0.11695462433E+02  0.23333989780E+02  0.51100000000E-03 0.  1.
         12    1    3    3    0    0  0.16590388323E+02  0.33096961390E+01 -0.98202173184E+01  0.19560974961E+02  0.00000000000E+00 0. -1.
</event>
<event>
 7    1  0.1826069E-013  0.7246158E+02  0.7816164E-02  0.1226708E+00
        -11   -1    0    0    0    0  0.00000000000E+00  0.00000000000E+00  0.45593999997E+02  0.45594000000E+02  0.51100000000E-03 0.  1.
         11   -1    0    0    0    0 -0.00000000000E+00 -0.00000000000E+00 -0.45593999997E+02  0.45594000000E+02  0.51100000000E-03 0. -1.
    9900012    2    1    2    0    0  0.13227120695E+02 -0.80885359489E+01 -0.10502263347E+02  0.72461583603E+02  0.70000017336E+02 0.  0.
        -12    1    1    2    0    0 -0.13227120695E+02  0.80885359489E+01  0.10502263347E+02  0.18726416397E+02  0.00000000000E+00 0.  1.
         11    1    3    3    0    0  0.29647171694E+01 -0.13372684187E+01 -0.33269015695E+02  0.33427611944E+02  0.51100000000E-03 0. -1.
        -11    1    3    3    0    0  0.17665771379E+02 -0.82343137069E+01  0.55984505805E+01  0.20278709274E+02  0.51100000000E-03 0.  1.
         12    1    3    3    0    0 -0.74033678537E+01  0.14830461767E+01  0.17168301767E+02  0.18755262385E+02  0.00000000000E+00 0. -1.
</event>
<event>
 7    1  0.1826069E-013  0.7246154E+02  0.7816164E-02  0.1226708E+00
        -11   -1    0    0    0    0  0.00000000000E+00  0.00000000000E+00  0.45593999997E+02  0.45594000000E+02  0.51100000000E-03 0.  1.
         11   -1    0    0    0    0 -0.00000000000E+00 -0.00000000000E+00 -0.45593999997E+02  0.45594000000E+02  0.51100000000E-03 0. -1.
    9900012    2    1    2    0    0 -0.53237840466E+01 -0.17590399749E+02  0.35938169292E+01  0.72461538507E+02  0.69999958591E+02 0.  0.
        -12    1    1    2    0    0  0.53237840466E+01  0.17590399749E+02 -0.35938169292E+01  0.18726461493E+02  0.00000000000E+00 0.  1.
         11    1    3    3    0    0 -0.20219728282E+02 -0.88276709260E+00  0.30592139002E+02  0.36680998603E+02  0.51100000000E-03 0. -1.
        -11    1    3    3    0    0  0.87763899576E+01 -0.52305658812E+01 -0.92912390446E+01  0.13809814024E+02  0.51100000000E-03 0.  1.
         12    1    3    3    0    0  0.61195542783E+01 -0.11477066776E+02 -0.17707083028E+02  0.21970725880E+02  0.00000000000E+00 0. -1.
</event>
<event>
 7    1  0.1826069E-013  0.7246164E+02  0.7816164E-02  0.1226708E+00
        -11   -1    0    0    0    0  0.00000000000E+00  0.00000000000E+00  0.45593999997E+02  0.45594000000E+02  0.51100000000E-03 0. -1.
         11   -1    0    0    0    0 -0.00000000000E+00 -0.00000000000E+00 -0.45593999997E+02  0.45594000000E+02  0.51100000000E-03 0.  1.
    9900012    2    1    2    0    0 -0.18677956239E+02 -0.87729596057E+00  0.10201911815E+01  0.72461641904E+02  0.70000093285E+02 0.  0.
        -12    1    1    2    0    0  0.18677956239E+02  0.87729596057E+00 -0.10201911815E+01  0.18726358096E+02  0.00000000000E+00 0.  1.
         11    1    3    3    0    0 -0.33993426203E+02 -0.80363929410E+01  0.11744842052E+02  0.36852109188E+02  0.51100000000E-03 0. -1.
        -11    1    3    3    0    0  0.55394959620E+01  0.17267525207E+02 -0.11588197866E+02  0.21520682432E+02  0.51100000000E-03 0.  1.
         12    1    3    3    0    0  0.97759740023E+01 -0.10108428227E+02  0.86354699558E+00  0.14088850284E+02  0.00000000000E+00 0. -1.
</event>
<event>
 7    1  0.1826069E-013  0.7246160E+02  0.7816164E-02  0.1226708E+00
        -11   -1    0    0    0    0  0.00000000000E+00  0.00000000000E+00  0.45593999997E+02  0.45594000000E+02  0.51100000000E-03 0.  1.
         11   -1    0    0    0    0 -0.00000000000E+00 -0.00000000000E+00 -0.45593999997E+02  0.45594000000E+02  0.51100000000E-03 0. -1.
    9900012    2    1    2    0    0 -0.40847803325E+01 -0.10060610782E+02 -0.15257023361E+02  0.72461599345E+02  0.70000037843E+02 0.  0.
        -12    1    1    2    0    0  0.40847803325E+01  0.10060610782E+02  0.15257023361E+02  0.18726400655E+02  0.00000000000E+00 0.  1.
         11    1    3    3    0    0 -0.19096397424E+02  0.64389043860E+01 -0.12019485708E+02  0.23464865676E+02  0.51100000000E-03 0. -1.
        -11    1    3    3    0    0 -0.15437555805E+01 -0.27788568192E+02 -0.67863766881E+01  0.28646860426E+02  0.51100000000E-03 0.  1.
         12    1    3    3    0    0  0.16555372672E+02  0.11289053024E+02  0.35488390355E+01  0.20349873242E+02  0.00000000000E+00 0. -1.
</event>
<event>
 7    1  0.1826069E-013  0.7246156E+02  0.7816164E-02  0.1226708E+00
        -11   -1    0    0    0    0  0.00000000000E+00  0.00000000000E+00  0.45593999997E+02  0.45594000000E+02  0.51100000000E-03 0.  1.
         11   -1    0    0    0    0 -0.00000000000E+00 -0.00000000000E+00 -0.45593999997E+02  0.45594000000E+02  0.51100000000E-03 0. -1.
    9900012    2    1    2    0    0 -0.13655234664E+02  0.42607563535E+01 -0.12085532662E+02  0.72461559384E+02  0.69999985787E+02 0.  0.
        -12    1    1    2    0    0  0.13655234664E+02 -0.42607563535E+01  0.12085532662E+02  0.18726440616E+02  0.00000000000E+00 0.  1.
         11    1    3    3    0    0 -0.21080926088E+02  0.12306587329E+02 -0.18435435712E+02  0.30589586897E+02  0.51100000000E-03 0. -1.
        -11    1    3    3    0    0 -0.10612466263E+02 -0.52679365974E+01  0.17014838369E+02  0.20733555439E+02  0.51100000000E-03 0.  1.
         12    1    3    3    0    0  0.18038157687E+02 -0.27778943780E+01 -0.10664935319E+02  0.21138417048E+02  0.00000000000E+00 0. -1.
</event>
<event>
 7    1  0.1826069E-013  0.7246158E+02  0.7816164E-02  0.1226708E+00
        -11   -1    0    0    0    0  0.00000000000E+00  0.00000000000E+00  0.45593999997E+02  0.45594000000E+02  0.51100000000E-03 0.  1.
         11   -1    0    0    0    0 -0.00000000000E+00 -0.00000000000E+00 -0.45593999997E+02  0.45594000000E+02  0.51100000000E-03 0. -1.
    9900012    2    1    2    0    0 -0.77792891037E+01 -0.23741025512E+01 -0.16867872066E+02  0.72461579896E+02  0.70000012508E+02 0.  0.
        -12    1    1    2    0    0  0.77792891037E+01  0.23741025512E+01  0.16867872066E+02  0.18726420104E+02  0.00000000000E+00 0.  1.
         11    1    3    3    0    0 -0.10713689615E+02 -0.20807702675E+02 -0.24309828562E+02  0.33744798129E+02  0.51100000000E-03 0. -1.
        -11    1    3    3    0    0 -0.47783330781E+01  0.26108873452E+02  0.21846749787E+01  0.26632283886E+02  0.51100000000E-03 0.  1.
        -12    1    3    3    0    0  0.77127335894E+01 -0.76752733279E+01  0.52572815180E+01  0.12084497881E+02  0.00000000000E+00 0.  1.
</event>
<event>
 7    1  0.2388316E-013  0.7246214E+02  0.7816164E-02  0.1226706E+00
        -11   -1    0    0    0    0  0.00000000000E+00  0.00000000000E+00  0.45593999997E+02  0.45594000000E+02  0.51100000000E-03 0. -1.
         11   -1    0    0    0    0 -0.00000000000E+00 -0.00000000000E+00 -0.45593999997E+02  0.45594000000E+02  0.51100000000E-03 0.  1.
    9900012    2    1    2    0    0 -0.11126480144E+02 -0.11267575829E+01  0.15019638457E+02  0.72462144014E+02  0.70000747372E+02 0.  0.
        -12    1    1    2    0    0  0.11126480144E+02  0.11267575829E+01 -0.15019638457E+02  0.18725855986E+02  0.00000000000E+00 0.  1.
         11    1    3    3    0    0 -0.11890690864E+02 -0.18802642284E+00  0.26256373284E+02  0.28823966095E+02  0.51100000000E-03 0. -1.
        -11    1    3    3    0    0  0.20888478036E+02  0.43407436314E+01 -0.49131755724E+01  0.21893146517E+02  0.51100000000E-03 0.  1.
        -12    1    3    3    0    0 -0.20124267315E+02 -0.52794747915E+01 -0.63235592540E+01  0.21745031402E+02  0.00000000000E+00 0.  1.
</event>
<event>
 7    1  0.1826069E-013  0.7246156E+02  0.7816164E-02  0.1226708E+00
        -11   -1    0    0    0    0  0.00000000000E+00  0.00000000000E+00  0.45593999997E+02  0.45594000000E+02  0.51100000000E-03 0.  1.
         11   -1    0    0    0    0 -0.00000000000E+00 -0.00000000000E+00 -0.45593999997E+02  0.45594000000E+02  0.51100000000E-03 0. -1.
    9900012    2    1    2    0    0 -0.71261039239E+01 -0.13074053358E+02 -0.11356372944E+02  0.72461563212E+02  0.69999990774E+02 0.  0.
        -12    1    1    2    0    0  0.71261039239E+01  0.13074053358E+02  0.11356372944E+02  0.18726436788E+02  0.00000000000E+00 0.  1.
         11    1    3    3    0    0  0.14981560937E+02  0.13805040093E+02 -0.42157065712E+01  0.20803809321E+02  0.51100000000E-03 0. -1.
        -11    1    3    3    0    0 -0.15234519852E+02 -0.31145358805E+02  0.69957157894E+01  0.35370383231E+02  0.51100000000E-03 0.  1.
        -12    1    3    3    0    0 -0.68731450095E+01  0.42662653539E+01 -0.14136382162E+02  0.16287370660E+02  0.00000000000E+00 0.  1.
</event>
<event>
 7    1  0.1826069E-013  0.7246156E+02  0.7816164E-02  0.1226708E+00
        -11   -1    0    0    0    0  0.00000000000E+00  0.00000000000E+00  0.45593999997E+02  0.45594000000E+02  0.51100000000E-03 0.  1.
         11   -1    0    0    0    0 -0.00000000000E+00 -0.00000000000E+00 -0.45593999997E+02  0.45594000000E+02  0.51100000000E-03 0. -1.
    9900012    2    1    2    0    0  0.14152000232E+02 -0.36920603546E+01 -0.11694831966E+02  0.72461561071E+02  0.69999987985E+02 0.  0.
        -12    1    1    2    0    0 -0.14152000232E+02  0.36920603546E+01  0.11694831966E+02  0.18726438929E+02  0.00000000000E+00 0.  1.
         11    1    3    3    0    0  0.23811121243E+02  0.78719854977E+00  0.13376768697E+02  0.27322648434E+02  0.51100000000E-03 0.  1.
        -11    1    3    3    0    0 -0.18918836152E+02  0.82326650879E+01 -0.19680840924E+02  0.28513762213E+02  0.51100000000E-03 0. -1.
         12    1    3    3    0    0  0.92597151415E+01 -0.12711923992E+02 -0.53907597388E+01  0.16625150425E+02  0.00000000000E+00 0. -1.
</event>
<event>
 7    1  0.1826069E-013  0.7246164E+02  0.7816164E-02  0.1226708E+00
        -11   -1    0    0    0    0  0.00000000000E+00  0.00000000000E+00  0.45593999997E+02  0.45594000000E+02  0.51100000000E-03 0.  1.
         11   -1    0    0    0    0 -0.00000000000E+00 -0.00000000000E+00 -0.45593999997E+02  0.45594000000E+02  0.51100000000E-03 0. -1.
    9900012    2    1    2    0    0  0.26300271015E+01  0.43154764278E+01 -0.18031531651E+02  0.72461641223E+02  0.70000092398E+02 0.  0.
        -12    1    1    2    0    0 -0.26300271015E+01 -0.43154764278E+01  0.18031531651E+02  0.18726358777E+02  0.00000000000E+00 0.  1.
         11    1    3    3    0    0  0.50204103281E+01  0.21704493054E+02 -0.36456898110E+02  0.42724641118E+02  0.51100000000E-03 0. -1.
        -11    1    3    3    0    0  0.64530623597E+01 -0.87834598726E+01  0.10034260224E+02  0.14814775045E+02  0.51100000000E-03 0.  1.
         12    1    3    3    0    0 -0.88434455864E+01 -0.86055567539E+01  0.83911062351E+01  0.14922225060E+02  0.00000000000E+00 0. -1.
</event>
<event>
 7    1  0.1826069E-013  0.7246158E+02  0.7816164E-02  0.1226708E+00
        -11   -1    0    0    0    0  0.00000000000E+00  0.00000000000E+00  0.45593999997E+02  0.45594000000E+02  0.51100000000E-03 0.  1.
         11   -1    0    0    0    0 -0.00000000000E+00 -0.00000000000E+00 -0.45593999997E+02  0.45594000000E+02  0.51100000000E-03 0. -1.
    9900012    2    1    2    0    0  0.66855556268E+01 -0.14263473905E+02  0.10125977981E+02  0.72461580909E+02  0.70000013828E+02 0.  0.
        -12    1    1    2    0    0 -0.66855556268E+01  0.14263473905E+02 -0.10125977981E+02  0.18726419091E+02  0.00000000000E+00 0.  1.
         11    1    3    3    0    0 -0.17497145443E+02 -0.19587309113E+02  0.17077422650E+02  0.31328120620E+02  0.51100000000E-03 0.  1.
        -11    1    3    3    0    0  0.22639492970E+02  0.16351103783E+02 -0.98750539570E+01  0.29621308677E+02  0.51100000000E-03 0. -1.
        -12    1    3    3    0    0  0.15432081000E+01 -0.11027268575E+02  0.29236092884E+01  0.11512151612E+02  0.00000000000E+00 0.  1.
</event>
<event>
 7    1  0.1826069E-013  0.7246158E+02  0.7816164E-02  0.1226708E+00
        -11   -1    0    0    0    0  0.00000000000E+00  0.00000000000E+00  0.45593999997E+02  0.45594000000E+02  0.51100000000E-03 0.  1.
         11   -1    0    0    0    0 -0.00000000000E+00 -0.00000000000E+00 -0.45593999997E+02  0.45594000000E+02  0.51100000000E-03 0. -1.
    9900012    2    1    2    0    0 -0.15797850623E+02 -0.39854900212E+01 -0.92316073114E+01  0.72461580466E+02  0.70000013250E+02 0.  0.
        -12    1    1    2    0    0  0.15797850623E+02  0.39854900212E+01  0.92316073114E+01  0.18726419534E+02  0.00000000000E+00 0.  1.
         11    1    3    3    0    0 -0.42278247284E+01 -0.34717286556E+02  0.10846848914E+01  0.34990584867E+02  0.51100000000E-03 0. -1.
        -11    1    3    3    0    0 -0.37542973419E+00  0.13312051687E+01  0.30042949492E+01  0.33073921887E+01  0.51100000000E-03 0.  1.
         12    1    3    3    0    0 -0.11194596161E+02  0.29400591366E+02 -0.13320587152E+02  0.34163603410E+02  0.00000000000E+00 0. -1.
</event>
<event>
 7    1  0.1826069E-013  0.7246151E+02  0.7816164E-02  0.1226708E+00
        -11   -1    0    0    0    0  0.00000000000E+00  0.00000000000E+00  0.45593999997E+02  0.45594000000E+02  0.51100000000E-03 0.  1.
         11   -1    0    0    0    0 -0.00000000000E+00 -0.00000000000E+00 -0.45593999997E+02  0.45594000000E+02  0.51100000000E-03 0. -1.
    9900012    2    1    2    0    0 -0.10441313070E+02  0.12525154307E+02 -0.92076617618E+01  0.72461506891E+02  0.69999917405E+02 0.  0.
        -12    1    1    2    0    0  0.10441313070E+02 -0.12525154307E+02  0.92076617618E+01  0.18726493109E+02  0.00000000000E+00 0.  1.
         11    1    3    3    0    0  0.74329420018E+01 -0.21217531795E+02 -0.12421816959E+02  0.25685284096E+02  0.51100000000E-03 0. -1.
        -11    1    3    3    0    0 -0.46827080423E+01  0.14163434324E+02  0.14326794907E+02  0.20683028768E+02  0.51100000000E-03 0.  1.
         12    1    3    3    0    0 -0.13191547030E+02  0.19579251777E+02 -0.11112639709E+02  0.26093194027E+02  0.00000000000E+00 0. -1.
</event>
<event>
 7    1  0.1826069E-013  0.7246151E+02  0.7816164E-02  0.1226708E+00
        -11   -1    0    0    0    0  0.00000000000E+00  0.00000000000E+00  0.45593999997E+02  0.45594000000E+02  0.51100000000E-03 0. -1.
         11   -1    0    0    0    0 -0.00000000000E+00 -0.00000000000E+00 -0.45593999997E+02  0.45594000000E+02  0.51100000000E-03 0.  1.
    9900012    2    1    2    0    0 -0.65372193498E+01  0.15362977087E+02  0.84808663629E+01  0.72461510845E+02  0.69999922556E+02 0.  0.
        -12    1    1    2    0    0  0.65372193498E+01 -0.15362977087E+02 -0.84808663629E+01  0.18726489155E+02  0.00000000000E+00 0.  1.
         11    1    3    3    0    0  0.18344260453E+02 -0.12562940069E+00 -0.12057625518E+02  0.21952539892E+02  0.51100000000E-03 0.  1.
        -11    1    3    3    0    0 -0.29593129820E+02  0.22760786839E+02  0.18200944383E+02  0.41534095954E+02  0.51100000000E-03 0. -1.
         12    1    3    3    0    0  0.47116500173E+01 -0.72721803513E+01  0.23375474975E+01  0.89748749992E+01  0.00000000000E+00 0. -1.
</event>
<event>
 7    1  0.1826069E-013  0.7246158E+02  0.7816164E-02  0.1226708E+00
        -11   -1    0    0    0    0  0.00000000000E+00  0.00000000000E+00  0.45593999997E+02  0.45594000000E+02  0.51100000000E-03 0.  1.
         11   -1    0    0    0    0 -0.00000000000E+00 -0.00000000000E+00 -0.45593999997E+02  0.45594000000E+02  0.51100000000E-03 0. -1.
    9900012    2    1    2    0    0  0.13251725586E+02  0.11443159534E+02  0.66426315200E+01  0.72461583241E+02  0.70000016865E+02 0.  0.
        -12    1    1    2    0    0 -0.13251725586E+02 -0.11443159534E+02 -0.66426315200E+01  0.18726416759E+02  0.00000000000E+00 0.  1.
         11    1    3    3    0    0  0.13628144195E+02  0.84145921767E+01 -0.40623152180E+01  0.16523742945E+02  0.51100000000E-03 0. -1.
        -11    1    3    3    0    0 -0.24219733698E+02  0.85522604915E+01  0.16830254950E+02  0.30708209681E+02  0.51100000000E-03 0.  1.
        -12    1    3    3    0    0  0.23843315089E+02 -0.55236931345E+01 -0.61253082119E+01  0.25229630615E+02  0.00000000000E+00 0.  1.
</event>
<event>
 7    1  0.1826069E-013  0.7246156E+02  0.7816164E-02  0.1226708E+00
        -11   -1    0    0    0    0  0.00000000000E+00  0.00000000000E+00  0.45593999997E+02  0.45594000000E+02  0.51100000000E-03 0. -1.
         11   -1    0    0    0    0 -0.00000000000E+00 -0.00000000000E+00 -0.45593999997E+02  0.45594000000E+02  0.51100000000E-03 0.  1.
    9900012    2    1    2    0    0 -0.20564161433E+01 -0.97278853890E+01  0.15868802580E+02  0.72461561556E+02  0.69999988616E+02 0.  0.
        -12    1    1    2    0    0  0.20564161433E+01  0.97278853890E+01 -0.15868802580E+02  0.18726438444E+02  0.00000000000E+00 0.  1.
         11    1    3    3    0    0  0.25776571233E+02  0.14149989486E+02  0.59625599715E+01  0.30003432282E+02  0.51100000000E-03 0. -1.
        -11    1    3    3    0    0 -0.80705246496E+01 -0.18127355375E+02  0.91795852995E+01  0.21863192071E+02  0.51100000000E-03 0.  1.
         12    1    3    3    0    0 -0.19762462727E+02 -0.57505194999E+01  0.72665730865E+00  0.20594937203E+02  0.00000000000E+00 0. -1.
</event>
<event>
 7    1  0.1826069E-013  0.7246104E+02  0.7816164E-02  0.1226709E+00
        -11   -1    0    0    0    0  0.00000000000E+00  0.00000000000E+00  0.45593999997E+02  0.45594000000E+02  0.51100000000E-03 0.  1.
         11   -1    0    0    0    0 -0.00000000000E+00 -0.00000000000E+00 -0.45593999997E+02  0.45594000000E+02  0.51100000000E-03 0. -1.
    9900012    2    1    2    0    0  0.12339140562E+02 -0.13602461247E+02 -0.36629926404E+01  0.72461044645E+02  0.69999315241E+02 0.  0.
        -12    1    1    2    0    0 -0.12339140562E+02  0.13602461247E+02  0.36629926404E+01  0.18726955355E+02  0.00000000000E+00 0.  1.
         11    1    3    3    0    0 -0.13978273502E+02 -0.16472845875E+02 -0.24588474320E+01  0.21743797099E+02  0.51100000000E-03 0. -1.
        -11    1    3    3    0    0  0.36922057774E+02  0.19850550411E+01 -0.83404747870E+01  0.37904383833E+02  0.51100000000E-03 0.  1.
        -12    1    3    3    0    0 -0.10604643710E+02  0.88532958687E+00  0.71363295786E+01  0.12812863714E+02  0.00000000000E+00 0.  1.
</event>
<event>
 7    1  0.1826069E-013  0.7246155E+02  0.7816164E-02  0.1226708E+00
        -11   -1    0    0    0    0  0.00000000000E+00  0.00000000000E+00  0.45593999997E+02  0.45594000000E+02  0.51100000000E-03 0. -1.
         11   -1    0    0    0    0 -0.00000000000E+00 -0.00000000000E+00 -0.45593999997E+02  0.45594000000E+02  0.51100000000E-03 0.  1.
    9900012    2    1    2    0    0  0.25283037047E+01  0.18352317567E+02  0.27349494429E+01  0.72461552709E+02  0.69999977092E+02 0.  0.
        -12    1    1    2    0    0 -0.25283037047E+01 -0.18352317567E+02 -0.27349494429E+01  0.18726447291E+02  0.00000000000E+00 0.  1.
         11    1    3    3    0    0 -0.11488779285E+02  0.37017700159E+01 -0.13397290400E+02  0.18032818444E+02  0.51100000000E-03 0.  1.
        -11    1    3    3    0    0  0.87832247663E+00  0.24070006715E+02  0.26037158518E+02  0.35469286680E+02  0.51100000000E-03 0. -1.
        -12    1    3    3    0    0  0.13138760513E+02 -0.94194591640E+01 -0.99049186747E+01  0.18959447585E+02  0.00000000000E+00 0.  1.
</event>
<event>
 7    1  0.1826069E-013  0.7246179E+02  0.7816164E-02  0.1226707E+00
        -11   -1    0    0    0    0  0.00000000000E+00  0.00000000000E+00  0.45593999997E+02  0.45594000000E+02  0.51100000000E-03 0.  1.
         11   -1    0    0    0    0 -0.00000000000E+00 -0.00000000000E+00 -0.45593999997E+02  0.45594000000E+02  0.51100000000E-03 0. -1.
    9900012    2    1    2    0    0  0.14427797376E+02 -0.11270421260E+02 -0.39353991832E+01  0.72461785774E+02  0.70000280702E+02 0.  0.
        -12    1    1    2    0    0 -0.14427797376E+02  0.11270421260E+02  0.39353991832E+01  0.18726214226E+02  0.00000000000E+00 0.  1.
         11    1    3    3    0    0  0.12563105253E+02 -0.24995747679E+02 -0.30552912656E+02  0.41425831165E+02  0.51100000000E-03 0. -1.
        -11    1    3    3    0    0  0.15066879524E+01  0.50048101996E+00  0.82414442027E+01  0.83929728133E+01  0.51100000000E-03 0.  1.
         12    1    3    3    0    0  0.35800417034E+00  0.13224845399E+02  0.18376069270E+02  0.22642981796E+02  0.00000000000E+00 0. -1.
</event>
<event>
 7    1  0.1826069E-013  0.7246192E+02  0.7816164E-02  0.1226707E+00
        -11   -1    0    0    0    0  0.00000000000E+00  0.00000000000E+00  0.45593999997E+02  0.45594000000E+02  0.51100000000E-03 0.  1.
         11   -1    0    0    0    0 -0.00000000000E+00 -0.00000000000E+00 -0.45593999997E+02  0.45594000000E+02  0.51100000000E-03 0. -1.
    9900012    2    1    2    0    0  0.18349051346E+02 -0.25114011937E+01 -0.27697153485E+01  0.72461918072E+02  0.70000453043E+02 0.  0.
        -12    1    1    2    0    0 -0.18349051346E+02  0.25114011937E+01  0.27697153485E+01  0.18726081928E+02  0.00000000000E+00 0.  1.
         11    1    3    3    0    0  0.23726589747E+02 -0.12332819471E+02  0.18492562626E+02  0.32511911200E+02  0.51100000000E-03 0. -1.
        -11    1    3    3    0    0 -0.12015866566E+02 -0.62581907134E-01  0.34649039154E+01  0.12505619746E+02  0.51100000000E-03 0.  1.
         12    1    3    3    0    0  0.66383281657E+01  0.98840001849E+01 -0.24727181890E+02  0.27444387126E+02  0.00000000000E+00 0. -1.
</event>
<event>
 7    1  0.1826069E-013  0.7246147E+02  0.7816164E-02  0.1226708E+00
        -11   -1    0    0    0    0  0.00000000000E+00  0.00000000000E+00  0.45593999997E+02  0.45594000000E+02  0.51100000000E-03 0. -1.
         11   -1    0    0    0    0 -0.00000000000E+00 -0.00000000000E+00 -0.45593999997E+02  0.45594000000E+02  0.51100000000E-03 0.  1.
    9900012    2    1    2    0    0 -0.10106366299E+02 -0.15762748759E+02 -0.28271192477E+00  0.72461472980E+02  0.69999873229E+02 0.  0.
        -12    1    1    2    0    0  0.10106366299E+02  0.15762748759E+02  0.28271192477E+00  0.18726527020E+02  0.00000000000E+00 0.  1.
         11    1    3    3    0    0  0.81103210221E+01 -0.18382490688E+02  0.70883376881E+01  0.21305816164E+02  0.51100000000E-03 0. -1.
        -11    1    3    3    0    0 -0.30148674683E+02  0.28383614861E+01  0.83556181787E+01  0.31413615463E+02  0.51100000000E-03 0.  1.
        -12    1    3    3    0    0  0.11931987362E+02 -0.21861955704E+00 -0.15726667792E+02  0.19742041352E+02  0.00000000000E+00 0.  1.
</event>
