<event>
 7    1  0.2838209E-011  0.5052890E+02  0.7816164E-02  0.1300439E+00
        -11   -1    0    0    0    0  0.00000000000E+00  0.00000000000E+00  0.45593999997E+02  0.45594000000E+02  0.51100000000E-03 0. -1.
         11   -1    0    0    0    0 -0.00000000000E+00 -0.00000000000E+00 -0.45593999997E+02  0.45594000000E+02  0.51100000000E-03 0.  1.
    9900012    2    1    2    0    0  0.23154771319E+02 -0.26358505835E+02 -0.20548687407E+02  0.50528895007E+02  0.30000106862E+02 0.  0.
         12    1    1    2    0    0 -0.23154771319E+02  0.26358505835E+02  0.20548687407E+02  0.40659104993E+02  0.00000000000E+00 0. -1.
         11    1    3    3    0    0  0.39621194474E+01  0.35258225075E+01 -0.30247264899E+01  0.61056355500E+01  0.51100000000E-03 0. -1.
        -11    1    3    3    0    0  0.19620157994E+01 -0.17630020779E+01 -0.10337889799E+02  0.10669097810E+02  0.51100000000E-03 0.  1.
        -12    1    3    3    0    0  0.17230636072E+02 -0.28121326265E+02 -0.71860711185E+01  0.33754161647E+02  0.00000000000E+00 0.  1.
</event>
<event>
 7    1  0.2838209E-011  0.5052887E+02  0.7816164E-02  0.1300439E+00
        -11   -1    0    0    0    0  0.00000000000E+00  0.00000000000E+00  0.45593999997E+02  0.45594000000E+02  0.51100000000E-03 0.  1.
         11   -1    0    0    0    0 -0.00000000000E+00 -0.00000000000E+00 -0.45593999997E+02  0.45594000000E+02  0.51100000000E-03 0. -1.
    9900012    2    1    2    0    0 -0.22798663057E+02  0.25430345478E+02  0.22060908066E+02  0.50528866057E+02  0.30000018866E+02 0.  0.
         12    1    1    2    0    0  0.22798663057E+02 -0.25430345478E+02 -0.22060908066E+02  0.40659133943E+02  0.00000000000E+00 0. -1.
         11    1    3    3    0    0 -0.20777313537E+02  0.12490485151E+02  0.25522891742E+02  0.35201235493E+02  0.51100000000E-03 0. -1.
        -11    1    3    3    0    0  0.10400626075E+01 -0.23393817774E-01  0.83270021812E+00  0.13325417114E+01  0.51100000000E-03 0.  1.
         12    1    3    3    0    0 -0.30614121276E+01  0.12963254145E+02 -0.42946838936E+01  0.13995088852E+02  0.00000000000E+00 0. -1.
</event>
<event>
 7    1  0.2838209E-011  0.5052886E+02  0.7816164E-02  0.1300439E+00
        -11   -1    0    0    0    0  0.00000000000E+00  0.00000000000E+00  0.45593999997E+02  0.45594000000E+02  0.51100000000E-03 0.  1.
         11   -1    0    0    0    0 -0.00000000000E+00 -0.00000000000E+00 -0.45593999997E+02  0.45594000000E+02  0.51100000000E-03 0. -1.
    9900012    2    1    2    0    0  0.35941233274E+02  0.16876735516E+02  0.87503918079E+01  0.50528858252E+02  0.29999995143E+02 0.  0.
         12    1    1    2    0    0 -0.35941233274E+02 -0.16876735516E+02 -0.87503918079E+01  0.40659141748E+02  0.00000000000E+00 0. -1.
         11    1    3    3    0    0  0.98503100120E+01  0.13192924094E+02  0.33117174209E+01  0.16794324221E+02  0.51100000000E-03 0. -1.
        -11    1    3    3    0    0  0.96814279185E+01  0.99894538623E+01  0.78777436779E+01  0.15986809586E+02  0.51100000000E-03 0.  1.
         12    1    3    3    0    0  0.16409495343E+02 -0.63056424407E+01 -0.24390692909E+01  0.17747724446E+02  0.00000000000E+00 0. -1.
</event>
<event>
 7    1  0.2838209E-011  0.5052886E+02  0.7816164E-02  0.1300439E+00
        -11   -1    0    0    0    0  0.00000000000E+00  0.00000000000E+00  0.45593999997E+02  0.45594000000E+02  0.51100000000E-03 0.  1.
         11   -1    0    0    0    0 -0.00000000000E+00 -0.00000000000E+00 -0.45593999997E+02  0.45594000000E+02  0.51100000000E-03 0. -1.
    9900012    2    1    2    0    0 -0.22969518409E+02  0.75005538054E+00  0.33541080023E+02  0.50528863166E+02  0.30000010080E+02 0.  0.
         12    1    1    2    0    0  0.22969518409E+02 -0.75005538054E+00 -0.33541080023E+02  0.40659136834E+02  0.00000000000E+00 0. -1.
         11    1    3    3    0    0  0.78223160145E+00 -0.37371477448E+01  0.78498690969E+00  0.38979949017E+01  0.51100000000E-03 0. -1.
        -11    1    3    3    0    0 -0.83365035367E+01 -0.84323694121E+01  0.63926562641E+01  0.13471013306E+02  0.51100000000E-03 0.  1.
        -12    1    3    3    0    0 -0.15415246473E+02  0.12919572537E+02  0.26363436849E+02  0.33159854958E+02  0.00000000000E+00 0.  1.
</event>
<event>
 7    1  0.2838209E-011  0.5052886E+02  0.7816164E-02  0.1300439E+00
        -11   -1    0    0    0    0  0.00000000000E+00  0.00000000000E+00  0.45593999997E+02  0.45594000000E+02  0.51100000000E-03 0.  1.
         11   -1    0    0    0    0 -0.00000000000E+00 -0.00000000000E+00 -0.45593999997E+02  0.45594000000E+02  0.51100000000E-03 0. -1.
    9900012    2    1    2    0    0  0.16681137167E+02  0.17724010303E+02  0.32569387793E+02  0.50528857121E+02  0.29999991706E+02 0.  0.
         12    1    1    2    0    0 -0.16681137167E+02 -0.17724010303E+02 -0.32569387793E+02  0.40659142879E+02  0.00000000000E+00 0. -1.
         11    1    3    3    0    0  0.85510416379E+01  0.50127102963E+01  0.98260655530E+01  0.13957046325E+02  0.51100000000E-03 0. -1.
        -11    1    3    3    0    0  0.10300123401E+02  0.19204214920E+02  0.17131314420E+02  0.27719602212E+02  0.51100000000E-03 0.  1.
         12    1    3    3    0    0 -0.21700278720E+01 -0.64929149135E+01  0.56120078200E+01  0.88522085838E+01  0.00000000000E+00 0. -1.
</event>
<event>
 7    1  0.2838209E-011  0.5052886E+02  0.7816164E-02  0.1300439E+00
        -11   -1    0    0    0    0  0.00000000000E+00  0.00000000000E+00  0.45593999997E+02  0.45594000000E+02  0.51100000000E-03 0. -1.
         11   -1    0    0    0    0 -0.00000000000E+00 -0.00000000000E+00 -0.45593999997E+02  0.45594000000E+02  0.51100000000E-03 0.  1.
    9900012    2    1    2    0    0 -0.38891033986E+02  0.10730331817E+01 -0.11811099959E+02  0.50528855802E+02  0.29999987695E+02 0.  0.
         12    1    1    2    0    0  0.38891033986E+02 -0.10730331817E+01  0.11811099959E+02  0.40659144198E+02  0.00000000000E+00 0. -1.
         11    1    3    3    0    0 -0.76916987417E+01  0.87456332349E+01 -0.68382690645E+01  0.13505934039E+02  0.51100000000E-03 0. -1.
        -11    1    3    3    0    0 -0.12441819632E+02  0.50960454688E+01 -0.49633253687E+01  0.14331892901E+02  0.51100000000E-03 0.  1.
         12    1    3    3    0    0 -0.18757515613E+02 -0.12768645522E+02 -0.95055259042E-02  0.22691028861E+02  0.00000000000E+00 0. -1.
</event>
<event>
 7    1  0.2838209E-011  0.5052886E+02  0.7816164E-02  0.1300439E+00
        -11   -1    0    0    0    0  0.00000000000E+00  0.00000000000E+00  0.45593999997E+02  0.45594000000E+02  0.51100000000E-03 0.  1.
         11   -1    0    0    0    0 -0.00000000000E+00 -0.00000000000E+00 -0.45593999997E+02  0.45594000000E+02  0.51100000000E-03 0. -1.
    9900012    2    1    2    0    0  0.43265379315E+01 -0.33678613753E+02  0.22365093923E+02  0.50528863499E+02  0.30000011092E+02 0.  0.
         12    1    1    2    0    0 -0.43265379315E+01  0.33678613753E+02 -0.22365093923E+02  0.40659136501E+02  0.00000000000E+00 0. -1.
         11    1    3    3    0    0 -0.72535914898E+01  0.10836930930E+01  0.75528510657E+01  0.10527798426E+02  0.51100000000E-03 0. -1.
        -11    1    3    3    0    0 -0.98970904929E-01 -0.58504850064E+01  0.35715113544E+01  0.68551924601E+01  0.51100000000E-03 0.  1.
        -12    1    3    3    0    0  0.11679100326E+02 -0.28911821840E+02  0.11240731503E+02  0.33145872613E+02  0.00000000000E+00 0.  1.
</event>
<event>
 7    1  0.2838209E-011  0.5052887E+02  0.7816164E-02  0.1300439E+00
        -11   -1    0    0    0    0  0.00000000000E+00  0.00000000000E+00  0.45593999997E+02  0.45594000000E+02  0.51100000000E-03 0. -1.
         11   -1    0    0    0    0 -0.00000000000E+00 -0.00000000000E+00 -0.45593999997E+02  0.45594000000E+02  0.51100000000E-03 0.  1.
    9900012    2    1    2    0    0 -0.22940876476E+02 -0.59911783811E+01 -0.33030083908E+02  0.50528874642E+02  0.30000044962E+02 0.  0.
         12    1    1    2    0    0  0.22940876476E+02  0.59911783811E+01  0.33030083908E+02  0.40659125358E+02  0.00000000000E+00 0. -1.
         11    1    3    3    0    0 -0.16314706647E+00 -0.60431786801E+01  0.37677861271E+01  0.71234007388E+01  0.51100000000E-03 0. -1.
        -11    1    3    3    0    0 -0.34483794070E+00  0.37727465362E+00 -0.40162325644E+00  0.65003913024E+00  0.51100000000E-03 0.  1.
        -12    1    3    3    0    0 -0.22432891469E+02 -0.32527435464E+00 -0.36396246779E+02  0.42755434773E+02  0.00000000000E+00 0.  1.
</event>
<event>
 7    1  0.2838209E-011  0.5052886E+02  0.7816164E-02  0.1300439E+00
        -11   -1    0    0    0    0  0.00000000000E+00  0.00000000000E+00  0.45593999997E+02  0.45594000000E+02  0.51100000000E-03 0. -1.
         11   -1    0    0    0    0 -0.00000000000E+00 -0.00000000000E+00 -0.45593999997E+02  0.45594000000E+02  0.51100000000E-03 0.  1.
    9900012    2    1    2    0    0  0.17122298763E+02 -0.36730115939E+02 -0.33001919356E+01  0.50528858363E+02  0.29999995480E+02 0.  0.
         12    1    1    2    0    0 -0.17122298763E+02  0.36730115939E+02  0.33001919356E+01  0.40659141637E+02  0.00000000000E+00 0. -1.
         11    1    3    3    0    0  0.44635267648E+01 -0.25159869343E+02  0.10502119711E+02  0.27626737325E+02  0.51100000000E-03 0. -1.
        -11    1    3    3    0    0  0.87930657128E+01 -0.37660293167E+01 -0.71059498944E+01  0.11916186706E+02  0.51100000000E-03 0.  1.
        -12    1    3    3    0    0  0.38657062854E+01 -0.78042172796E+01 -0.66963617523E+01  0.10985934332E+02  0.00000000000E+00 0.  1.
</event>
<event>
 7    1  0.2838209E-011  0.5052891E+02  0.7816164E-02  0.1300439E+00
        -11   -1    0    0    0    0  0.00000000000E+00  0.00000000000E+00  0.45593999997E+02  0.45594000000E+02  0.51100000000E-03 0. -1.
         11   -1    0    0    0    0 -0.00000000000E+00 -0.00000000000E+00 -0.45593999997E+02  0.45594000000E+02  0.51100000000E-03 0.  1.
    9900012    2    1    2    0    0 -0.83103718922E+01 -0.31369928248E+02 -0.24495441787E+02  0.50528913099E+02  0.30000161856E+02 0.  0.
         12    1    1    2    0    0  0.83103718922E+01  0.31369928248E+02  0.24495441787E+02  0.40659086901E+02  0.00000000000E+00 0. -1.
         11    1    3    3    0    0 -0.72159022034E+01  0.25843527970E+01 -0.64059816272E+01  0.99892304437E+01  0.51100000000E-03 0. -1.
        -11    1    3    3    0    0  0.69026352379E+00 -0.25323453177E+01 -0.64847356318E+01  0.69957868046E+01  0.51100000000E-03 0.  1.
        -12    1    3    3    0    0 -0.17847332126E+01 -0.31421935727E+02 -0.11604724528E+02  0.33543895851E+02  0.00000000000E+00 0.  1.
</event>
<event>
 7    1  0.2838209E-011  0.5052880E+02  0.7816164E-02  0.1300439E+00
        -11   -1    0    0    0    0  0.00000000000E+00  0.00000000000E+00  0.45593999997E+02  0.45594000000E+02  0.51100000000E-03 0.  1.
         11   -1    0    0    0    0 -0.00000000000E+00 -0.00000000000E+00 -0.45593999997E+02  0.45594000000E+02  0.51100000000E-03 0. -1.
    9900012    2    1    2    0    0 -0.27417915253E+02 -0.21007417267E+02  0.21450328743E+02  0.50528803498E+02  0.29999828711E+02 0.  0.
         12    1    1    2    0    0  0.27417915253E+02  0.21007417267E+02 -0.21450328743E+02  0.40659196502E+02  0.00000000000E+00 0. -1.
         11    1    3    3    0    0 -0.21251774157E+02 -0.11543433827E+02  0.94168698947E+01  0.25953154109E+02  0.51100000000E-03 0. -1.
        -11    1    3    3    0    0 -0.96096191640E+01 -0.12678896338E+02  0.61928533715E+01  0.17071925081E+02  0.51100000000E-03 0.  1.
         12    1    3    3    0    0  0.34434780684E+01  0.32149128979E+01  0.58406054765E+01  0.75037243074E+01  0.00000000000E+00 0. -1.
</event>
<event>
 7    1  0.2838209E-011  0.5052886E+02  0.7816164E-02  0.1300439E+00
        -11   -1    0    0    0    0  0.00000000000E+00  0.00000000000E+00  0.45593999997E+02  0.45594000000E+02  0.51100000000E-03 0.  1.
         11   -1    0    0    0    0 -0.00000000000E+00 -0.00000000000E+00 -0.45593999997E+02  0.45594000000E+02  0.51100000000E-03 0. -1.
    9900012    2    1    2    0    0 -0.38509925965E+02  0.12017543590E+02  0.50724333693E+01  0.50528864101E+02  0.30000012920E+02 0.  0.
         12    1    1    2    0    0  0.38509925965E+02 -0.12017543590E+02 -0.50724333693E+01  0.40659135899E+02  0.00000000000E+00 0. -1.
         11    1    3    3    0    0  0.18855654618E+01  0.39886506555E+01 -0.12512738864E+01  0.45858889828E+01  0.51100000000E-03 0. -1.
        -11    1    3    3    0    0 -0.31264126913E+02 -0.12626558275E+01 -0.37992690557E+00  0.31291920301E+02  0.51100000000E-03 0.  1.
         12    1    3    3    0    0 -0.91313645139E+01  0.92915487623E+01  0.67036341613E+01  0.14651054817E+02  0.00000000000E+00 0. -1.
</event>
<event>
 7    1  0.2838209E-011  0.5052886E+02  0.7816164E-02  0.1300439E+00
        -11   -1    0    0    0    0  0.00000000000E+00  0.00000000000E+00  0.45593999997E+02  0.45594000000E+02  0.51100000000E-03 0.  1.
         11   -1    0    0    0    0 -0.00000000000E+00 -0.00000000000E+00 -0.45593999997E+02  0.45594000000E+02  0.51100000000E-03 0. -1.
    9900012    2    1    2    0    0 -0.22482384138E+02  0.22486794933E+02  0.25338754548E+02  0.50528855580E+02  0.29999987022E+02 0.  0.
         12    1    1    2    0    0  0.22482384138E+02 -0.22486794933E+02 -0.25338754548E+02  0.40659144420E+02  0.00000000000E+00 0. -1.
         11    1    3    3    0    0 -0.17353639957E+02  0.15661529322E+02  0.13260364366E+02  0.26875073653E+02  0.51100000000E-03 0. -1.
        -11    1    3    3    0    0 -0.83559786688E+01  0.11211116971E+02  0.52863826805E+01  0.14948490404E+02  0.51100000000E-03 0.  1.
         12    1    3    3    0    0  0.32272344877E+01 -0.43858513606E+01  0.67920075020E+01  0.87052915232E+01  0.00000000000E+00 0. -1.
</event>
<event>
 7    1  0.2838209E-011  0.5052886E+02  0.7816164E-02  0.1300439E+00
        -11   -1    0    0    0    0  0.00000000000E+00  0.00000000000E+00  0.45593999997E+02  0.45594000000E+02  0.51100000000E-03 0.  1.
         11   -1    0    0    0    0 -0.00000000000E+00 -0.00000000000E+00 -0.45593999997E+02  0.45594000000E+02  0.51100000000E-03 0. -1.
    9900012    2    1    2    0    0 -0.30632641995E+02 -0.19310800225E+02  0.18490541273E+02  0.50528857394E+02  0.29999992534E+02 0.  0.
         12    1    1    2    0    0  0.30632641995E+02  0.19310800225E+02 -0.18490541273E+02  0.40659142606E+02  0.00000000000E+00 0. -1.
         11    1    3    3    0    0 -0.51732562095E+01 -0.10238349425E+02 -0.68976959385E-01  0.11471318008E+02  0.51100000000E-03 0. -1.
        -11    1    3    3    0    0 -0.13033649617E+02 -0.15205130617E+02  0.77138285512E+01  0.21461015134E+02  0.51100000000E-03 0.  1.
         12    1    3    3    0    0 -0.12425736169E+02  0.61326798170E+01  0.10845689681E+02  0.17596524251E+02  0.00000000000E+00 0. -1.
</event>
<event>
 7    1  0.2838209E-011  0.5052886E+02  0.7816164E-02  0.1300439E+00
        -11   -1    0    0    0    0  0.00000000000E+00  0.00000000000E+00  0.45593999997E+02  0.45594000000E+02  0.51100000000E-03 0.  1.
         11   -1    0    0    0    0 -0.00000000000E+00 -0.00000000000E+00 -0.45593999997E+02  0.45594000000E+02  0.51100000000E-03 0. -1.
    9900012    2    1    2    0    0 -0.19891935465E+02 -0.51169035646E+01  0.35089797728E+02  0.50528859537E+02  0.29999999048E+02 0.  0.
         12    1    1    2    0    0  0.19891935465E+02  0.51169035646E+01 -0.35089797728E+02  0.40659140463E+02  0.00000000000E+00 0. -1.
         11    1    3    3    0    0 -0.10405083381E+02  0.39866152701E+01  0.28963875554E+02  0.31033287754E+02  0.51100000000E-03 0. -1.
        -11    1    3    3    0    0  0.17151514379E+01 -0.42985418637E+01  0.56414219999E+01  0.72969068139E+01  0.51100000000E-03 0.  1.
        -12    1    3    3    0    0 -0.11202003522E+02 -0.48049769710E+01  0.48450017392E+00  0.12198664969E+02  0.00000000000E+00 0.  1.
</event>
<event>
 7    1  0.2838209E-011  0.5052886E+02  0.7816164E-02  0.1300439E+00
        -11   -1    0    0    0    0  0.00000000000E+00  0.00000000000E+00  0.45593999997E+02  0.45594000000E+02  0.51100000000E-03 0. -1.
         11   -1    0    0    0    0 -0.00000000000E+00 -0.00000000000E+00 -0.45593999997E+02  0.45594000000E+02  0.51100000000E-03 0.  1.
    9900012    2    1    2    0    0 -0.20153370092E+02  0.33838275755E+02 -0.10098443453E+02  0.50528858441E+02  0.29999995716E+02 0.  0.
         12    1    1    2    0    0  0.20153370092E+02 -0.33838275755E+02  0.10098443453E+02  0.40659141559E+02  0.00000000000E+00 0. -1.
         11    1    3    3    0    0 -0.67375074289E+00  0.19586116109E+02 -0.74893510896E+01  0.20979996766E+02  0.51100000000E-03 0. -1.
        -11    1    3    3    0    0 -0.22921690167E+01  0.17261715489E+00 -0.65878508990E+01  0.69773644889E+01  0.51100000000E-03 0.  1.
         12    1    3    3    0    0 -0.17187450333E+02  0.14079542491E+02  0.39787585353E+01  0.22571497185E+02  0.00000000000E+00 0. -1.
</event>
<event>
 7    1  0.2838209E-011  0.5052886E+02  0.7816164E-02  0.1300439E+00
        -11   -1    0    0    0    0  0.00000000000E+00  0.00000000000E+00  0.45593999997E+02  0.45594000000E+02  0.51100000000E-03 0.  1.
         11   -1    0    0    0    0 -0.00000000000E+00 -0.00000000000E+00 -0.45593999997E+02  0.45594000000E+02  0.51100000000E-03 0. -1.
    9900012    2    1    2    0    0  0.36807350294E+02  0.15981015318E+02  0.65568425513E+01  0.50528855020E+02  0.29999985320E+02 0.  0.
         12    1    1    2    0    0 -0.36807350294E+02 -0.15981015318E+02 -0.65568425513E+01  0.40659144980E+02  0.00000000000E+00 0. -1.
         11    1    3    3    0    0  0.11260747900E+02  0.46344347884E+01 -0.63189838631E+01  0.13719037372E+02  0.51100000000E-03 0. -1.
        -11    1    3    3    0    0  0.10522386550E+02  0.10710436821E+02 -0.25925320091E+01  0.15236643268E+02  0.51100000000E-03 0.  1.
         12    1    3    3    0    0  0.15024215844E+02  0.63614370818E+00  0.15468358423E+02  0.21573174381E+02  0.00000000000E+00 0. -1.
</event>
<event>
 7    1  0.2838209E-011  0.5052885E+02  0.7816164E-02  0.1300439E+00
        -11   -1    0    0    0    0  0.00000000000E+00  0.00000000000E+00  0.45593999997E+02  0.45594000000E+02  0.51100000000E-03 0. -1.
         11   -1    0    0    0    0 -0.00000000000E+00 -0.00000000000E+00 -0.45593999997E+02  0.45594000000E+02  0.51100000000E-03 0.  1.
    9900012    2    1    2    0    0 -0.19247517359E+02  0.35594900857E+02 -0.39626296144E+01  0.50528851891E+02  0.29999975807E+02 0.  0.
         12    1    1    2    0    0  0.19247517359E+02 -0.35594900857E+02  0.39626296144E+01  0.40659148109E+02  0.00000000000E+00 0. -1.
         11    1    3    3    0    0 -0.98215131294E+01  0.23524782439E+01  0.21807782522E+01  0.10332089241E+02  0.51100000000E-03 0. -1.
        -11    1    3    3    0    0 -0.14744246198E+01 -0.22277982055E+01  0.14819163579E+01  0.30550105003E+01  0.51100000000E-03 0.  1.
        -12    1    3    3    0    0 -0.79515796101E+01  0.35470220818E+02 -0.76253242244E+01  0.37141752149E+02  0.00000000000E+00 0.  1.
</event>
<event>
 7    1  0.2838209E-011  0.5052887E+02  0.7816164E-02  0.1300439E+00
        -11   -1    0    0    0    0  0.00000000000E+00  0.00000000000E+00  0.45593999997E+02  0.45594000000E+02  0.51100000000E-03 0.  1.
         11   -1    0    0    0    0 -0.00000000000E+00 -0.00000000000E+00 -0.45593999997E+02  0.45594000000E+02  0.51100000000E-03 0. -1.
    9900012    2    1    2    0    0  0.17108762235E+02  0.16043076490E+02  0.33212573410E+02  0.50528867188E+02  0.30000022305E+02 0.  0.
         12    1    1    2    0    0 -0.17108762235E+02 -0.16043076490E+02 -0.33212573410E+02  0.40659132812E+02  0.00000000000E+00 0. -1.
         11    1    3    3    0    0  0.86363330163E+01 -0.46357199421E+01  0.70383397498E+01  0.12067078107E+02  0.51100000000E-03 0. -1.
        -11    1    3    3    0    0  0.90039268566E+01  0.56536734007E+01  0.19069639426E+02  0.21833136968E+02  0.51100000000E-03 0.  1.
         12    1    3    3    0    0 -0.53149763745E+00  0.15025123032E+02  0.71045942342E+01  0.16628652113E+02  0.00000000000E+00 0. -1.
</event>
<event>
 7    1  0.2838209E-011  0.5052886E+02  0.7816164E-02  0.1300439E+00
        -11   -1    0    0    0    0  0.00000000000E+00  0.00000000000E+00  0.45593999997E+02  0.45594000000E+02  0.51100000000E-03 0.  1.
         11   -1    0    0    0    0 -0.00000000000E+00 -0.00000000000E+00 -0.45593999997E+02  0.45594000000E+02  0.51100000000E-03 0. -1.
    9900012    2    1    2    0    0 -0.37645460230E+02 -0.16103729619E+01  0.15277170868E+02  0.50528856788E+02  0.29999990691E+02 0.  0.
         12    1    1    2    0    0  0.37645460230E+02  0.16103729619E+01 -0.15277170868E+02  0.40659143212E+02  0.00000000000E+00 0. -1.
         11    1    3    3    0    0 -0.13774725509E+02 -0.13344224800E+01 -0.96091286146E-01  0.13839544067E+02  0.51100000000E-03 0.  1.
        -11    1    3    3    0    0 -0.74730429258E+01  0.59725382480E+01 -0.41596482421E+01  0.10431694851E+02  0.51100000000E-03 0. -1.
        -12    1    3    3    0    0 -0.16397691796E+02 -0.62484887299E+01  0.19532910396E+02  0.26257617870E+02  0.00000000000E+00 0.  1.
</event>
<event>
 7    1  0.2838209E-011  0.5052886E+02  0.7816164E-02  0.1300439E+00
        -11   -1    0    0    0    0  0.00000000000E+00  0.00000000000E+00  0.45593999997E+02  0.45594000000E+02  0.51100000000E-03 0.  1.
         11   -1    0    0    0    0 -0.00000000000E+00 -0.00000000000E+00 -0.45593999997E+02  0.45594000000E+02  0.51100000000E-03 0. -1.
    9900012    2    1    2    0    0  0.30759508036E+02 -0.18287530021E+02  0.19302449240E+02  0.50528860369E+02  0.30000001576E+02 0.  0.
         12    1    1    2    0    0 -0.30759508036E+02  0.18287530021E+02 -0.19302449240E+02  0.40659139631E+02  0.00000000000E+00 0. -1.
         11    1    3    3    0    0  0.10065458745E+02 -0.10036243988E+02  0.10577290194E+02  0.17717751586E+02  0.51100000000E-03 0. -1.
        -11    1    3    3    0    0  0.10777126544E+02 -0.15106202395E+02  0.92703749027E+01  0.20743279838E+02  0.51100000000E-03 0.  1.
         12    1    3    3    0    0  0.99169227467E+01  0.68549163623E+01 -0.54521585723E+00  0.12067828944E+02  0.00000000000E+00 0. -1.
</event>
<event>
 7    1  0.2838209E-011  0.5052887E+02  0.7816164E-02  0.1300439E+00
        -11   -1    0    0    0    0  0.00000000000E+00  0.00000000000E+00  0.45593999997E+02  0.45594000000E+02  0.51100000000E-03 0.  1.
         11   -1    0    0    0    0 -0.00000000000E+00 -0.00000000000E+00 -0.45593999997E+02  0.45594000000E+02  0.51100000000E-03 0. -1.
    9900012    2    1    2    0    0 -0.95221072794E+01  0.14210268526E+02  0.36885800687E+02  0.50528873707E+02  0.30000042118E+02 0.  0.
         12    1    1    2    0    0  0.95221072794E+01 -0.14210268526E+02 -0.36885800687E+02  0.40659126293E+02  0.00000000000E+00 0. -1.
         11    1    3    3    0    0 -0.15913533741E+01  0.77643859315E+00 -0.38989433161E+01  0.42821748789E+01  0.51100000000E-03 0. -1.
        -11    1    3    3    0    0 -0.90151217021E+01  0.50258121677E+01  0.10208897275E+02  0.14517327271E+02  0.51100000000E-03 0.  1.
        -12    1    3    3    0    0  0.10843677968E+01  0.84080177653E+01  0.30575846728E+02  0.31729371557E+02  0.00000000000E+00 0.  1.
</event>
<event>
 7    1  0.2838209E-011  0.5052888E+02  0.7816164E-02  0.1300439E+00
        -11   -1    0    0    0    0  0.00000000000E+00  0.00000000000E+00  0.45593999997E+02  0.45594000000E+02  0.51100000000E-03 0. -1.
         11   -1    0    0    0    0 -0.00000000000E+00 -0.00000000000E+00 -0.45593999997E+02  0.45594000000E+02  0.51100000000E-03 0.  1.
    9900012    2    1    2    0    0  0.30399893669E+02  0.16884743445E+02 -0.21069316473E+02  0.50528878110E+02  0.30000055502E+02 0.  0.
         12    1    1    2    0    0 -0.30399893669E+02 -0.16884743445E+02  0.21069316473E+02  0.40659121890E+02  0.00000000000E+00 0. -1.
         11    1    3    3    0    0  0.27573241290E+01  0.20637294719E+01  0.26664244929E+01  0.43556440997E+01  0.51100000000E-03 0. -1.
        -11    1    3    3    0    0  0.26891941334E+02  0.20525113483E+02 -0.19730872931E+02  0.39163300922E+02  0.51100000000E-03 0.  1.
         12    1    3    3    0    0  0.75062820579E+00 -0.57040995103E+01 -0.40048680342E+01  0.70099330879E+01  0.00000000000E+00 0. -1.
</event>
<event>
 7    1  0.2838209E-011  0.5052886E+02  0.7816164E-02  0.1300439E+00
        -11   -1    0    0    0    0  0.00000000000E+00  0.00000000000E+00  0.45593999997E+02  0.45594000000E+02  0.51100000000E-03 0. -1.
         11   -1    0    0    0    0 -0.00000000000E+00 -0.00000000000E+00 -0.45593999997E+02  0.45594000000E+02  0.51100000000E-03 0.  1.
    9900012    2    1    2    0    0 -0.19899491176E+02  0.24434799795E+02  0.25692736162E+02  0.50528857344E+02  0.29999992383E+02 0.  0.
         12    1    1    2    0    0  0.19899491176E+02 -0.24434799795E+02 -0.25692736162E+02  0.40659142656E+02  0.00000000000E+00 0. -1.
         11    1    3    3    0    0 -0.82973913809E+01  0.19085150375E+02  0.17864560137E+02  0.27426851400E+02  0.51100000000E-03 0. -1.
        -11    1    3    3    0    0 -0.15396301657E+02  0.42437831669E+01  0.20499122054E+01  0.16101488770E+02  0.51100000000E-03 0.  1.
         12    1    3    3    0    0  0.37942018627E+01  0.11058662528E+01  0.57782638196E+01  0.70005171747E+01  0.00000000000E+00 0. -1.
</event>
<event>
 7    1  0.2838209E-011  0.5052886E+02  0.7816164E-02  0.1300439E+00
        -11   -1    0    0    0    0  0.00000000000E+00  0.00000000000E+00  0.45593999997E+02  0.45594000000E+02  0.51100000000E-03 0.  1.
         11   -1    0    0    0    0 -0.00000000000E+00 -0.00000000000E+00 -0.45593999997E+02  0.45594000000E+02  0.51100000000E-03 0. -1.
    9900012    2    1    2    0    0  0.32503601243E+02  0.23647401540E+02  0.61222744335E+01  0.50528856654E+02  0.29999990285E+02 0.  0.
         12    1    1    2    0    0 -0.32503601243E+02 -0.23647401540E+02 -0.61222744335E+01  0.40659143346E+02  0.00000000000E+00 0. -1.
         11    1    3    3    0    0  0.67219598150E+00  0.40413866682E+01 -0.37062769106E+01  0.55245943235E+01  0.51100000000E-03 0. -1.
        -11    1    3    3    0    0  0.83344721028E+01  0.17583989643E+02  0.12441707830E-01  0.19459195051E+02  0.51100000000E-03 0.  1.
        -12    1    3    3    0    0  0.23496933159E+02  0.20220252297E+01  0.98161096363E+01  0.25545067279E+02  0.00000000000E+00 0.  1.
</event>
<event>
 7    1  0.2838209E-011  0.5052881E+02  0.7816164E-02  0.1300439E+00
        -11   -1    0    0    0    0  0.00000000000E+00  0.00000000000E+00  0.45593999997E+02  0.45594000000E+02  0.51100000000E-03 0. -1.
         11   -1    0    0    0    0 -0.00000000000E+00 -0.00000000000E+00 -0.45593999997E+02  0.45594000000E+02  0.51100000000E-03 0.  1.
    9900012    2    1    2    0    0  0.70996440747E+00 -0.26709882513E+02 -0.30647146994E+02  0.50528812942E+02  0.29999857419E+02 0.  0.
         12    1    1    2    0    0 -0.70996440747E+00  0.26709882513E+02  0.30647146994E+02  0.40659187058E+02  0.00000000000E+00 0. -1.
         11    1    3    3    0    0  0.51034355094E+01 -0.11219656674E+02 -0.86382828938E+01  0.15051434532E+02  0.51100000000E-03 0. -1.
        -11    1    3    3    0    0  0.73127633283E+01 -0.73102833589E+01 -0.17806373217E+02  0.20590863937E+02  0.51100000000E-03 0.  1.
        -12    1    3    3    0    0 -0.11706234430E+02 -0.81799424803E+01 -0.42024908834E+01  0.14886514473E+02  0.00000000000E+00 0.  1.
</event>
<event>
 7    1  0.2838209E-011  0.5052886E+02  0.7816164E-02  0.1300439E+00
        -11   -1    0    0    0    0  0.00000000000E+00  0.00000000000E+00  0.45593999997E+02  0.45594000000E+02  0.51100000000E-03 0.  1.
         11   -1    0    0    0    0 -0.00000000000E+00 -0.00000000000E+00 -0.45593999997E+02  0.45594000000E+02  0.51100000000E-03 0. -1.
    9900012    2    1    2    0    0 -0.62473922989E+00 -0.28729277472E+02  0.28764634126E+02  0.50528857614E+02  0.29999993203E+02 0.  0.
         12    1    1    2    0    0  0.62473922989E+00  0.28729277472E+02 -0.28764634126E+02  0.40659142386E+02  0.00000000000E+00 0. -1.
         11    1    3    3    0    0 -0.11485437571E+00 -0.19038919643E+02  0.78761684781E+01  0.20604069570E+02  0.51100000000E-03 0. -1.
        -11    1    3    3    0    0  0.46347202466E+01 -0.80297746544E+01  0.10121559337E+01  0.93264340806E+01  0.51100000000E-03 0.  1.
        -12    1    3    3    0    0 -0.51446051008E+01 -0.16605831745E+01  0.19876309715E+02  0.20598353963E+02  0.00000000000E+00 0.  1.
</event>
<event>
 7    1  0.2838209E-011  0.5052887E+02  0.7816164E-02  0.1300439E+00
        -11   -1    0    0    0    0  0.00000000000E+00  0.00000000000E+00  0.45593999997E+02  0.45594000000E+02  0.51100000000E-03 0. -1.
         11   -1    0    0    0    0 -0.00000000000E+00 -0.00000000000E+00 -0.45593999997E+02  0.45594000000E+02  0.51100000000E-03 0.  1.
    9900012    2    1    2    0    0 -0.18434483934E+02  0.30114376048E+02 -0.20160836826E+02  0.50528865919E+02  0.30000018447E+02 0.  0.
         12    1    1    2    0    0  0.18434483934E+02 -0.30114376048E+02  0.20160836826E+02  0.40659134081E+02  0.00000000000E+00 0. -1.
         11    1    3    3    0    0 -0.56193478134E+01  0.83437054379E+01  0.22977741554E+01  0.10318636374E+02  0.51100000000E-03 0. -1.
        -11    1    3    3    0    0 -0.61117951508E+00  0.21046186865E+02 -0.12911173392E+02  0.24698459883E+02  0.51100000000E-03 0.  1.
         12    1    3    3    0    0 -0.12203956606E+02  0.72448374544E+00 -0.95474375894E+01  0.15511769662E+02  0.00000000000E+00 0. -1.
</event>
<event>
 7    1  0.2838209E-011  0.5052884E+02  0.7816164E-02  0.1300439E+00
        -11   -1    0    0    0    0  0.00000000000E+00  0.00000000000E+00  0.45593999997E+02  0.45594000000E+02  0.51100000000E-03 0.  1.
         11   -1    0    0    0    0 -0.00000000000E+00 -0.00000000000E+00 -0.45593999997E+02  0.45594000000E+02  0.51100000000E-03 0. -1.
    9900012    2    1    2    0    0 -0.23017780680E+02  0.31891887148E+02  0.10308066852E+02  0.50528844383E+02  0.29999952986E+02 0.  0.
         12    1    1    2    0    0  0.23017780680E+02 -0.31891887148E+02 -0.10308066852E+02  0.40659155617E+02  0.00000000000E+00 0. -1.
         11    1    3    3    0    0 -0.19623461434E+01 -0.50614533601E+01  0.72912413476E+00  0.54772926495E+01  0.51100000000E-03 0. -1.
        -11    1    3    3    0    0 -0.22991060279E+01  0.13602535209E+01 -0.18233705277E+01  0.32343250472E+01  0.51100000000E-03 0.  1.
        -12    1    3    3    0    0 -0.18756328508E+02  0.35593086987E+02  0.11402313245E+02  0.41817226686E+02  0.00000000000E+00 0.  1.
</event>
<event>
 7    1  0.2838209E-011  0.5052886E+02  0.7816164E-02  0.1300439E+00
        -11   -1    0    0    0    0  0.00000000000E+00  0.00000000000E+00  0.45593999997E+02  0.45594000000E+02  0.51100000000E-03 0.  1.
         11   -1    0    0    0    0 -0.00000000000E+00 -0.00000000000E+00 -0.45593999997E+02  0.45594000000E+02  0.51100000000E-03 0. -1.
    9900012    2    1    2    0    0  0.25383275738E+02  0.19909946356E+02  0.24747705887E+02  0.50528860833E+02  0.30000002988E+02 0.  0.
         12    1    1    2    0    0 -0.25383275738E+02 -0.19909946356E+02 -0.24747705887E+02  0.40659139167E+02  0.00000000000E+00 0. -1.
         11    1    3    3    0    0  0.41596024948E+01  0.63344608859E+01  0.63682111628E+01  0.98985757210E+01  0.51100000000E-03 0. -1.
        -11    1    3    3    0    0  0.25810549575E+02  0.12826753775E+02  0.90537299629E+01  0.30210595960E+02  0.51100000000E-03 0.  1.
        -12    1    3    3    0    0 -0.45868763318E+01  0.74873169586E+00  0.93257647619E+01  0.10419689152E+02  0.00000000000E+00 0.  1.
</event>
<event>
 7    1  0.2838209E-011  0.5052884E+02  0.7816164E-02  0.1300439E+00
        -11   -1    0    0    0    0  0.00000000000E+00  0.00000000000E+00  0.45593999997E+02  0.45594000000E+02  0.51100000000E-03 0.  1.
         11   -1    0    0    0    0 -0.00000000000E+00 -0.00000000000E+00 -0.45593999997E+02  0.45594000000E+02  0.51100000000E-03 0. -1.
    9900012    2    1    2    0    0  0.40393683896E+01  0.22208788668E+02  0.33817457481E+02  0.50528840865E+02  0.29999942292E+02 0.  0.
         12    1    1    2    0    0 -0.40393683896E+01 -0.22208788668E+02 -0.33817457481E+02  0.40659159135E+02  0.00000000000E+00 0. -1.
         11    1    3    3    0    0  0.34452575237E+01 -0.15396841307E+01  0.20584527646E+00  0.37792590763E+01  0.51100000000E-03 0.  1.
        -11    1    3    3    0    0  0.12367277072E+01 -0.30346047362E+01 -0.56358212390E+00  0.33250483302E+01  0.51100000000E-03 0. -1.
        -12    1    3    3    0    0 -0.64261684130E+00  0.26783077535E+02  0.34175194329E+02  0.43424533458E+02  0.00000000000E+00 0.  1.
</event>
<event>
 7    1  0.2838209E-011  0.5052886E+02  0.7816164E-02  0.1300439E+00
        -11   -1    0    0    0    0  0.00000000000E+00  0.00000000000E+00  0.45593999997E+02  0.45594000000E+02  0.51100000000E-03 0.  1.
         11   -1    0    0    0    0 -0.00000000000E+00 -0.00000000000E+00 -0.45593999997E+02  0.45594000000E+02  0.51100000000E-03 0. -1.
    9900012    2    1    2    0    0 -0.19168683073E+02  0.30857557513E+02  0.18263039283E+02  0.50528857482E+02  0.29999992803E+02 0.  0.
         12    1    1    2    0    0  0.19168683073E+02 -0.30857557513E+02 -0.18263039283E+02  0.40659142518E+02  0.00000000000E+00 0. -1.
         11    1    3    3    0    0 -0.14321974184E+02  0.65544535404E+01  0.12539917957E+02  0.20132792861E+02  0.51100000000E-03 0. -1.
        -11    1    3    3    0    0 -0.39037328171E+01  0.19822547275E+02  0.11325093312E+02  0.23160963908E+02  0.51100000000E-03 0.  1.
        -12    1    3    3    0    0 -0.94297607234E+00  0.44805566981E+01 -0.56019719865E+01  0.72351007136E+01  0.00000000000E+00 0.  1.
</event>
<event>
 7    1  0.2838209E-011  0.5052885E+02  0.7816164E-02  0.1300439E+00
        -11   -1    0    0    0    0  0.00000000000E+00  0.00000000000E+00  0.45593999997E+02  0.45594000000E+02  0.51100000000E-03 0.  1.
         11   -1    0    0    0    0 -0.00000000000E+00 -0.00000000000E+00 -0.45593999997E+02  0.45594000000E+02  0.51100000000E-03 0. -1.
    9900012    2    1    2    0    0  0.20656080978E+02 -0.10707396910E+02  0.33344331643E+02  0.50528849951E+02  0.29999969911E+02 0.  0.
         12    1    1    2    0    0 -0.20656080978E+02  0.10707396910E+02 -0.33344331643E+02  0.40659150049E+02  0.00000000000E+00 0. -1.
         11    1    3    3    0    0  0.13130613381E+01  0.88492412644E+01  0.11863826872E+02  0.14858788287E+02  0.51100000000E-03 0. -1.
        -11    1    3    3    0    0  0.83411612944E+01 -0.91251970023E+01  0.51670558118E+01  0.13399352898E+02  0.51100000000E-03 0.  1.
        -12    1    3    3    0    0  0.11001858346E+02 -0.10431441173E+02  0.16313448959E+02  0.22270708766E+02  0.00000000000E+00 0.  1.
</event>
<event>
 7    1  0.2838209E-011  0.5052885E+02  0.7816164E-02  0.1300439E+00
        -11   -1    0    0    0    0  0.00000000000E+00  0.00000000000E+00  0.45593999997E+02  0.45594000000E+02  0.51100000000E-03 0.  1.
         11   -1    0    0    0    0 -0.00000000000E+00 -0.00000000000E+00 -0.45593999997E+02  0.45594000000E+02  0.51100000000E-03 0. -1.
    9900012    2    1    2    0    0 -0.12229595789E+02  0.27634851464E+02  0.27201439176E+02  0.50528851929E+02  0.29999975925E+02 0.  0.
         12    1    1    2    0    0  0.12229595789E+02 -0.27634851464E+02 -0.27201439176E+02  0.40659148071E+02  0.00000000000E+00 0. -1.
         11    1    3    3    0    0  0.22070302000E+01  0.13863215037E+01  0.11655564361E+01  0.28550642169E+01  0.51100000000E-03 0. -1.
        -11    1    3    3    0    0 -0.17272313967E+00  0.25651977913E+02  0.16281103887E+02  0.30383024013E+02  0.51100000000E-03 0.  1.
         12    1    3    3    0    0 -0.14263902849E+02  0.59655204680E+00  0.97547788535E+01  0.17290763700E+02  0.00000000000E+00 0. -1.
</event>
<event>
 7    1  0.2838209E-011  0.5052887E+02  0.7816164E-02  0.1300439E+00
        -11   -1    0    0    0    0  0.00000000000E+00  0.00000000000E+00  0.45593999997E+02  0.45594000000E+02  0.51100000000E-03 0.  1.
         11   -1    0    0    0    0 -0.00000000000E+00 -0.00000000000E+00 -0.45593999997E+02  0.45594000000E+02  0.51100000000E-03 0. -1.
    9900012    2    1    2    0    0  0.31035596388E+02  0.24193949927E+02  0.10227878999E+02  0.50528868614E+02  0.30000026640E+02 0.  0.
         12    1    1    2    0    0 -0.31035596388E+02 -0.24193949927E+02 -0.10227878999E+02  0.40659131386E+02  0.00000000000E+00 0. -1.
         11    1    3    3    0    0  0.27312466035E+01  0.50229496452E+01  0.46890937302E+01  0.73944121754E+01  0.51100000000E-03 0. -1.
        -11    1    3    3    0    0  0.16212654457E+01  0.13646930973E+02  0.77822295948E+01  0.15793363301E+02  0.51100000000E-03 0.  1.
         12    1    3    3    0    0  0.26683084339E+02  0.55240693091E+01 -0.22434443257E+01  0.27341093138E+02  0.00000000000E+00 0. -1.
</event>
<event>
 7    1  0.2838209E-011  0.5052887E+02  0.7816164E-02  0.1300439E+00
        -11   -1    0    0    0    0  0.00000000000E+00  0.00000000000E+00  0.45593999997E+02  0.45594000000E+02  0.51100000000E-03 0. -1.
         11   -1    0    0    0    0 -0.00000000000E+00 -0.00000000000E+00 -0.45593999997E+02  0.45594000000E+02  0.51100000000E-03 0.  1.
    9900012    2    1    2    0    0  0.31291916039E+02 -0.14249494935E+02 -0.21700988522E+02  0.50528867961E+02  0.30000024656E+02 0.  0.
         12    1    1    2    0    0 -0.31291916039E+02  0.14249494935E+02  0.21700988522E+02  0.40659132039E+02  0.00000000000E+00 0. -1.
         11    1    3    3    0    0  0.77601701456E+01 -0.35040075170E+01 -0.13146478102E+02  0.15662956174E+02  0.51100000000E-03 0. -1.
        -11    1    3    3    0    0  0.65065252582E+01  0.67252039313E+01 -0.15425185818E+01  0.94838073942E+01  0.51100000000E-03 0.  1.
        -12    1    3    3    0    0  0.17025220635E+02 -0.17470691349E+02 -0.70119918384E+01  0.25382104393E+02  0.00000000000E+00 0.  1.
</event>
<event>
 7    1  0.3136684E-011  0.5052886E+02  0.7816164E-02  0.1300439E+00
        -11   -1    0    0    0    0  0.00000000000E+00  0.00000000000E+00  0.45593999997E+02  0.45594000000E+02  0.51100000000E-03 0. -1.
         11   -1    0    0    0    0 -0.00000000000E+00 -0.00000000000E+00 -0.45593999997E+02  0.45594000000E+02  0.51100000000E-03 0.  1.
    9900012    2    1    2    0    0 -0.30012898766E+02  0.78255572661E+01 -0.26289766534E+02  0.50528864947E+02  0.30000015493E+02 0.  0.
         12    1    1    2    0    0  0.30012898766E+02 -0.78255572661E+01  0.26289766534E+02  0.40659135053E+02  0.00000000000E+00 0. -1.
         11    1    3    3    0    0  0.11358453752E+01  0.18266342851E+00  0.16569244698E+01  0.20171538376E+01  0.51100000000E-03 0. -1.
        -11    1    3    3    0    0 -0.26117186220E+01 -0.67167270696E+01 -0.83669256133E+01  0.11042687226E+02  0.51100000000E-03 0.  1.
        -12    1    3    3    0    0 -0.28537025519E+02  0.14359620907E+02 -0.19579765390E+02  0.37469023884E+02  0.00000000000E+00 0.  1.
</event>
<event>
 7    1  0.2838209E-011  0.5052887E+02  0.7816164E-02  0.1300439E+00
        -11   -1    0    0    0    0  0.00000000000E+00  0.00000000000E+00  0.45593999997E+02  0.45594000000E+02  0.51100000000E-03 0.  1.
         11   -1    0    0    0    0 -0.00000000000E+00 -0.00000000000E+00 -0.45593999997E+02  0.45594000000E+02  0.51100000000E-03 0. -1.
    9900012    2    1    2    0    0 -0.29138592364E+02 -0.24038397695E+02 -0.15042024536E+02  0.50528872724E+02  0.30000039132E+02 0.  0.
         12    1    1    2    0    0  0.29138592364E+02  0.24038397695E+02  0.15042024536E+02  0.40659127276E+02  0.00000000000E+00 0. -1.
         11    1    3    3    0    0 -0.22415845453E+02 -0.17521951300E+02 -0.78948720992E+01  0.29526562794E+02  0.51100000000E-03 0. -1.
        -11    1    3    3    0    0 -0.12255300448E+02 -0.17409492152E+01 -0.52912861189E+01  0.13461835027E+02  0.51100000000E-03 0.  1.
         12    1    3    3    0    0  0.55325535375E+01 -0.47754971806E+01 -0.18558663179E+01  0.75404749026E+01  0.00000000000E+00 0. -1.
</event>
<event>
 7    1  0.2838209E-011  0.5052886E+02  0.7816164E-02  0.1300439E+00
        -11   -1    0    0    0    0  0.00000000000E+00  0.00000000000E+00  0.45593999997E+02  0.45594000000E+02  0.51100000000E-03 0.  1.
         11   -1    0    0    0    0 -0.00000000000E+00 -0.00000000000E+00 -0.45593999997E+02  0.45594000000E+02  0.51100000000E-03 0. -1.
    9900012    2    1    2    0    0 -0.62870476938E+01  0.61406896810E+01  0.39697992812E+02  0.50528859923E+02  0.30000000222E+02 0.  0.
         12    1    1    2    0    0  0.62870476938E+01 -0.61406896810E+01 -0.39697992812E+02  0.40659140077E+02  0.00000000000E+00 0. -1.
         11    1    3    3    0    0  0.81177703991E+01 -0.33693654910E+01  0.16004048202E+02  0.18258706942E+02  0.51100000000E-03 0. -1.
        -11    1    3    3    0    0  0.57341638448E+00  0.46779927232E+01  0.12821375002E+01  0.48842910538E+01  0.51100000000E-03 0.  1.
         12    1    3    3    0    0 -0.14978234477E+02  0.48320624488E+01  0.22411807110E+02  0.27385861927E+02  0.00000000000E+00 0. -1.
</event>
<event>
 7    1  0.2838209E-011  0.5052887E+02  0.7816164E-02  0.1300439E+00
        -11   -1    0    0    0    0  0.00000000000E+00  0.00000000000E+00  0.45593999997E+02  0.45594000000E+02  0.51100000000E-03 0. -1.
         11   -1    0    0    0    0 -0.00000000000E+00 -0.00000000000E+00 -0.45593999997E+02  0.45594000000E+02  0.51100000000E-03 0.  1.
    9900012    2    1    2    0    0 -0.31087208733E+02  0.24779453669E+02 -0.85281507021E+01  0.50528865413E+02  0.30000016910E+02 0.  0.
         12    1    1    2    0    0  0.31087208733E+02 -0.24779453669E+02  0.85281507021E+01  0.40659134587E+02  0.00000000000E+00 0. -1.
         11    1    3    3    0    0 -0.33861088121E+01 -0.44236150354E+00  0.37009278921E+01  0.50357009553E+01  0.51100000000E-03 0. -1.
        -11    1    3    3    0    0 -0.22449679678E+02  0.19181227001E+02  0.15383027991E+01  0.29568124098E+02  0.51100000000E-03 0.  1.
        -12    1    3    3    0    0 -0.52514202428E+01  0.60405881712E+01 -0.13767381393E+02  0.15925040359E+02  0.00000000000E+00 0.  1.
</event>
<event>
 7    1  0.2838209E-011  0.5052885E+02  0.7816164E-02  0.1300439E+00
        -11   -1    0    0    0    0  0.00000000000E+00  0.00000000000E+00  0.45593999997E+02  0.45594000000E+02  0.51100000000E-03 0.  1.
         11   -1    0    0    0    0 -0.00000000000E+00 -0.00000000000E+00 -0.45593999997E+02  0.45594000000E+02  0.51100000000E-03 0. -1.
    9900012    2    1    2    0    0 -0.19418310634E+02 -0.30467233652E+02  0.18650551379E+02  0.50528853661E+02  0.29999981189E+02 0.  0.
         12    1    1    2    0    0  0.19418310634E+02  0.30467233652E+02 -0.18650551379E+02  0.40659146339E+02  0.00000000000E+00 0. -1.
         11    1    3    3    0    0  0.26459779723E+01 -0.84077661069E+01 -0.73092259177E+00  0.88445451231E+01  0.51100000000E-03 0. -1.
        -11    1    3    3    0    0 -0.95442969088E+01  0.12508521243E+01  0.14831791287E+01  0.97395100036E+01  0.51100000000E-03 0.  1.
        -12    1    3    3    0    0 -0.12519991697E+02 -0.23310319669E+02  0.17898294842E+02  0.31944798535E+02  0.00000000000E+00 0.  1.
</event>
<event>
 7    1  0.2838209E-011  0.5052886E+02  0.7816164E-02  0.1300439E+00
        -11   -1    0    0    0    0  0.00000000000E+00  0.00000000000E+00  0.45593999997E+02  0.45594000000E+02  0.51100000000E-03 0.  1.
         11   -1    0    0    0    0 -0.00000000000E+00 -0.00000000000E+00 -0.45593999997E+02  0.45594000000E+02  0.51100000000E-03 0. -1.
    9900012    2    1    2    0    0 -0.23204994344E+02 -0.27452359015E+02  0.19001621218E+02  0.50528863427E+02  0.30000010872E+02 0.  0.
         12    1    1    2    0    0  0.23204994344E+02  0.27452359015E+02 -0.19001621218E+02  0.40659136573E+02  0.00000000000E+00 0. -1.
         11    1    3    3    0    0 -0.11327349848E+02 -0.15244476357E+01  0.39120049510E+00  0.11436163398E+02  0.51100000000E-03 0. -1.
        -11    1    3    3    0    0 -0.11429388602E+02 -0.70041675197E+01  0.13446670761E+01  0.13472097694E+02  0.51100000000E-03 0.  1.
         12    1    3    3    0    0 -0.44825589326E+00 -0.18923743860E+02  0.17265753647E+02  0.25620602335E+02  0.00000000000E+00 0. -1.
</event>
<event>
 7    1  0.2838209E-011  0.5052888E+02  0.7816164E-02  0.1300439E+00
        -11   -1    0    0    0    0  0.00000000000E+00  0.00000000000E+00  0.45593999997E+02  0.45594000000E+02  0.51100000000E-03 0.  1.
         11   -1    0    0    0    0 -0.00000000000E+00 -0.00000000000E+00 -0.45593999997E+02  0.45594000000E+02  0.51100000000E-03 0. -1.
    9900012    2    1    2    0    0 -0.66075518090E+01 -0.17320605835E+02  0.36187030171E+02  0.50528877038E+02  0.30000052246E+02 0.  0.
         12    1    1    2    0    0  0.66075518090E+01  0.17320605835E+02 -0.36187030171E+02  0.40659122962E+02  0.00000000000E+00 0. -1.
         11    1    3    3    0    0  0.51201317721E+01 -0.79590018092E+01  0.10329470237E+02  0.14009261750E+02  0.51100000000E-03 0. -1.
        -11    1    3    3    0    0 -0.31224384133E+01 -0.13717794957E+02  0.78979427523E+01  0.16133970997E+02  0.51100000000E-03 0.  1.
        -12    1    3    3    0    0 -0.86052451678E+01  0.43561909317E+01  0.17959617182E+02  0.20385644291E+02  0.00000000000E+00 0.  1.
</event>
<event>
 7    1  0.2838209E-011  0.5052885E+02  0.7816164E-02  0.1300439E+00
        -11   -1    0    0    0    0  0.00000000000E+00  0.00000000000E+00  0.45593999997E+02  0.45594000000E+02  0.51100000000E-03 0. -1.
         11   -1    0    0    0    0 -0.00000000000E+00 -0.00000000000E+00 -0.45593999997E+02  0.45594000000E+02  0.51100000000E-03 0.  1.
    9900012    2    1    2    0    0  0.75378158007E+01 -0.39948285283E+02  0.69420445007E+00  0.50528854855E+02  0.29999984819E+02 0.  0.
         12    1    1    2    0    0 -0.75378158007E+01  0.39948285283E+02 -0.69420445007E+00  0.40659145145E+02  0.00000000000E+00 0. -1.
         11    1    3    3    0    0 -0.14741354562E+01 -0.57374863059E+01 -0.70418656772E+01  0.92021571890E+01  0.51100000000E-03 0. -1.
        -11    1    3    3    0    0 -0.46257022121E+01 -0.10549101327E+01  0.97907028767E+00  0.48444334274E+01  0.51100000000E-03 0.  1.
        -12    1    3    3    0    0  0.13637653469E+02 -0.33155888844E+02  0.67569998396E+01  0.36482264239E+02  0.00000000000E+00 0.  1.
</event>
<event>
 7    1  0.2838209E-011  0.5052884E+02  0.7816164E-02  0.1300439E+00
        -11   -1    0    0    0    0  0.00000000000E+00  0.00000000000E+00  0.45593999997E+02  0.45594000000E+02  0.51100000000E-03 0.  1.
         11   -1    0    0    0    0 -0.00000000000E+00 -0.00000000000E+00 -0.45593999997E+02  0.45594000000E+02  0.51100000000E-03 0. -1.
    9900012    2    1    2    0    0  0.74103836085E+01  0.38739762080E+02  0.98733975071E+01  0.50528844456E+02  0.29999953209E+02 0.  0.
         12    1    1    2    0    0 -0.74103836085E+01 -0.38739762080E+02 -0.98733975071E+01  0.40659155544E+02  0.00000000000E+00 0. -1.
         11    1    3    3    0    0  0.87275104595E+01  0.15044461437E+02  0.19757118582E+01  0.17504533595E+02  0.51100000000E-03 0.  1.
        -11    1    3    3    0    0  0.46090273927E+01  0.78461116729E+01 -0.61909388059E+01  0.11006013150E+02  0.51100000000E-03 0. -1.
         12    1    3    3    0    0 -0.59261542437E+01  0.15849188970E+02  0.14088624455E+02  0.22018297712E+02  0.00000000000E+00 0. -1.
</event>
<event>
 7    1  0.2838209E-011  0.5052891E+02  0.7816164E-02  0.1300439E+00
        -11   -1    0    0    0    0  0.00000000000E+00  0.00000000000E+00  0.45593999997E+02  0.45594000000E+02  0.51100000000E-03 0. -1.
         11   -1    0    0    0    0 -0.00000000000E+00 -0.00000000000E+00 -0.45593999997E+02  0.45594000000E+02  0.51100000000E-03 0.  1.
    9900012    2    1    2    0    0 -0.37488991586E+02  0.10682684012E+01 -0.15703365730E+02  0.50528912667E+02  0.30000160541E+02 0.  0.
         12    1    1    2    0    0  0.37488991586E+02 -0.10682684012E+01  0.15703365730E+02  0.40659087333E+02  0.00000000000E+00 0. -1.
         11    1    3    3    0    0 -0.56396114175E+01 -0.64618869074E+01  0.34297627115E+01  0.92371246534E+01  0.51100000000E-03 0. -1.
        -11    1    3    3    0    0 -0.12781947017E+02 -0.28239291144E+01 -0.13650118684E+02  0.18912389736E+02  0.51100000000E-03 0.  1.
         12    1    3    3    0    0 -0.19067433152E+02  0.10354084423E+02 -0.54830097577E+01  0.22379398277E+02  0.00000000000E+00 0. -1.
</event>
<event>
 7    1  0.2838209E-011  0.5052885E+02  0.7816164E-02  0.1300439E+00
        -11   -1    0    0    0    0  0.00000000000E+00  0.00000000000E+00  0.45593999997E+02  0.45594000000E+02  0.51100000000E-03 0. -1.
         11   -1    0    0    0    0 -0.00000000000E+00 -0.00000000000E+00 -0.45593999997E+02  0.45594000000E+02  0.51100000000E-03 0.  1.
    9900012    2    1    2    0    0  0.20916077581E+02 -0.21842960676E+02 -0.27176626881E+02  0.50528852430E+02  0.29999977446E+02 0.  0.
         12    1    1    2    0    0 -0.20916077581E+02  0.21842960676E+02  0.27176626881E+02  0.40659147570E+02  0.00000000000E+00 0. -1.
         11    1    3    3    0    0  0.19822172700E+02 -0.13534036765E+02 -0.12308074373E+02  0.26973642259E+02  0.51100000000E-03 0. -1.
        -11    1    3    3    0    0  0.43714900391E+01 -0.67618549719E+01  0.20256515704E+00  0.80544174666E+01  0.51100000000E-03 0.  1.
        -12    1    3    3    0    0 -0.32775851578E+01 -0.15470689399E+01 -0.15071117665E+02  0.15500792704E+02  0.00000000000E+00 0.  1.
</event>
<event>
 7    1  0.2838209E-011  0.5052886E+02  0.7816164E-02  0.1300439E+00
        -11   -1    0    0    0    0  0.00000000000E+00  0.00000000000E+00  0.45593999997E+02  0.45594000000E+02  0.51100000000E-03 0.  1.
         11   -1    0    0    0    0 -0.00000000000E+00 -0.00000000000E+00 -0.45593999997E+02  0.45594000000E+02  0.51100000000E-03 0. -1.
    9900012    2    1    2    0    0 -0.17136840770E+01  0.37308339646E+02 -0.16072234276E+02  0.50528860377E+02  0.30000001601E+02 0.  0.
         12    1    1    2    0    0  0.17136840770E+01 -0.37308339646E+02  0.16072234276E+02  0.40659139623E+02  0.00000000000E+00 0. -1.
         11    1    3    3    0    0 -0.12587366682E+02  0.22476885741E+02 -0.14513666538E+02  0.29568542562E+02  0.51100000000E-03 0. -1.
        -11    1    3    3    0    0 -0.17457495436E+01  0.32925789879E+01 -0.96855162325E+00  0.38505597474E+01  0.51100000000E-03 0.  1.
        -12    1    3    3    0    0  0.12619432148E+02  0.11538874917E+02 -0.59001611448E+00  0.17109758067E+02  0.00000000000E+00 0.  1.
</event>
<event>
 7    1  0.2838209E-011  0.5052886E+02  0.7816164E-02  0.1300439E+00
        -11   -1    0    0    0    0  0.00000000000E+00  0.00000000000E+00  0.45593999997E+02  0.45594000000E+02  0.51100000000E-03 0.  1.
         11   -1    0    0    0    0 -0.00000000000E+00 -0.00000000000E+00 -0.45593999997E+02  0.45594000000E+02  0.51100000000E-03 0. -1.
    9900012    2    1    2    0    0  0.33192590490E+01  0.17648568551E+02  0.36478435150E+02  0.50528859779E+02  0.29999999785E+02 0.  0.
         12    1    1    2    0    0 -0.33192590490E+01 -0.17648568551E+02 -0.36478435150E+02  0.40659140221E+02  0.00000000000E+00 0. -1.
         11    1    3    3    0    0  0.41788752261E+01  0.35290911862E+01 -0.11509183532E+01  0.55894629503E+01  0.51100000000E-03 0. -1.
        -11    1    3    3    0    0  0.48941095332E+00  0.33014529998E+01 -0.19640430682E+01  0.38725418559E+01  0.51100000000E-03 0.  1.
        -12    1    3    3    0    0 -0.13490271305E+01  0.10818024365E+02  0.39593396571E+02  0.41066854973E+02  0.00000000000E+00 0.  1.
</event>
<event>
 7    1  0.2838209E-011  0.5052887E+02  0.7816164E-02  0.1300439E+00
        -11   -1    0    0    0    0  0.00000000000E+00  0.00000000000E+00  0.45593999997E+02  0.45594000000E+02  0.51100000000E-03 0.  1.
         11   -1    0    0    0    0 -0.00000000000E+00 -0.00000000000E+00 -0.45593999997E+02  0.45594000000E+02  0.51100000000E-03 0. -1.
    9900012    2    1    2    0    0 -0.19382723652E+02  0.35677594578E+02  0.21411036466E+01  0.50528867497E+02  0.30000023244E+02 0.  0.
         12    1    1    2    0    0  0.19382723652E+02 -0.35677594578E+02 -0.21411036466E+01  0.40659132503E+02  0.00000000000E+00 0. -1.
         11    1    3    3    0    0 -0.15921524300E+01  0.32172203833E+01  0.31347710947E+01  0.47657367145E+01  0.51100000000E-03 0. -1.
        -11    1    3    3    0    0 -0.22006855308E+02  0.12514300521E+02  0.50568465458E+00  0.25321238424E+02  0.51100000000E-03 0.  1.
         12    1    3    3    0    0  0.42162840856E+01  0.19946073674E+02 -0.14993521027E+01  0.20441892359E+02  0.00000000000E+00 0. -1.
</event>
<event>
 7    1  0.2838209E-011  0.5052893E+02  0.7816164E-02  0.1300439E+00
        -11   -1    0    0    0    0  0.00000000000E+00  0.00000000000E+00  0.45593999997E+02  0.45594000000E+02  0.51100000000E-03 0.  1.
         11   -1    0    0    0    0 -0.00000000000E+00 -0.00000000000E+00 -0.45593999997E+02  0.45594000000E+02  0.51100000000E-03 0. -1.
    9900012    2    1    2    0    0  0.70054013458E+01 -0.38750579536E+02 -0.10123079430E+02  0.50528932136E+02  0.30000219720E+02 0.  0.
         12    1    1    2    0    0 -0.70054013458E+01  0.38750579536E+02  0.10123079430E+02  0.40659067864E+02  0.00000000000E+00 0. -1.
         11    1    3    3    0    0  0.36553275618E+01  0.20832305691E+01  0.21069020701E+01  0.47053486356E+01  0.51100000000E-03 0. -1.
        -11    1    3    3    0    0  0.51330351089E+01 -0.23746549478E+01 -0.13320686653E+01  0.58104597701E+01  0.51100000000E-03 0.  1.
        -12    1    3    3    0    0 -0.17829613248E+01 -0.38459155157E+02 -0.10897912835E+02  0.40013123730E+02  0.00000000000E+00 0.  1.
</event>
<event>
 7    1  0.2838209E-011  0.5052886E+02  0.7816164E-02  0.1300439E+00
        -11   -1    0    0    0    0  0.00000000000E+00  0.00000000000E+00  0.45593999997E+02  0.45594000000E+02  0.51100000000E-03 0.  1.
         11   -1    0    0    0    0 -0.00000000000E+00 -0.00000000000E+00 -0.45593999997E+02  0.45594000000E+02  0.51100000000E-03 0. -1.
    9900012    2    1    2    0    0 -0.33579179171E+02  0.14591992381E+02  0.17682706964E+02  0.50528860302E+02  0.30000001373E+02 0.  0.
         12    1    1    2    0    0  0.33579179171E+02 -0.14591992381E+02 -0.17682706964E+02  0.40659139698E+02  0.00000000000E+00 0. -1.
         11    1    3    3    0    0 -0.88439982521E+01  0.44902403473E+01 -0.22725957752E+01  0.10175620634E+02  0.51100000000E-03 0. -1.
        -11    1    3    3    0    0 -0.27837359537E+02  0.74124441413E+01  0.21521728987E+02  0.35958972914E+02  0.51100000000E-03 0.  1.
         12    1    3    3    0    0  0.31021786182E+01  0.26893078921E+01 -0.15664262479E+01  0.43942667543E+01  0.00000000000E+00 0. -1.
</event>
<event>
 7    1  0.2838209E-011  0.5052886E+02  0.7816164E-02  0.1300439E+00
        -11   -1    0    0    0    0  0.00000000000E+00  0.00000000000E+00  0.45593999997E+02  0.45594000000E+02  0.51100000000E-03 0. -1.
         11   -1    0    0    0    0 -0.00000000000E+00 -0.00000000000E+00 -0.45593999997E+02  0.45594000000E+02  0.51100000000E-03 0.  1.
    9900012    2    1    2    0    0 -0.25277169309E+02 -0.13661247127E+00 -0.31846694047E+02  0.50528857449E+02  0.29999992702E+02 0.  0.
         12    1    1    2    0    0  0.25277169309E+02  0.13661247127E+00  0.31846694047E+02  0.40659142551E+02  0.00000000000E+00 0. -1.
         11    1    3    3    0    0 -0.48518041596E+01 -0.37987979218E+01  0.82017878817E+00  0.62163946753E+01  0.51100000000E-03 0. -1.
        -11    1    3    3    0    0 -0.14387465131E+02 -0.63403982978E+01 -0.95097783105E+01  0.18374865639E+02  0.51100000000E-03 0.  1.
         12    1    3    3    0    0 -0.60379000183E+01  0.10002583748E+02 -0.23157094525E+02  0.25937597135E+02  0.00000000000E+00 0. -1.
</event>
<event>
 7    1  0.2838209E-011  0.5052885E+02  0.7816164E-02  0.1300439E+00
        -11   -1    0    0    0    0  0.00000000000E+00  0.00000000000E+00  0.45593999997E+02  0.45594000000E+02  0.51100000000E-03 0. -1.
         11   -1    0    0    0    0 -0.00000000000E+00 -0.00000000000E+00 -0.45593999997E+02  0.45594000000E+02  0.51100000000E-03 0.  1.
    9900012    2    1    2    0    0 -0.15559189087E+02 -0.32080314264E+02 -0.19543062118E+02  0.50528853363E+02  0.29999980281E+02 0.  0.
         12    1    1    2    0    0  0.15559189087E+02  0.32080314264E+02  0.19543062118E+02  0.40659146637E+02  0.00000000000E+00 0. -1.
         11    1    3    3    0    0 -0.10753937670E+02 -0.16475180468E+02 -0.11815689575E+00  0.19674671742E+02  0.51100000000E-03 0. -1.
        -11    1    3    3    0    0 -0.10658401186E+02 -0.12507196528E+02 -0.96793944323E+01  0.19071501191E+02  0.51100000000E-03 0.  1.
        -12    1    3    3    0    0  0.58531497693E+01 -0.30979372684E+01 -0.97455107901E+01  0.11782680429E+02  0.00000000000E+00 0.  1.
</event>
<event>
 7    1  0.2838209E-011  0.5052886E+02  0.7816164E-02  0.1300439E+00
        -11   -1    0    0    0    0  0.00000000000E+00  0.00000000000E+00  0.45593999997E+02  0.45594000000E+02  0.51100000000E-03 0.  1.
         11   -1    0    0    0    0 -0.00000000000E+00 -0.00000000000E+00 -0.45593999997E+02  0.45594000000E+02  0.51100000000E-03 0. -1.
    9900012    2    1    2    0    0  0.88964932008E+01 -0.15954471217E+02  0.36324550459E+02  0.50528859464E+02  0.29999998827E+02 0.  0.
         12    1    1    2    0    0 -0.88964932008E+01  0.15954471217E+02 -0.36324550459E+02  0.40659140536E+02  0.00000000000E+00 0. -1.
         11    1    3    3    0    0  0.13445423227E+01  0.41546281316E+01 -0.38954687526E-01  0.43669493584E+01  0.51100000000E-03 0. -1.
        -11    1    3    3    0    0  0.61694308862E+01  0.18426456091E+01  0.79937235915E+01  0.10264347881E+02  0.51100000000E-03 0.  1.
        -12    1    3    3    0    0  0.13825199918E+01 -0.21951744957E+02  0.28369781555E+02  0.35897562225E+02  0.00000000000E+00 0.  1.
</event>
<event>
 7    1  0.2838209E-011  0.5052880E+02  0.7816164E-02  0.1300439E+00
        -11   -1    0    0    0    0  0.00000000000E+00  0.00000000000E+00  0.45593999997E+02  0.45594000000E+02  0.51100000000E-03 0.  1.
         11   -1    0    0    0    0 -0.00000000000E+00 -0.00000000000E+00 -0.45593999997E+02  0.45594000000E+02  0.51100000000E-03 0. -1.
    9900012    2    1    2    0    0 -0.13552222341E+02  0.14638656014E+02  0.35429049330E+02  0.50528800344E+02  0.29999819125E+02 0.  0.
         12    1    1    2    0    0  0.13552222341E+02 -0.14638656014E+02 -0.35429049330E+02  0.40659199656E+02  0.00000000000E+00 0. -1.
         11    1    3    3    0    0 -0.78136888421E+01  0.15856844389E+02  0.11934522681E+02  0.21328996207E+02  0.51100000000E-03 0. -1.
        -11    1    3    3    0    0 -0.63969843371E+01  0.28820675191E+01  0.19829914035E+01  0.72910888735E+01  0.51100000000E-03 0.  1.
        -12    1    3    3    0    0  0.65845083862E+00 -0.41002558939E+01  0.21511535245E+02  0.21908715264E+02  0.00000000000E+00 0.  1.
</event>
<event>
 7    1  0.2838209E-011  0.5052886E+02  0.7816164E-02  0.1300439E+00
        -11   -1    0    0    0    0  0.00000000000E+00  0.00000000000E+00  0.45593999997E+02  0.45594000000E+02  0.51100000000E-03 0.  1.
         11   -1    0    0    0    0 -0.00000000000E+00 -0.00000000000E+00 -0.45593999997E+02  0.45594000000E+02  0.51100000000E-03 0. -1.
    9900012    2    1    2    0    0  0.30903350258E+01 -0.22652381856E+02  0.33622685251E+02  0.50528861571E+02  0.30000005230E+02 0.  0.
         12    1    1    2    0    0 -0.30903350258E+01  0.22652381856E+02 -0.33622685251E+02  0.40659138429E+02  0.00000000000E+00 0. -1.
         11    1    3    3    0    0  0.90662909280E+01 -0.15657111160E+02  0.17947084562E+02  0.25484124580E+02  0.51100000000E-03 0. -1.
        -11    1    3    3    0    0  0.25012528734E+01 -0.89948852347E+01  0.32810629400E+01  0.98959385912E+01  0.51100000000E-03 0.  1.
         12    1    3    3    0    0 -0.84772087755E+01  0.19996145392E+01  0.12394537749E+02  0.15148798399E+02  0.00000000000E+00 0. -1.
</event>
<event>
 7    1  0.2838209E-011  0.5052886E+02  0.7816164E-02  0.1300439E+00
        -11   -1    0    0    0    0  0.00000000000E+00  0.00000000000E+00  0.45593999997E+02  0.45594000000E+02  0.51100000000E-03 0.  1.
         11   -1    0    0    0    0 -0.00000000000E+00 -0.00000000000E+00 -0.45593999997E+02  0.45594000000E+02  0.51100000000E-03 0. -1.
    9900012    2    1    2    0    0  0.55887387770E+01  0.31394304073E+01  0.40150662794E+02  0.50528858996E+02  0.29999997404E+02 0.  0.
         12    1    1    2    0    0 -0.55887387770E+01 -0.31394304073E+01 -0.40150662794E+02  0.40659141004E+02  0.00000000000E+00 0. -1.
         11    1    3    3    0    0  0.74697226897E+00  0.30995965978E-01  0.19028698485E+02  0.19043379285E+02  0.51100000000E-03 0.  1.
        -11    1    3    3    0    0 -0.25639409706E+01  0.83470948224E+01  0.20628825310E+02  0.22400808450E+02  0.51100000000E-03 0. -1.
         12    1    3    3    0    0  0.74057074787E+01 -0.52386603811E+01  0.49313899912E+00  0.90846712610E+01  0.00000000000E+00 0. -1.
</event>
<event>
 7    1  0.2838209E-011  0.5052885E+02  0.7816164E-02  0.1300439E+00
        -11   -1    0    0    0    0  0.00000000000E+00  0.00000000000E+00  0.45593999997E+02  0.45594000000E+02  0.51100000000E-03 0.  1.
         11   -1    0    0    0    0 -0.00000000000E+00 -0.00000000000E+00 -0.45593999997E+02  0.45594000000E+02  0.51100000000E-03 0. -1.
    9900012    2    1    2    0    0 -0.83097893793E+01  0.35739932938E+02  0.17514891068E+02  0.50528845864E+02  0.29999957487E+02 0.  0.
         12    1    1    2    0    0  0.83097893793E+01 -0.35739932938E+02 -0.17514891068E+02  0.40659154136E+02  0.00000000000E+00 0. -1.
         11    1    3    3    0    0 -0.92045915731E-01  0.20995560085E+02  0.12570089790E+02  0.24470986358E+02  0.51100000000E-03 0. -1.
        -11    1    3    3    0    0 -0.33501013319E+01  0.18872658077E+02  0.31232088817E+01  0.19420474654E+02  0.51100000000E-03 0.  1.
         12    1    3    3    0    0 -0.48676421317E+01 -0.41282852237E+01  0.18215923963E+01  0.66373848517E+01  0.00000000000E+00 0. -1.
</event>
<event>
 7    1  0.2838209E-011  0.5052884E+02  0.7816164E-02  0.1300439E+00
        -11   -1    0    0    0    0  0.00000000000E+00  0.00000000000E+00  0.45593999997E+02  0.45594000000E+02  0.51100000000E-03 0.  1.
         11   -1    0    0    0    0 -0.00000000000E+00 -0.00000000000E+00 -0.45593999997E+02  0.45594000000E+02  0.51100000000E-03 0. -1.
    9900012    2    1    2    0    0  0.27428021356E+02 -0.65954957882E+01  0.29280880715E+02  0.50528844873E+02  0.29999954476E+02 0.  0.
         12    1    1    2    0    0 -0.27428021356E+02  0.65954957882E+01 -0.29280880715E+02  0.40659155127E+02  0.00000000000E+00 0. -1.
         11    1    3    3    0    0  0.13226405238E+02  0.69665312746E+01  0.43595062541E+01  0.15571629605E+02  0.51100000000E-03 0. -1.
        -11    1    3    3    0    0  0.14130049922E+02 -0.36641942967E+01  0.14183010346E+02  0.20352946062E+02  0.51100000000E-03 0.  1.
         12    1    3    3    0    0  0.71566195832E-01 -0.98978327661E+01  0.10738364114E+02  0.14604269206E+02  0.00000000000E+00 0. -1.
</event>
<event>
 7    1  0.2838209E-011  0.5052885E+02  0.7816164E-02  0.1300439E+00
        -11   -1    0    0    0    0  0.00000000000E+00  0.00000000000E+00  0.45593999997E+02  0.45594000000E+02  0.51100000000E-03 0.  1.
         11   -1    0    0    0    0 -0.00000000000E+00 -0.00000000000E+00 -0.45593999997E+02  0.45594000000E+02  0.51100000000E-03 0. -1.
    9900012    2    1    2    0    0 -0.57877975327E+01  0.42438548182E+01  0.40020711350E+02  0.50528852924E+02  0.29999978946E+02 0.  0.
         12    1    1    2    0    0  0.57877975327E+01 -0.42438548182E+01 -0.40020711350E+02  0.40659147076E+02  0.00000000000E+00 0. -1.
         11    1    3    3    0    0  0.21630060972E+01  0.12175604176E+02  0.24993606239E+02  0.27885556934E+02  0.51100000000E-03 0. -1.
        -11    1    3    3    0    0 -0.15791664162E+01  0.35044583419E+01  0.35921898979E+01  0.52610667515E+01  0.51100000000E-03 0.  1.
         12    1    3    3    0    0 -0.63716372136E+01 -0.11436207700E+02  0.11434915213E+02  0.17382229238E+02  0.00000000000E+00 0. -1.
</event>
<event>
 7    1  0.2838209E-011  0.5052886E+02  0.7816164E-02  0.1300439E+00
        -11   -1    0    0    0    0  0.00000000000E+00  0.00000000000E+00  0.45593999997E+02  0.45594000000E+02  0.51100000000E-03 0. -1.
         11   -1    0    0    0    0 -0.00000000000E+00 -0.00000000000E+00 -0.45593999997E+02  0.45594000000E+02  0.51100000000E-03 0.  1.
    9900012    2    1    2    0    0  0.25749369846E+02 -0.30545399476E+02 -0.75574061344E+01  0.50528857558E+02  0.29999993034E+02 0.  0.
         12    1    1    2    0    0 -0.25749369846E+02  0.30545399476E+02  0.75574061344E+01  0.40659142442E+02  0.00000000000E+00 0. -1.
         11    1    3    3    0    0  0.11091569207E+00  0.17110345501E+01 -0.13967248141E+01  0.22115112457E+01  0.51100000000E-03 0. -1.
        -11    1    3    3    0    0 -0.17788563605E+01 -0.43411111668E+01 -0.78590633832E+01  0.91528385562E+01  0.51100000000E-03 0.  1.
        -12    1    3    3    0    0  0.27417310514E+02 -0.27915322859E+02  0.16983820629E+01  0.39164507756E+02  0.00000000000E+00 0.  1.
</event>
<event>
 7    1  0.2838209E-011  0.5052885E+02  0.7816164E-02  0.1300439E+00
        -11   -1    0    0    0    0  0.00000000000E+00  0.00000000000E+00  0.45593999997E+02  0.45594000000E+02  0.51100000000E-03 0. -1.
         11   -1    0    0    0    0 -0.00000000000E+00 -0.00000000000E+00 -0.45593999997E+02  0.45594000000E+02  0.51100000000E-03 0.  1.
    9900012    2    1    2    0    0  0.32525948213E+02 -0.23883284779E+02 -0.49817481162E+01  0.50528850805E+02  0.29999972507E+02 0.  0.
         12    1    1    2    0    0 -0.32525948213E+02  0.23883284779E+02  0.49817481162E+01  0.40659149195E+02  0.00000000000E+00 0. -1.
         11    1    3    3    0    0  0.79814765201E+01 -0.14991077239E+02  0.27874313125E+01  0.17210640250E+02  0.51100000000E-03 0. -1.
        -11    1    3    3    0    0  0.51298395099E+01 -0.11689057561E+02 -0.24986321589E+01  0.13007401085E+02  0.51100000000E-03 0.  1.
        -12    1    3    3    0    0  0.19414632183E+02  0.27968500209E+01 -0.52705472697E+01  0.20310809471E+02  0.00000000000E+00 0.  1.
</event>
<event>
 7    1  0.2838209E-011  0.5052886E+02  0.7816164E-02  0.1300439E+00
        -11   -1    0    0    0    0  0.00000000000E+00  0.00000000000E+00  0.45593999997E+02  0.45594000000E+02  0.51100000000E-03 0.  1.
         11   -1    0    0    0    0 -0.00000000000E+00 -0.00000000000E+00 -0.45593999997E+02  0.45594000000E+02  0.51100000000E-03 0. -1.
    9900012    2    1    2    0    0 -0.19228240411E+02 -0.13185823364E+02  0.33310270933E+02  0.50528864290E+02  0.30000013495E+02 0.  0.
         12    1    1    2    0    0  0.19228240411E+02  0.13185823364E+02 -0.33310270933E+02  0.40659135710E+02  0.00000000000E+00 0. -1.
         11    1    3    3    0    0 -0.31309778074E+01  0.47834582610E+01  0.32285129178E+01  0.65656523580E+01  0.51100000000E-03 0. -1.
        -11    1    3    3    0    0 -0.10578122427E+02  0.99016082922E+00  0.42365471490E+01  0.11437894236E+02  0.51100000000E-03 0.  1.
        -12    1    3    3    0    0 -0.55191401760E+01 -0.18959442454E+02  0.25845210866E+02  0.32525317695E+02  0.00000000000E+00 0.  1.
</event>
<event>
 7    1  0.2838209E-011  0.5052886E+02  0.7816164E-02  0.1300439E+00
        -11   -1    0    0    0    0  0.00000000000E+00  0.00000000000E+00  0.45593999997E+02  0.45594000000E+02  0.51100000000E-03 0.  1.
         11   -1    0    0    0    0 -0.00000000000E+00 -0.00000000000E+00 -0.45593999997E+02  0.45594000000E+02  0.51100000000E-03 0. -1.
    9900012    2    1    2    0    0 -0.31737041397E+01 -0.19627889510E+01  0.40487536298E+02  0.50528861619E+02  0.30000005376E+02 0.  0.
         12    1    1    2    0    0  0.31737041397E+01  0.19627889510E+01 -0.40487536298E+02  0.40659138381E+02  0.00000000000E+00 0. -1.
         11    1    3    3    0    0  0.84920344402E+01 -0.21467804552E+01  0.36493120341E+01  0.94889827611E+01  0.51100000000E-03 0. -1.
        -11    1    3    3    0    0 -0.50337793071E+01 -0.10141343407E+01  0.19277456894E+01  0.54848524390E+01  0.51100000000E-03 0.  1.
        -12    1    3    3    0    0 -0.66319592728E+01  0.11981258449E+01  0.34910478574E+02  0.35555026419E+02  0.00000000000E+00 0.  1.
</event>
<event>
 7    1  0.2838209E-011  0.5052885E+02  0.7816164E-02  0.1300439E+00
        -11   -1    0    0    0    0  0.00000000000E+00  0.00000000000E+00  0.45593999997E+02  0.45594000000E+02  0.51100000000E-03 0.  1.
         11   -1    0    0    0    0 -0.00000000000E+00 -0.00000000000E+00 -0.45593999997E+02  0.45594000000E+02  0.51100000000E-03 0. -1.
    9900012    2    1    2    0    0  0.40056254499E+02 -0.44574052511E+01  0.53660516066E+01  0.50528849789E+02  0.29999969417E+02 0.  0.
         12    1    1    2    0    0 -0.40056254499E+02  0.44574052511E+01 -0.53660516066E+01  0.40659150211E+02  0.00000000000E+00 0. -1.
         11    1    3    3    0    0  0.32417571440E+02 -0.57984768318E+01  0.11323605644E+02  0.34824493057E+02  0.51100000000E-03 0.  1.
        -11    1    3    3    0    0  0.50143029064E+01 -0.51390446759E+01 -0.47511264396E+01  0.86096583280E+01  0.51100000000E-03 0. -1.
        -12    1    3    3    0    0  0.26243801526E+01  0.64801162565E+01 -0.12064275981E+01  0.70946984033E+01  0.00000000000E+00 0.  1.
</event>
<event>
 7    1  0.2838209E-011  0.5052886E+02  0.7816164E-02  0.1300439E+00
        -11   -1    0    0    0    0  0.00000000000E+00  0.00000000000E+00  0.45593999997E+02  0.45594000000E+02  0.51100000000E-03 0.  1.
         11   -1    0    0    0    0 -0.00000000000E+00 -0.00000000000E+00 -0.45593999997E+02  0.45594000000E+02  0.51100000000E-03 0. -1.
    9900012    2    1    2    0    0 -0.11493700041E+02  0.26909887200E+02  0.28229742338E+02  0.50528861762E+02  0.30000005813E+02 0.  0.
         12    1    1    2    0    0  0.11493700041E+02 -0.26909887200E+02 -0.28229742338E+02  0.40659138238E+02  0.00000000000E+00 0. -1.
         11    1    3    3    0    0  0.46409860784E+01  0.49068673566E+01  0.49196292339E+01  0.83557675348E+01  0.51100000000E-03 0. -1.
        -11    1    3    3    0    0  0.24774101108E+00  0.17317373818E+02  0.16183143939E+02  0.23703311152E+02  0.51100000000E-03 0.  1.
         12    1    3    3    0    0 -0.16382427131E+02  0.46856460251E+01  0.71269691657E+01  0.18469783075E+02  0.00000000000E+00 0. -1.
</event>
<event>
 7    1  0.2838209E-011  0.5052885E+02  0.7816164E-02  0.1300439E+00
        -11   -1    0    0    0    0  0.00000000000E+00  0.00000000000E+00  0.45593999997E+02  0.45594000000E+02  0.51100000000E-03 0.  1.
         11   -1    0    0    0    0 -0.00000000000E+00 -0.00000000000E+00 -0.45593999997E+02  0.45594000000E+02  0.51100000000E-03 0. -1.
    9900012    2    1    2    0    0  0.54345752592E+01 -0.83335607089E+01  0.39423132272E+02  0.50528853422E+02  0.29999980462E+02 0.  0.
         12    1    1    2    0    0 -0.54345752592E+01  0.83335607089E+01 -0.39423132272E+02  0.40659146578E+02  0.00000000000E+00 0. -1.
         11    1    3    3    0    0 -0.64627499507E+01 -0.50011426794E+01  0.22665226421E+02  0.24093381954E+02  0.51100000000E-03 0. -1.
        -11    1    3    3    0    0  0.92525225447E+01  0.10113729183E+01  0.18782072843E+02  0.20961829815E+02  0.51100000000E-03 0.  1.
         12    1    3    3    0    0  0.26448026652E+01 -0.43437909478E+01 -0.20241669925E+01  0.54736416534E+01  0.00000000000E+00 0. -1.
</event>
<event>
 7    1  0.2838209E-011  0.5052886E+02  0.7816164E-02  0.1300439E+00
        -11   -1    0    0    0    0  0.00000000000E+00  0.00000000000E+00  0.45593999997E+02  0.45594000000E+02  0.51100000000E-03 0.  1.
         11   -1    0    0    0    0 -0.00000000000E+00 -0.00000000000E+00 -0.45593999997E+02  0.45594000000E+02  0.51100000000E-03 0. -1.
    9900012    2    1    2    0    0 -0.12067438134E+02  0.16843158374E+02  0.34983575480E+02  0.50528860800E+02  0.30000002887E+02 0.  0.
         12    1    1    2    0    0  0.12067438134E+02 -0.16843158374E+02 -0.34983575480E+02  0.40659139200E+02  0.00000000000E+00 0. -1.
         11    1    3    3    0    0  0.23767485231E+00 -0.36729117444E+01  0.62546765525E+00  0.37333604255E+01  0.51100000000E-03 0. -1.
        -11    1    3    3    0    0 -0.70613612027E+01 -0.29852210271E+01  0.90970186138E+01  0.11896642994E+02  0.51100000000E-03 0.  1.
        -12    1    3    3    0    0 -0.52437517832E+01  0.23501291146E+02  0.25261089211E+02  0.34898857380E+02  0.00000000000E+00 0.  1.
</event>
<event>
 7    1  0.2838209E-011  0.5052883E+02  0.7816164E-02  0.1300439E+00
        -11   -1    0    0    0    0  0.00000000000E+00  0.00000000000E+00  0.45593999997E+02  0.45594000000E+02  0.51100000000E-03 0.  1.
         11   -1    0    0    0    0 -0.00000000000E+00 -0.00000000000E+00 -0.45593999997E+02  0.45594000000E+02  0.51100000000E-03 0. -1.
    9900012    2    1    2    0    0 -0.25902368401E+02 -0.25782687904E+02  0.17818205551E+02  0.50528829652E+02  0.29999908210E+02 0.  0.
         12    1    1    2    0    0  0.25902368401E+02  0.25782687904E+02 -0.17818205551E+02  0.40659170348E+02  0.00000000000E+00 0. -1.
         11    1    3    3    0    0  0.12228790189E+01 -0.54087635668E+01  0.56514305046E+01  0.79176273862E+01  0.51100000000E-03 0. -1.
        -11    1    3    3    0    0 -0.60853058744E+00 -0.12115155269E+02  0.79910204316E+01  0.14525966559E+02  0.51100000000E-03 0.  1.
         12    1    3    3    0    0 -0.26516716832E+02 -0.82587690676E+01  0.41757546152E+01  0.28085235707E+02  0.00000000000E+00 0. -1.
</event>
<event>
 7    1  0.2838209E-011  0.5052885E+02  0.7816164E-02  0.1300439E+00
        -11   -1    0    0    0    0  0.00000000000E+00  0.00000000000E+00  0.45593999997E+02  0.45594000000E+02  0.51100000000E-03 0.  1.
         11   -1    0    0    0    0 -0.00000000000E+00 -0.00000000000E+00 -0.45593999997E+02  0.45594000000E+02  0.51100000000E-03 0. -1.
    9900012    2    1    2    0    0 -0.94974546668E+01  0.39077813780E+02  0.59907819184E+01  0.50528847980E+02  0.29999963920E+02 0.  0.
         12    1    1    2    0    0  0.94974546668E+01 -0.39077813780E+02 -0.59907819184E+01  0.40659152020E+02  0.00000000000E+00 0. -1.
         11    1    3    3    0    0 -0.12555333609E+02  0.17987769045E+02  0.90126543341E+01  0.23715483880E+02  0.51100000000E-03 0. -1.
        -11    1    3    3    0    0 -0.11995148402E+00  0.67205677507E+01  0.64469927666E+01  0.93136531632E+01  0.51100000000E-03 0.  1.
         12    1    3    3    0    0  0.31778304262E+01  0.14369476984E+02 -0.94688651823E+01  0.17499710936E+02  0.00000000000E+00 0. -1.
</event>
<event>
 7    1  0.2838209E-011  0.5052887E+02  0.7816164E-02  0.1300439E+00
        -11   -1    0    0    0    0  0.00000000000E+00  0.00000000000E+00  0.45593999997E+02  0.45594000000E+02  0.51100000000E-03 0.  1.
         11   -1    0    0    0    0 -0.00000000000E+00 -0.00000000000E+00 -0.45593999997E+02  0.45594000000E+02  0.51100000000E-03 0. -1.
    9900012    2    1    2    0    0  0.68117043373E+01  0.34627746231E+02  0.20191198115E+02  0.50528873025E+02  0.30000040047E+02 0.  0.
         12    1    1    2    0    0 -0.68117043373E+01 -0.34627746231E+02 -0.20191198115E+02  0.40659126975E+02  0.00000000000E+00 0. -1.
         11    1    3    3    0    0  0.77429919283E+00  0.30035237159E+02  0.67641167412E+01  0.30797212308E+02  0.51100000000E-03 0. -1.
        -11    1    3    3    0    0  0.54338730802E+01  0.83341434178E+01  0.12211766778E+02  0.15751576786E+02  0.51100000000E-03 0.  1.
        -12    1    3    3    0    0  0.60353206426E+00 -0.37416343452E+01  0.12153145964E+01  0.39800839305E+01  0.00000000000E+00 0.  1.
</event>
<event>
 7    1  0.2838209E-011  0.5052886E+02  0.7816164E-02  0.1300439E+00
        -11   -1    0    0    0    0  0.00000000000E+00  0.00000000000E+00  0.45593999997E+02  0.45594000000E+02  0.51100000000E-03 0.  1.
         11   -1    0    0    0    0 -0.00000000000E+00 -0.00000000000E+00 -0.45593999997E+02  0.45594000000E+02  0.51100000000E-03 0. -1.
    9900012    2    1    2    0    0 -0.99189146420E+01  0.38132647565E+02  0.10034042998E+02  0.50528859614E+02  0.29999999283E+02 0.  0.
         12    1    1    2    0    0  0.99189146420E+01 -0.38132647565E+02 -0.10034042998E+02  0.40659140386E+02  0.00000000000E+00 0. -1.
         11    1    3    3    0    0  0.11707528198E+01 -0.11192952093E+01  0.20311034681E+01  0.25978578656E+01  0.51100000000E-03 0. -1.
        -11    1    3    3    0    0 -0.10758261395E+02  0.71495733857E+01  0.91120251659E+01  0.15807769948E+02  0.51100000000E-03 0.  1.
        -12    1    3    3    0    0 -0.33140606698E+00  0.32102369389E+02 -0.11090856355E+01  0.32123231801E+02  0.00000000000E+00 0.  1.
</event>
<event>
 7    1  0.2838209E-011  0.5052885E+02  0.7816164E-02  0.1300439E+00
        -11   -1    0    0    0    0  0.00000000000E+00  0.00000000000E+00  0.45593999997E+02  0.45594000000E+02  0.51100000000E-03 0.  1.
         11   -1    0    0    0    0 -0.00000000000E+00 -0.00000000000E+00 -0.45593999997E+02  0.45594000000E+02  0.51100000000E-03 0. -1.
    9900012    2    1    2    0    0 -0.93163224548E+01 -0.15331562229E+02  0.36487200437E+02  0.50528850228E+02  0.29999970753E+02 0.  0.
         12    1    1    2    0    0  0.93163224548E+01  0.15331562229E+02 -0.36487200437E+02  0.40659149772E+02  0.00000000000E+00 0. -1.
         11    1    3    3    0    0 -0.92829109039E+01 -0.45285857292E-01  0.17791273153E+02  0.20067483308E+02  0.51100000000E-03 0. -1.
        -11    1    3    3    0    0 -0.57456038663E+00  0.42800468626E+01  0.47991885865E+01  0.64560926367E+01  0.51100000000E-03 0.  1.
         12    1    3    3    0    0  0.54114883579E+00 -0.19566323234E+02  0.13896738697E+02  0.24005274283E+02  0.00000000000E+00 0. -1.
</event>
<event>
 7    1  0.2838209E-011  0.5052886E+02  0.7816164E-02  0.1300439E+00
        -11   -1    0    0    0    0  0.00000000000E+00  0.00000000000E+00  0.45593999997E+02  0.45594000000E+02  0.51100000000E-03 0.  1.
         11   -1    0    0    0    0 -0.00000000000E+00 -0.00000000000E+00 -0.45593999997E+02  0.45594000000E+02  0.51100000000E-03 0. -1.
    9900012    2    1    2    0    0  0.34142654419E+01 -0.26723823722E+02  0.30452354721E+02  0.50528857474E+02  0.29999992779E+02 0.  0.
         12    1    1    2    0    0 -0.34142654419E+01  0.26723823722E+02 -0.30452354721E+02  0.40659142526E+02  0.00000000000E+00 0. -1.
         11    1    3    3    0    0 -0.36109427048E+01 -0.12653118051E+02  0.37771731835E+00  0.13163699110E+02  0.51100000000E-03 0. -1.
        -11    1    3    3    0    0  0.29387901316E+01 -0.21978082330E+00 -0.98924543393E+00  0.31086006237E+01  0.51100000000E-03 0.  1.
        -12    1    3    3    0    0  0.40864180151E+01 -0.13850924848E+02  0.31063882837E+02  0.34256557741E+02  0.00000000000E+00 0.  1.
</event>
<event>
 7    1  0.2838209E-011  0.5052885E+02  0.7816164E-02  0.1300439E+00
        -11   -1    0    0    0    0  0.00000000000E+00  0.00000000000E+00  0.45593999997E+02  0.45594000000E+02  0.51100000000E-03 0.  1.
         11   -1    0    0    0    0 -0.00000000000E+00 -0.00000000000E+00 -0.45593999997E+02  0.45594000000E+02  0.51100000000E-03 0. -1.
    9900012    2    1    2    0    0 -0.15780682120E+02  0.86168774633E+01  0.36467596498E+02  0.50528854661E+02  0.29999984227E+02 0.  0.
         12    1    1    2    0    0  0.15780682120E+02 -0.86168774633E+01 -0.36467596498E+02  0.40659145339E+02  0.00000000000E+00 0. -1.
         11    1    3    3    0    0 -0.50674910618E+01 -0.23490076340E+00 -0.21390868201E+00  0.50774404196E+01  0.51100000000E-03 0. -1.
        -11    1    3    3    0    0 -0.17164962264E+01  0.63447705719E+01 -0.98326324698E+00  0.66459972750E+01  0.51100000000E-03 0.  1.
        -12    1    3    3    0    0 -0.89966948320E+01  0.25070076548E+01  0.37664768427E+02  0.38805416966E+02  0.00000000000E+00 0.  1.
</event>
<event>
 7    1  0.2838209E-011  0.5052882E+02  0.7816164E-02  0.1300439E+00
        -11   -1    0    0    0    0  0.00000000000E+00  0.00000000000E+00  0.45593999997E+02  0.45594000000E+02  0.51100000000E-03 0. -1.
         11   -1    0    0    0    0 -0.00000000000E+00 -0.00000000000E+00 -0.45593999997E+02  0.45594000000E+02  0.51100000000E-03 0.  1.
    9900012    2    1    2    0    0  0.25278344116E+02 -0.28287845598E+02  0.14627791874E+02  0.50528816721E+02  0.29999868906E+02 0.  0.
         12    1    1    2    0    0 -0.25278344116E+02  0.28287845598E+02 -0.14627791874E+02  0.40659183279E+02  0.00000000000E+00 0. -1.
         11    1    3    3    0    0 -0.19418031927E+01 -0.35866880063E+01  0.12688913403E+00  0.40805675594E+01  0.51100000000E-03 0. -1.
        -11    1    3    3    0    0  0.10387755137E+02 -0.15021755977E+02 -0.49932356390E+01  0.18933858873E+02  0.51100000000E-03 0.  1.
         12    1    3    3    0    0  0.16832392171E+02 -0.96794016144E+01  0.19494138379E+02  0.27514390289E+02  0.00000000000E+00 0. -1.
</event>
<event>
 7    1  0.2838209E-011  0.5052886E+02  0.7816164E-02  0.1300439E+00
        -11   -1    0    0    0    0  0.00000000000E+00  0.00000000000E+00  0.45593999997E+02  0.45594000000E+02  0.51100000000E-03 0.  1.
         11   -1    0    0    0    0 -0.00000000000E+00 -0.00000000000E+00 -0.45593999997E+02  0.45594000000E+02  0.51100000000E-03 0. -1.
    9900012    2    1    2    0    0  0.16893342404E+02 -0.15729812894E+02  0.33471682541E+02  0.50528861256E+02  0.30000004274E+02 0.  0.
         12    1    1    2    0    0 -0.16893342404E+02  0.15729812894E+02 -0.33471682541E+02  0.40659138744E+02  0.00000000000E+00 0. -1.
         11    1    3    3    0    0  0.78626659453E+00 -0.11265362112E+02  0.75107574767E+01  0.13562377255E+02  0.51100000000E-03 0. -1.
        -11    1    3    3    0    0  0.94777858126E+01 -0.12589803863E+02  0.16905200249E+02  0.23110979662E+02  0.51100000000E-03 0.  1.
         12    1    3    3    0    0  0.66292899967E+01  0.81253530813E+01  0.90557248154E+01  0.13855504339E+02  0.00000000000E+00 0. -1.
</event>
<event>
 7    1  0.2838209E-011  0.5052886E+02  0.7816164E-02  0.1300439E+00
        -11   -1    0    0    0    0  0.00000000000E+00  0.00000000000E+00  0.45593999997E+02  0.45594000000E+02  0.51100000000E-03 0.  1.
         11   -1    0    0    0    0 -0.00000000000E+00 -0.00000000000E+00 -0.45593999997E+02  0.45594000000E+02  0.51100000000E-03 0. -1.
    9900012    2    1    2    0    0  0.53548855784E+01  0.38679072129E+02 -0.11332282240E+02  0.50528855382E+02  0.29999986419E+02 0.  0.
         12    1    1    2    0    0 -0.53548855784E+01 -0.38679072129E+02  0.11332282240E+02  0.40659144618E+02  0.00000000000E+00 0. -1.
         11    1    3    3    0    0 -0.34729314596E+01 -0.15969014843E+01  0.21883905362E+01  0.44045885930E+01  0.51100000000E-03 0. -1.
        -11    1    3    3    0    0 -0.22893270361E+01  0.27950781261E+00 -0.19735711746E+01  0.30354779422E+01  0.51100000000E-03 0.  1.
         12    1    3    3    0    0  0.11117144074E+02  0.39996465800E+02 -0.11547101601E+02  0.43088788847E+02  0.00000000000E+00 0. -1.
</event>
<event>
 7    1  0.2838209E-011  0.5052886E+02  0.7816164E-02  0.1300439E+00
        -11   -1    0    0    0    0  0.00000000000E+00  0.00000000000E+00  0.45593999997E+02  0.45594000000E+02  0.51100000000E-03 0.  1.
         11   -1    0    0    0    0 -0.00000000000E+00 -0.00000000000E+00 -0.45593999997E+02  0.45594000000E+02  0.51100000000E-03 0. -1.
    9900012    2    1    2    0    0  0.28627096196E+02  0.23206968334E+02  0.17178234434E+02  0.50528858910E+02  0.29999997144E+02 0.  0.
         12    1    1    2    0    0 -0.28627096196E+02 -0.23206968334E+02 -0.17178234434E+02  0.40659141090E+02  0.00000000000E+00 0. -1.
         11    1    3    3    0    0  0.14741209387E+02  0.16471357317E+02  0.12761450412E+01  0.22141305573E+02  0.51100000000E-03 0. -1.
        -11    1    3    3    0    0  0.54738713917E+01  0.79049401060E+01 -0.80184243262E+00  0.96485386272E+01  0.51100000000E-03 0.  1.
         12    1    3    3    0    0  0.84120154172E+01 -0.11693290884E+01  0.16703931825E+02  0.18739014710E+02  0.00000000000E+00 0. -1.
</event>
<event>
 7    1  0.2838209E-011  0.5052887E+02  0.7816164E-02  0.1300439E+00
        -11   -1    0    0    0    0  0.00000000000E+00  0.00000000000E+00  0.45593999997E+02  0.45594000000E+02  0.51100000000E-03 0. -1.
         11   -1    0    0    0    0 -0.00000000000E+00 -0.00000000000E+00 -0.45593999997E+02  0.45594000000E+02  0.51100000000E-03 0.  1.
    9900012    2    1    2    0    0  0.31960479109E+02 -0.25038836749E+02 -0.21793341409E+01  0.50528867349E+02  0.30000022793E+02 0.  0.
         12    1    1    2    0    0 -0.31960479109E+02  0.25038836749E+02  0.21793341409E+01  0.40659132651E+02  0.00000000000E+00 0. -1.
         11    1    3    3    0    0  0.82381502460E+00 -0.12840514584E+01 -0.58208326097E+01  0.60174373178E+01  0.51100000000E-03 0. -1.
        -11    1    3    3    0    0  0.13637721131E+02 -0.62371198287E+00 -0.45196146871E+01  0.14380659632E+02  0.51100000000E-03 0.  1.
         12    1    3    3    0    0  0.17498942954E+02 -0.23131073308E+02  0.81611131559E+01  0.30130770399E+02  0.00000000000E+00 0. -1.
</event>
<event>
 7    1  0.2838209E-011  0.5052886E+02  0.7816164E-02  0.1300439E+00
        -11   -1    0    0    0    0  0.00000000000E+00  0.00000000000E+00  0.45593999997E+02  0.45594000000E+02  0.51100000000E-03 0.  1.
         11   -1    0    0    0    0 -0.00000000000E+00 -0.00000000000E+00 -0.45593999997E+02  0.45594000000E+02  0.51100000000E-03 0. -1.
    9900012    2    1    2    0    0  0.28352400731E+02 -0.10983722302E+02  0.26993791709E+02  0.50528861130E+02  0.30000003891E+02 0.  0.
         12    1    1    2    0    0 -0.28352400731E+02  0.10983722302E+02 -0.26993791709E+02  0.40659138870E+02  0.00000000000E+00 0. -1.
         11    1    3    3    0    0  0.67986533352E+00 -0.41984000814E+01  0.12332435209E+02  0.13045218993E+02  0.51100000000E-03 0.  1.
        -11    1    3    3    0    0 -0.12606276047E+01  0.35382963119E+01  0.20164048179E+01  0.42631691732E+01  0.51100000000E-03 0. -1.
         12    1    3    3    0    0  0.28933163002E+02 -0.10323618533E+02  0.12644951681E+02  0.33220472964E+02  0.00000000000E+00 0. -1.
</event>
<event>
 7    1  0.2838209E-011  0.5052886E+02  0.7816164E-02  0.1300439E+00
        -11   -1    0    0    0    0  0.00000000000E+00  0.00000000000E+00  0.45593999997E+02  0.45594000000E+02  0.51100000000E-03 0. -1.
         11   -1    0    0    0    0 -0.00000000000E+00 -0.00000000000E+00 -0.45593999997E+02  0.45594000000E+02  0.51100000000E-03 0.  1.
    9900012    2    1    2    0    0  0.20639911230E+02  0.13744080690E+02 -0.32222045389E+02  0.50528857133E+02  0.29999991743E+02 0.  0.
         12    1    1    2    0    0 -0.20639911230E+02 -0.13744080690E+02  0.32222045389E+02  0.40659142867E+02  0.00000000000E+00 0. -1.
         11    1    3    3    0    0  0.45677516471E+01 -0.52734464116E+01 -0.14793425877E+02  0.16356009342E+02  0.51100000000E-03 0. -1.
        -11    1    3    3    0    0  0.93802178890E+01  0.21435218060E+01 -0.11677635810E+02  0.15131105437E+02  0.51100000000E-03 0.  1.
         12    1    3    3    0    0  0.66919416936E+01  0.16874005296E+02 -0.57509837029E+01  0.19041742355E+02  0.00000000000E+00 0. -1.
</event>
<event>
 7    1  0.2838209E-011  0.5052887E+02  0.7816164E-02  0.1300439E+00
        -11   -1    0    0    0    0  0.00000000000E+00  0.00000000000E+00  0.45593999997E+02  0.45594000000E+02  0.51100000000E-03 0.  1.
         11   -1    0    0    0    0 -0.00000000000E+00 -0.00000000000E+00 -0.45593999997E+02  0.45594000000E+02  0.51100000000E-03 0. -1.
    9900012    2    1    2    0    0  0.36892785152E+02 -0.10958901498E+02  0.13114498974E+02  0.50528865705E+02  0.30000017796E+02 0.  0.
         12    1    1    2    0    0 -0.36892785152E+02  0.10958901498E+02 -0.13114498974E+02  0.40659134295E+02  0.00000000000E+00 0. -1.
         11    1    3    3    0    0 -0.17457399851E+01 -0.15107563099E+01  0.10634147420E+01  0.25418190137E+01  0.51100000000E-03 0. -1.
        -11    1    3    3    0    0 -0.32838782839E+01 -0.20175279173E+01  0.62317164998E+00  0.39041796382E+01  0.51100000000E-03 0.  1.
        -12    1    3    3    0    0  0.41922403421E+02 -0.74306172711E+01  0.11427912582E+02  0.44082867053E+02  0.00000000000E+00 0.  1.
</event>
<event>
 7    1  0.2838209E-011  0.5052886E+02  0.7816164E-02  0.1300439E+00
        -11   -1    0    0    0    0  0.00000000000E+00  0.00000000000E+00  0.45593999997E+02  0.45594000000E+02  0.51100000000E-03 0. -1.
         11   -1    0    0    0    0 -0.00000000000E+00 -0.00000000000E+00 -0.45593999997E+02  0.45594000000E+02  0.51100000000E-03 0.  1.
    9900012    2    1    2    0    0 -0.34096138313E+02 -0.86292994053E+01 -0.20399866102E+02  0.50528855972E+02  0.29999988213E+02 0.  0.
         12    1    1    2    0    0  0.34096138313E+02  0.86292994053E+01  0.20399866102E+02  0.40659144028E+02  0.00000000000E+00 0. -1.
         11    1    3    3    0    0  0.94681914390E-01 -0.49091226583E+00  0.95409871401E+00  0.10771555760E+01  0.51100000000E-03 0. -1.
        -11    1    3    3    0    0 -0.33945362451E+02 -0.15318708099E+02 -0.16216197780E+02  0.40619152139E+02  0.51100000000E-03 0.  1.
        -12    1    3    3    0    0 -0.24545777666E+00  0.71803209600E+01 -0.51377670356E+01  0.88325482575E+01  0.00000000000E+00 0.  1.
</event>
<event>
 7    1  0.2838209E-011  0.5052887E+02  0.7816164E-02  0.1300439E+00
        -11   -1    0    0    0    0  0.00000000000E+00  0.00000000000E+00  0.45593999997E+02  0.45594000000E+02  0.51100000000E-03 0.  1.
         11   -1    0    0    0    0 -0.00000000000E+00 -0.00000000000E+00 -0.45593999997E+02  0.45594000000E+02  0.51100000000E-03 0. -1.
    9900012    2    1    2    0    0  0.31237111236E+02  0.70093792034E-01  0.26026956489E+02  0.50528874387E+02  0.30000044187E+02 0.  0.
         12    1    1    2    0    0 -0.31237111236E+02 -0.70093792034E-01 -0.26026956489E+02  0.40659125613E+02  0.00000000000E+00 0. -1.
         11    1    3    3    0    0  0.12420890328E+02  0.70004228034E+01  0.57778136980E+01  0.15384003619E+02  0.51100000000E-03 0. -1.
        -11    1    3    3    0    0  0.19287988538E+02  0.23020479284E+01  0.12681700132E+02  0.23198091409E+02  0.51100000000E-03 0.  1.
         12    1    3    3    0    0 -0.47176763043E+00 -0.92323769397E+01  0.75674426594E+01  0.11946779359E+02  0.00000000000E+00 0. -1.
</event>
<event>
 7    1  0.2838209E-011  0.5052887E+02  0.7816164E-02  0.1300439E+00
        -11   -1    0    0    0    0  0.00000000000E+00  0.00000000000E+00  0.45593999997E+02  0.45594000000E+02  0.51100000000E-03 0.  1.
         11   -1    0    0    0    0 -0.00000000000E+00 -0.00000000000E+00 -0.45593999997E+02  0.45594000000E+02  0.51100000000E-03 0. -1.
    9900012    2    1    2    0    0  0.19773514193E+02 -0.33033255011E+02  0.13075826928E+02  0.50528867569E+02  0.30000023462E+02 0.  0.
         12    1    1    2    0    0 -0.19773514193E+02  0.33033255011E+02 -0.13075826928E+02  0.40659132431E+02  0.00000000000E+00 0. -1.
         11    1    3    3    0    0  0.18771978944E+01 -0.17328863074E+02  0.14500460473E+02  0.22673260056E+02  0.51100000000E-03 0. -1.
        -11    1    3    3    0    0  0.29690045909E+00 -0.12143358532E+01  0.41940986941E+01  0.43764398276E+01  0.51100000000E-03 0.  1.
         12    1    3    3    0    0  0.17599415840E+02 -0.14490056084E+02 -0.56187322389E+01  0.23479167685E+02  0.00000000000E+00 0. -1.
</event>
<event>
 7    1  0.2838209E-011  0.5052887E+02  0.7816164E-02  0.1300439E+00
        -11   -1    0    0    0    0  0.00000000000E+00  0.00000000000E+00  0.45593999997E+02  0.45594000000E+02  0.51100000000E-03 0.  1.
         11   -1    0    0    0    0 -0.00000000000E+00 -0.00000000000E+00 -0.45593999997E+02  0.45594000000E+02  0.51100000000E-03 0. -1.
    9900012    2    1    2    0    0  0.22420166256E+02  0.32930209874E+02  0.81303223683E+01  0.50528871638E+02  0.30000035832E+02 0.  0.
         12    1    1    2    0    0 -0.22420166256E+02 -0.32930209874E+02 -0.81303223683E+01  0.40659128362E+02  0.00000000000E+00 0. -1.
         11    1    3    3    0    0  0.89952512806E+01  0.81777431444E+01 -0.74712789928E-01  0.12157121814E+02  0.51100000000E-03 0. -1.
        -11    1    3    3    0    0  0.16493054029E+02  0.90515806141E+01  0.11483548153E+02  0.22041411508E+02  0.51100000000E-03 0.  1.
         12    1    3    3    0    0 -0.30681390535E+01  0.15700886116E+02 -0.32785129947E+01  0.16330338316E+02  0.00000000000E+00 0. -1.
</event>
<event>
 7    1  0.2838209E-011  0.5052886E+02  0.7816164E-02  0.1300439E+00
        -11   -1    0    0    0    0  0.00000000000E+00  0.00000000000E+00  0.45593999997E+02  0.45594000000E+02  0.51100000000E-03 0.  1.
         11   -1    0    0    0    0 -0.00000000000E+00 -0.00000000000E+00 -0.45593999997E+02  0.45594000000E+02  0.51100000000E-03 0. -1.
    9900012    2    1    2    0    0  0.33151626302E+02  0.23537776144E+02 -0.32886176342E+00  0.50528863483E+02  0.30000011043E+02 0.  0.
         12    1    1    2    0    0 -0.33151626302E+02 -0.23537776144E+02  0.32886176342E+00  0.40659136517E+02  0.00000000000E+00 0. -1.
         11    1    3    3    0    0  0.11806339735E+02  0.38320845060E+01  0.35730180525E+01  0.12916694154E+02  0.51100000000E-03 0. -1.
        -11    1    3    3    0    0  0.11047238961E+02  0.14538598748E+02  0.89641427943E+01  0.20341292941E+02  0.51100000000E-03 0.  1.
         12    1    3    3    0    0  0.10298047606E+02  0.51670928900E+01 -0.12866022610E+02  0.17270876389E+02  0.00000000000E+00 0. -1.
</event>
<event>
 7    1  0.2838209E-011  0.5052888E+02  0.7816164E-02  0.1300439E+00
        -11   -1    0    0    0    0  0.00000000000E+00  0.00000000000E+00  0.45593999997E+02  0.45594000000E+02  0.51100000000E-03 0. -1.
         11   -1    0    0    0    0 -0.00000000000E+00 -0.00000000000E+00 -0.45593999997E+02  0.45594000000E+02  0.51100000000E-03 0.  1.
    9900012    2    1    2    0    0  0.32355350261E+02 -0.24346069128E+02 -0.36829761243E+01  0.50528879429E+02  0.30000059511E+02 0.  0.
         12    1    1    2    0    0 -0.32355350261E+02  0.24346069128E+02  0.36829761243E+01  0.40659120571E+02  0.00000000000E+00 0. -1.
         11    1    3    3    0    0  0.24919299103E+01  0.54838486043E+01  0.27564621389E+01  0.66242278024E+01  0.51100000000E-03 0. -1.
        -11    1    3    3    0    0  0.19112615800E+02 -0.12068137964E+02 -0.21653686561E+01  0.22707286459E+02  0.51100000000E-03 0.  1.
        -12    1    3    3    0    0  0.10750804550E+02 -0.17761779769E+02 -0.42740696072E+01  0.21197365167E+02  0.00000000000E+00 0.  1.
</event>
<event>
 7    1  0.2838209E-011  0.5052896E+02  0.7816164E-02  0.1300438E+00
        -11   -1    0    0    0    0  0.00000000000E+00  0.00000000000E+00  0.45593999997E+02  0.45594000000E+02  0.51100000000E-03 0. -1.
         11   -1    0    0    0    0 -0.00000000000E+00 -0.00000000000E+00 -0.45593999997E+02  0.45594000000E+02  0.51100000000E-03 0.  1.
    9900012    2    1    2    0    0  0.63398724676E+01  0.35745851363E+02 -0.18308395517E+02  0.50528963870E+02  0.30000316179E+02 0.  0.
         12    1    1    2    0    0 -0.63398724676E+01 -0.35745851363E+02  0.18308395517E+02  0.40659036130E+02  0.00000000000E+00 0. -1.
         11    1    3    3    0    0 -0.43316833674E+01  0.29827901941E+01 -0.86440522837E+00  0.53298888166E+01  0.51100000000E-03 0. -1.
        -11    1    3    3    0    0 -0.57942917335E+01  0.18801620446E+02 -0.50734823284E+01  0.20317848589E+02  0.51100000000E-03 0.  1.
        -12    1    3    3    0    0  0.16465847569E+02  0.13961440724E+02 -0.12370507960E+02  0.24881226465E+02  0.00000000000E+00 0.  1.
</event>
<event>
 7    1  0.2838209E-011  0.5052886E+02  0.7816164E-02  0.1300439E+00
        -11   -1    0    0    0    0  0.00000000000E+00  0.00000000000E+00  0.45593999997E+02  0.45594000000E+02  0.51100000000E-03 0.  1.
         11   -1    0    0    0    0 -0.00000000000E+00 -0.00000000000E+00 -0.45593999997E+02  0.45594000000E+02  0.51100000000E-03 0. -1.
    9900012    2    1    2    0    0 -0.15917723824E+02 -0.64920380699E+01  0.36846233875E+02  0.50528862763E+02  0.30000008856E+02 0.  0.
         12    1    1    2    0    0  0.15917723824E+02  0.64920380699E+01 -0.36846233875E+02  0.40659137237E+02  0.00000000000E+00 0. -1.
         11    1    3    3    0    0 -0.12777252658E+02 -0.87204381236E+01  0.49191604556E+01  0.16232755971E+02  0.51100000000E-03 0. -1.
        -11    1    3    3    0    0 -0.56066145263E+01 -0.25462352496E+01  0.10202417500E+02  0.11916659074E+02  0.51100000000E-03 0.  1.
         12    1    3    3    0    0  0.24661433602E+01  0.47746353032E+01  0.21724655919E+02  0.22379447718E+02  0.00000000000E+00 0. -1.
</event>
<event>
 7    1  0.2838209E-011  0.5052887E+02  0.7816164E-02  0.1300439E+00
        -11   -1    0    0    0    0  0.00000000000E+00  0.00000000000E+00  0.45593999997E+02  0.45594000000E+02  0.51100000000E-03 0. -1.
         11   -1    0    0    0    0 -0.00000000000E+00 -0.00000000000E+00 -0.45593999997E+02  0.45594000000E+02  0.51100000000E-03 0.  1.
    9900012    2    1    2    0    0 -0.16970424720E+02  0.34721637062E+02 -0.12632387047E+02  0.50528873129E+02  0.30000040362E+02 0.  0.
         12    1    1    2    0    0  0.16970424720E+02 -0.34721637062E+02  0.12632387047E+02  0.40659126871E+02  0.00000000000E+00 0. -1.
         11    1    3    3    0    0  0.77030582956E+00  0.15225952584E+01 -0.36939234597E+01  0.40689971958E+01  0.51100000000E-03 0. -1.
        -11    1    3    3    0    0  0.20745838535E+01  0.10717795648E+02 -0.12134479929E+02  0.16322397040E+02  0.51100000000E-03 0.  1.
         12    1    3    3    0    0 -0.19815314403E+02  0.22481246155E+02  0.31960163416E+01  0.30137478893E+02  0.00000000000E+00 0. -1.
</event>
<event>
 7    1  0.2838209E-011  0.5052886E+02  0.7816164E-02  0.1300439E+00
        -11   -1    0    0    0    0  0.00000000000E+00  0.00000000000E+00  0.45593999997E+02  0.45594000000E+02  0.51100000000E-03 0.  1.
         11   -1    0    0    0    0 -0.00000000000E+00 -0.00000000000E+00 -0.45593999997E+02  0.45594000000E+02  0.51100000000E-03 0. -1.
    9900012    2    1    2    0    0 -0.30116709844E+02 -0.20590596141E+02 -0.17949275296E+02  0.50528863943E+02  0.30000012442E+02 0.  0.
         12    1    1    2    0    0  0.30116709844E+02  0.20590596141E+02  0.17949275296E+02  0.40659136057E+02  0.00000000000E+00 0. -1.
         11    1    3    3    0    0 -0.14893321267E+02 -0.11654069100E+02 -0.73950607816E+01  0.20305547744E+02  0.51100000000E-03 0. -1.
        -11    1    3    3    0    0 -0.16844404158E+02 -0.51404984057E+01  0.13115780237E+01  0.17660093784E+02  0.51100000000E-03 0.  1.
         12    1    3    3    0    0  0.16210155808E+01 -0.37960286345E+01 -0.11865792538E+02  0.12563222415E+02  0.00000000000E+00 0. -1.
</event>
<event>
 7    1  0.2838209E-011  0.5052886E+02  0.7816164E-02  0.1300439E+00
        -11   -1    0    0    0    0  0.00000000000E+00  0.00000000000E+00  0.45593999997E+02  0.45594000000E+02  0.51100000000E-03 0.  1.
         11   -1    0    0    0    0 -0.00000000000E+00 -0.00000000000E+00 -0.45593999997E+02  0.45594000000E+02  0.51100000000E-03 0. -1.
    9900012    2    1    2    0    0  0.40407851397E+02  0.61588799318E+00 -0.44712685709E+01  0.50528855700E+02  0.29999987386E+02 0.  0.
         12    1    1    2    0    0 -0.40407851397E+02 -0.61588799318E+00  0.44712685709E+01  0.40659144300E+02  0.00000000000E+00 0. -1.
         11    1    3    3    0    0 -0.74379900177E+00 -0.31097049064E+01 -0.28460823072E+01  0.42806175163E+01  0.51100000000E-03 0. -1.
        -11    1    3    3    0    0  0.16499743486E+02  0.11629949715E+02 -0.25288178906E+01  0.20344340384E+02  0.51100000000E-03 0.  1.
        -12    1    3    3    0    0  0.24651906913E+02 -0.79043568153E+01  0.90363162698E+00  0.25903897800E+02  0.00000000000E+00 0.  1.
</event>
<event>
 7    1  0.2838209E-011  0.5052886E+02  0.7816164E-02  0.1300439E+00
        -11   -1    0    0    0    0  0.00000000000E+00  0.00000000000E+00  0.45593999997E+02  0.45594000000E+02  0.51100000000E-03 0.  1.
         11   -1    0    0    0    0 -0.00000000000E+00 -0.00000000000E+00 -0.45593999997E+02  0.45594000000E+02  0.51100000000E-03 0. -1.
    9900012    2    1    2    0    0 -0.29780474316E+02 -0.27482471254E+02  0.33170692020E+01  0.50528858042E+02  0.29999994504E+02 0.  0.
         12    1    1    2    0    0  0.29780474316E+02  0.27482471254E+02 -0.33170692020E+01  0.40659141958E+02  0.00000000000E+00 0. -1.
         11    1    3    3    0    0 -0.41499170198E+01 -0.63710885121E+01  0.14682796061E+01  0.77439282901E+01  0.51100000000E-03 0.  1.
        -11    1    3    3    0    0 -0.30009853602E+02 -0.12323364946E+02  0.41335804567E+01  0.32703870175E+02  0.51100000000E-03 0. -1.
        -12    1    3    3    0    0  0.43792963054E+01 -0.87880177956E+01 -0.22847908608E+01  0.10081059576E+02  0.00000000000E+00 0.  1.
</event>
<event>
 7    1  0.2838209E-011  0.5052886E+02  0.7816164E-02  0.1300439E+00
        -11   -1    0    0    0    0  0.00000000000E+00  0.00000000000E+00  0.45593999997E+02  0.45594000000E+02  0.51100000000E-03 0. -1.
         11   -1    0    0    0    0 -0.00000000000E+00 -0.00000000000E+00 -0.45593999997E+02  0.45594000000E+02  0.51100000000E-03 0.  1.
    9900012    2    1    2    0    0  0.18582596777E+02 -0.35066512254E+02 -0.88426492141E+01  0.50528860440E+02  0.30000001795E+02 0.  0.
         12    1    1    2    0    0 -0.18582596777E+02  0.35066512254E+02  0.88426492141E+01  0.40659139560E+02  0.00000000000E+00 0. -1.
         11    1    3    3    0    0  0.20128533883E+02 -0.18054323163E+02 -0.34756631713E+01  0.27261634138E+02  0.51100000000E-03 0. -1.
        -11    1    3    3    0    0  0.53638973810E+01 -0.96166683882E+01 -0.69523798279E+01  0.13022568546E+02  0.51100000000E-03 0.  1.
        -12    1    3    3    0    0 -0.69098344866E+01 -0.73955207024E+01  0.15853937851E+01  0.10244657756E+02  0.00000000000E+00 0.  1.
</event>
<event>
 7    1  0.2838209E-011  0.5052887E+02  0.7816164E-02  0.1300439E+00
        -11   -1    0    0    0    0  0.00000000000E+00  0.00000000000E+00  0.45593999997E+02  0.45594000000E+02  0.51100000000E-03 0.  1.
         11   -1    0    0    0    0 -0.00000000000E+00 -0.00000000000E+00 -0.45593999997E+02  0.45594000000E+02  0.51100000000E-03 0. -1.
    9900012    2    1    2    0    0 -0.22182559229E+02  0.55043828981E+01  0.33627377059E+02  0.50528872452E+02  0.30000038306E+02 0.  0.
         12    1    1    2    0    0  0.22182559229E+02 -0.55043828981E+01 -0.33627377059E+02  0.40659127548E+02  0.00000000000E+00 0. -1.
         11    1    3    3    0    0 -0.76872223575E+01 -0.93039819569E+01  0.22418150255E+02  0.25460379591E+02  0.51100000000E-03 0. -1.
        -11    1    3    3    0    0 -0.57415952344E+01  0.77476883447E+01  0.97748670472E+01  0.13731009306E+02  0.51100000000E-03 0.  1.
        -12    1    3    3    0    0 -0.87537416375E+01  0.70606765103E+01  0.14343597573E+01  0.11337483555E+02  0.00000000000E+00 0.  1.
</event>
<event>
 7    1  0.2838209E-011  0.5052885E+02  0.7816164E-02  0.1300439E+00
        -11   -1    0    0    0    0  0.00000000000E+00  0.00000000000E+00  0.45593999997E+02  0.45594000000E+02  0.51100000000E-03 0. -1.
         11   -1    0    0    0    0 -0.00000000000E+00 -0.00000000000E+00 -0.45593999997E+02  0.45594000000E+02  0.51100000000E-03 0.  1.
    9900012    2    1    2    0    0  0.37332526077E+01 -0.31005916913E+02 -0.26035784497E+02  0.50528854251E+02  0.29999982981E+02 0.  0.
         12    1    1    2    0    0 -0.37332526077E+01  0.31005916913E+02  0.26035784497E+02  0.40659145749E+02  0.00000000000E+00 0. -1.
         11    1    3    3    0    0  0.50833537895E+01  0.28855863004E+01 -0.71442354045E+00  0.58887600819E+01  0.51100000000E-03 0. -1.
        -11    1    3    3    0    0  0.16749004141E+01 -0.22570949845E+01  0.13815824376E+01  0.31318587866E+01  0.51100000000E-03 0.  1.
        -12    1    3    3    0    0 -0.30250015959E+01 -0.31634408229E+02 -0.26702943394E+02  0.41508235383E+02  0.00000000000E+00 0.  1.
</event>
<event>
 7    1  0.2838209E-011  0.5052883E+02  0.7816164E-02  0.1300439E+00
        -11   -1    0    0    0    0  0.00000000000E+00  0.00000000000E+00  0.45593999997E+02  0.45594000000E+02  0.51100000000E-03 0.  1.
         11   -1    0    0    0    0 -0.00000000000E+00 -0.00000000000E+00 -0.45593999997E+02  0.45594000000E+02  0.51100000000E-03 0. -1.
    9900012    2    1    2    0    0 -0.14322711558E+02  0.17963688950E+02  0.33545991922E+02  0.50528834230E+02  0.29999922126E+02 0.  0.
         12    1    1    2    0    0  0.14322711558E+02 -0.17963688950E+02 -0.33545991922E+02  0.40659165770E+02  0.00000000000E+00 0. -1.
         11    1    3    3    0    0  0.47468399332E+01  0.28457756879E+01  0.15435370683E+01  0.57457319429E+01  0.51100000000E-03 0. -1.
        -11    1    3    3    0    0 -0.69309487818E-01 -0.21483293187E+01 -0.14659461016E+01  0.26017534282E+01  0.51100000000E-03 0.  1.
        -12    1    3    3    0    0 -0.19000242003E+02  0.17266242581E+02  0.33468400956E+02  0.42181348859E+02  0.00000000000E+00 0.  1.
</event>
<event>
 7    1  0.2838209E-011  0.5052886E+02  0.7816164E-02  0.1300439E+00
        -11   -1    0    0    0    0  0.00000000000E+00  0.00000000000E+00  0.45593999997E+02  0.45594000000E+02  0.51100000000E-03 0.  1.
         11   -1    0    0    0    0 -0.00000000000E+00 -0.00000000000E+00 -0.45593999997E+02  0.45594000000E+02  0.51100000000E-03 0. -1.
    9900012    2    1    2    0    0  0.15891619811E+02  0.29419338971E+01  0.37309079036E+02  0.50528856701E+02  0.29999990429E+02 0.  0.
         12    1    1    2    0    0 -0.15891619811E+02 -0.29419338971E+01 -0.37309079036E+02  0.40659143299E+02  0.00000000000E+00 0. -1.
         11    1    3    3    0    0  0.61865319518E+01 -0.62853283502E+01  0.41931652664E+01  0.97653041568E+01  0.51100000000E-03 0. -1.
        -11    1    3    3    0    0 -0.57676449802E+01  0.53894110433E+00  0.58586181681E+01  0.82389072839E+01  0.51100000000E-03 0.  1.
        -12    1    3    3    0    0  0.15472732840E+02  0.86883211430E+01  0.27257295602E+02  0.32524645260E+02  0.00000000000E+00 0.  1.
</event>
<event>
 7    1  0.2838209E-011  0.5052886E+02  0.7816164E-02  0.1300439E+00
        -11   -1    0    0    0    0  0.00000000000E+00  0.00000000000E+00  0.45593999997E+02  0.45594000000E+02  0.51100000000E-03 0. -1.
         11   -1    0    0    0    0 -0.00000000000E+00 -0.00000000000E+00 -0.45593999997E+02  0.45594000000E+02  0.51100000000E-03 0.  1.
    9900012    2    1    2    0    0  0.23116857845E+02 -0.26640019098E+02 -0.20225869007E+02  0.50528861898E+02  0.30000006224E+02 0.  0.
         12    1    1    2    0    0 -0.23116857845E+02  0.26640019098E+02  0.20225869007E+02  0.40659138102E+02  0.00000000000E+00 0. -1.
         11    1    3    3    0    0  0.72800990792E+01 -0.89711537432E+01 -0.11548171945E+02  0.16335290558E+02  0.51100000000E-03 0. -1.
        -11    1    3    3    0    0  0.10937456124E+02 -0.12928766268E+02 -0.16619406691E+02  0.23727318068E+02  0.51100000000E-03 0.  1.
         12    1    3    3    0    0  0.48993026413E+01 -0.47400990871E+01  0.79417096288E+01  0.10466253272E+02  0.00000000000E+00 0. -1.
</event>
<event>
 7    1  0.2838209E-011  0.5052886E+02  0.7816164E-02  0.1300439E+00
        -11   -1    0    0    0    0  0.00000000000E+00  0.00000000000E+00  0.45593999997E+02  0.45594000000E+02  0.51100000000E-03 0.  1.
         11   -1    0    0    0    0 -0.00000000000E+00 -0.00000000000E+00 -0.45593999997E+02  0.45594000000E+02  0.51100000000E-03 0. -1.
    9900012    2    1    2    0    0  0.29590654812E+02  0.26018370949E+02  0.10030112607E+02  0.50528860339E+02  0.30000001487E+02 0.  0.
         12    1    1    2    0    0 -0.29590654812E+02 -0.26018370949E+02 -0.10030112607E+02  0.40659139661E+02  0.00000000000E+00 0. -1.
         11    1    3    3    0    0  0.87550895559E+01  0.61085634723E+01 -0.14079099770E+01  0.10767931630E+02  0.51100000000E-03 0.  1.
        -11    1    3    3    0    0  0.21376697106E+02  0.97006956496E+01 -0.12000683985E+01  0.23505464039E+02  0.51100000000E-03 0. -1.
         12    1    3    3    0    0 -0.54113184969E+00  0.10209111827E+02  0.12638090983E+02  0.16255464671E+02  0.00000000000E+00 0. -1.
</event>
<event>
 7    1  0.2838209E-011  0.5052886E+02  0.7816164E-02  0.1300439E+00
        -11   -1    0    0    0    0  0.00000000000E+00  0.00000000000E+00  0.45593999997E+02  0.45594000000E+02  0.51100000000E-03 0.  1.
         11   -1    0    0    0    0 -0.00000000000E+00 -0.00000000000E+00 -0.45593999997E+02  0.45594000000E+02  0.51100000000E-03 0. -1.
    9900012    2    1    2    0    0 -0.22649783687E+01  0.15042024368E+02  0.37706405844E+02  0.50528859997E+02  0.30000000447E+02 0.  0.
         12    1    1    2    0    0  0.22649783687E+01 -0.15042024368E+02 -0.37706405844E+02  0.40659140003E+02  0.00000000000E+00 0. -1.
         11    1    3    3    0    0 -0.91583854706E+01  0.94619590665E+01  0.22348337113E+02  0.25939407584E+02  0.51100000000E-03 0. -1.
        -11    1    3    3    0    0  0.52415642761E+01 -0.97259736682E+00  0.16846446984E+02  0.17669825068E+02  0.51100000000E-03 0.  1.
         12    1    3    3    0    0  0.16518428258E+01  0.65526626686E+01 -0.14883782531E+01  0.69196273450E+01  0.00000000000E+00 0. -1.
</event>
<event>
 7    1  0.2838209E-011  0.5052886E+02  0.7816164E-02  0.1300439E+00
        -11   -1    0    0    0    0  0.00000000000E+00  0.00000000000E+00  0.45593999997E+02  0.45594000000E+02  0.51100000000E-03 0. -1.
         11   -1    0    0    0    0 -0.00000000000E+00 -0.00000000000E+00 -0.45593999997E+02  0.45594000000E+02  0.51100000000E-03 0.  1.
    9900012    2    1    2    0    0 -0.39960289257E+02  0.68729141302E+01 -0.30172974683E+01  0.50528858959E+02  0.29999997292E+02 0.  0.
         12    1    1    2    0    0  0.39960289257E+02 -0.68729141302E+01  0.30172974683E+01  0.40659141041E+02  0.00000000000E+00 0. -1.
         11    1    3    3    0    0  0.18688296784E+01  0.45345147929E+01  0.75283692183E+00  0.49619665926E+01  0.51100000000E-03 0. -1.
        -11    1    3    3    0    0 -0.59970927707E+01  0.29836463099E+01 -0.68702927907E+01  0.95952170530E+01  0.51100000000E-03 0.  1.
         12    1    3    3    0    0 -0.35832026165E+02 -0.64524697270E+00  0.31001584006E+01  0.35971675313E+02  0.00000000000E+00 0. -1.
</event>
<event>
 7    1  0.2838209E-011  0.5052886E+02  0.7816164E-02  0.1300439E+00
        -11   -1    0    0    0    0  0.00000000000E+00  0.00000000000E+00  0.45593999997E+02  0.45594000000E+02  0.51100000000E-03 0.  1.
         11   -1    0    0    0    0 -0.00000000000E+00 -0.00000000000E+00 -0.45593999997E+02  0.45594000000E+02  0.51100000000E-03 0. -1.
    9900012    2    1    2    0    0 -0.83543859118E+00 -0.33624861816E+02  0.22843733209E+02  0.50528862814E+02  0.30000009010E+02 0.  0.
         12    1    1    2    0    0  0.83543859118E+00  0.33624861816E+02 -0.22843733209E+02  0.40659137186E+02  0.00000000000E+00 0. -1.
         11    1    3    3    0    0 -0.50187503187E+01 -0.17213978749E+02  0.25651859310E+01  0.18113229923E+02  0.51100000000E-03 0.  1.
        -11    1    3    3    0    0  0.15975626243E+01 -0.16598600166E+02  0.57215479086E+01  0.17629573011E+02  0.51100000000E-03 0. -1.
        -12    1    3    3    0    0  0.25857491033E+01  0.18771709928E+00  0.14556999369E+02  0.14786059880E+02  0.00000000000E+00 0.  1.
</event>
<event>
 7    1  0.2838209E-011  0.5052887E+02  0.7816164E-02  0.1300439E+00
        -11   -1    0    0    0    0  0.00000000000E+00  0.00000000000E+00  0.45593999997E+02  0.45594000000E+02  0.51100000000E-03 0.  1.
         11   -1    0    0    0    0 -0.00000000000E+00 -0.00000000000E+00 -0.45593999997E+02  0.45594000000E+02  0.51100000000E-03 0. -1.
    9900012    2    1    2    0    0  0.88477127844E+01 -0.29085363105E+01  0.39578066467E+02  0.50528868796E+02  0.30000027193E+02 0.  0.
         12    1    1    2    0    0 -0.88477127844E+01  0.29085363105E+01 -0.39578066467E+02  0.40659131204E+02  0.00000000000E+00 0. -1.
         11    1    3    3    0    0 -0.64754924580E+01  0.33997138448E+01  0.12713976977E+02  0.14667490161E+02  0.51100000000E-03 0. -1.
        -11    1    3    3    0    0  0.62702219319E+01 -0.53070653795E+01  0.25325129701E+02  0.26624102250E+02  0.51100000000E-03 0.  1.
         12    1    3    3    0    0  0.90529833106E+01 -0.10011847757E+01  0.15389597896E+01  0.92372763849E+01  0.00000000000E+00 0. -1.
</event>
<event>
 7    1  0.2838209E-011  0.5052886E+02  0.7816164E-02  0.1300439E+00
        -11   -1    0    0    0    0  0.00000000000E+00  0.00000000000E+00  0.45593999997E+02  0.45594000000E+02  0.51100000000E-03 0. -1.
         11   -1    0    0    0    0 -0.00000000000E+00 -0.00000000000E+00 -0.45593999997E+02  0.45594000000E+02  0.51100000000E-03 0.  1.
    9900012    2    1    2    0    0  0.32479335613E+02  0.55061228609E+01 -0.23831507268E+02  0.50528863641E+02  0.30000011523E+02 0.  0.
         12    1    1    2    0    0 -0.32479335613E+02 -0.55061228609E+01  0.23831507268E+02  0.40659136359E+02  0.00000000000E+00 0. -1.
         11    1    3    3    0    0  0.98183840310E+01  0.10778995195E+02 -0.52260685407E+01  0.15488679578E+02  0.51100000000E-03 0. -1.
        -11    1    3    3    0    0  0.10534529981E+02  0.67452895617E+01 -0.63849924510E+01  0.14044336298E+02  0.51100000000E-03 0.  1.
        -12    1    3    3    0    0  0.12126421601E+02 -0.12018161896E+02 -0.12220446276E+02  0.20995847765E+02  0.00000000000E+00 0.  1.
</event>
<event>
 7    1  0.2838209E-011  0.5052882E+02  0.7816164E-02  0.1300439E+00
        -11   -1    0    0    0    0  0.00000000000E+00  0.00000000000E+00  0.45593999997E+02  0.45594000000E+02  0.51100000000E-03 0. -1.
         11   -1    0    0    0    0 -0.00000000000E+00 -0.00000000000E+00 -0.45593999997E+02  0.45594000000E+02  0.51100000000E-03 0.  1.
    9900012    2    1    2    0    0  0.39500239879E+02 -0.26374658456E+01 -0.92705764593E+01  0.50528821892E+02  0.29999884622E+02 0.  0.
         12    1    1    2    0    0 -0.39500239879E+02  0.26374658456E+01  0.92705764593E+01  0.40659178108E+02  0.00000000000E+00 0. -1.
         11    1    3    3    0    0  0.13335966043E+02 -0.10460732097E+02 -0.69079356114E+01  0.18302854449E+02  0.51100000000E-03 0. -1.
        -11    1    3    3    0    0  0.49193357213E+01 -0.17843453714E+01 -0.67084405842E+01  0.85080507565E+01  0.51100000000E-03 0.  1.
         12    1    3    3    0    0  0.21244938114E+02  0.96076116230E+01  0.43457997363E+01  0.23717916686E+02  0.00000000000E+00 0. -1.
</event>
<event>
 7    1  0.2838209E-011  0.5052889E+02  0.7816164E-02  0.1300439E+00
        -11   -1    0    0    0    0  0.00000000000E+00  0.00000000000E+00  0.45593999997E+02  0.45594000000E+02  0.51100000000E-03 0. -1.
         11   -1    0    0    0    0 -0.00000000000E+00 -0.00000000000E+00 -0.45593999997E+02  0.45594000000E+02  0.51100000000E-03 0.  1.
    9900012    2    1    2    0    0  0.38141776836E+02 -0.14050508529E+02 -0.97531245170E+00  0.50528890756E+02  0.30000093941E+02 0.  0.
         12    1    1    2    0    0 -0.38141776836E+02  0.14050508529E+02  0.97531245170E+00  0.40659109244E+02  0.00000000000E+00 0. -1.
         11    1    3    3    0    0  0.10693048484E+02 -0.40942413396E+01  0.36023109194E+01  0.12003363789E+02  0.51100000000E-03 0. -1.
        -11    1    3    3    0    0 -0.31549504248E+01 -0.59108141176E-01  0.41356128564E+01  0.52019707721E+01  0.51100000000E-03 0.  1.
        -12    1    3    3    0    0  0.30603678777E+02 -0.98971590478E+01 -0.87132362275E+01  0.33323556195E+02  0.00000000000E+00 0.  1.
</event>
<event>
 7    1  0.2838209E-011  0.5052886E+02  0.7816164E-02  0.1300439E+00
        -11   -1    0    0    0    0  0.00000000000E+00  0.00000000000E+00  0.45593999997E+02  0.45594000000E+02  0.51100000000E-03 0.  1.
         11   -1    0    0    0    0 -0.00000000000E+00 -0.00000000000E+00 -0.45593999997E+02  0.45594000000E+02  0.51100000000E-03 0. -1.
    9900012    2    1    2    0    0 -0.37740732384E+01  0.16186108313E+02  0.37107038155E+02  0.50528855743E+02  0.29999987516E+02 0.  0.
         12    1    1    2    0    0  0.37740732384E+01 -0.16186108313E+02 -0.37107038155E+02  0.40659144257E+02  0.00000000000E+00 0. -1.
         11    1    3    3    0    0  0.60095354082E+01  0.77073337265E+01  0.73513450436E+01  0.12229463733E+02  0.51100000000E-03 0. -1.
        -11    1    3    3    0    0  0.40210723469E+01  0.94543844058E+01  0.12708921935E+02  0.16342310250E+02  0.51100000000E-03 0.  1.
        -12    1    3    3    0    0 -0.13804680993E+02 -0.97560981969E+00  0.17046771176E+02  0.21957081759E+02  0.00000000000E+00 0.  1.
</event>
<event>
 7    1  0.2838209E-011  0.5052886E+02  0.7816164E-02  0.1300439E+00
        -11   -1    0    0    0    0  0.00000000000E+00  0.00000000000E+00  0.45593999997E+02  0.45594000000E+02  0.51100000000E-03 0. -1.
         11   -1    0    0    0    0 -0.00000000000E+00 -0.00000000000E+00 -0.45593999997E+02  0.45594000000E+02  0.51100000000E-03 0.  1.
    9900012    2    1    2    0    0  0.34855241020E+02  0.18200062911E+02 -0.10345792877E+02  0.50528861460E+02  0.30000004893E+02 0.  0.
         12    1    1    2    0    0 -0.34855241020E+02 -0.18200062911E+02  0.10345792877E+02  0.40659138540E+02  0.00000000000E+00 0. -1.
         11    1    3    3    0    0  0.28900845376E+01 -0.42994733908E+01  0.44841404959E+01  0.68516841959E+01  0.51100000000E-03 0. -1.
        -11    1    3    3    0    0  0.90401825078E+01  0.17108870358E+01 -0.75090974848E+01  0.11875966467E+02  0.51100000000E-03 0.  1.
        -12    1    3    3    0    0  0.22924973975E+02  0.20788649266E+02 -0.73208358885E+01  0.31801210797E+02  0.00000000000E+00 0.  1.
</event>
<event>
 7    1  0.2838209E-011  0.5052886E+02  0.7816164E-02  0.1300439E+00
        -11   -1    0    0    0    0  0.00000000000E+00  0.00000000000E+00  0.45593999997E+02  0.45594000000E+02  0.51100000000E-03 0.  1.
         11   -1    0    0    0    0 -0.00000000000E+00 -0.00000000000E+00 -0.45593999997E+02  0.45594000000E+02  0.51100000000E-03 0. -1.
    9900012    2    1    2    0    0 -0.26923496738E+02 -0.28001498767E+02  0.12008611843E+02  0.50528863657E+02  0.30000011571E+02 0.  0.
         12    1    1    2    0    0  0.26923496738E+02  0.28001498767E+02 -0.12008611843E+02  0.40659136343E+02  0.00000000000E+00 0. -1.
         11    1    3    3    0    0 -0.65349423621E+01 -0.90158518143E+01 -0.19250640554E+01  0.11300306522E+02  0.51100000000E-03 0. -1.
        -11    1    3    3    0    0 -0.10305868875E+02 -0.23446545618E+02  0.89651095019E+01  0.27135302161E+02  0.51100000000E-03 0.  1.
        -12    1    3    3    0    0 -0.10082685501E+02  0.44608986662E+01  0.49685663968E+01  0.12093254974E+02  0.00000000000E+00 0.  1.
</event>
<event>
 7    1  0.2838209E-011  0.5052888E+02  0.7816164E-02  0.1300439E+00
        -11   -1    0    0    0    0  0.00000000000E+00  0.00000000000E+00  0.45593999997E+02  0.45594000000E+02  0.51100000000E-03 0.  1.
         11   -1    0    0    0    0 -0.00000000000E+00 -0.00000000000E+00 -0.45593999997E+02  0.45594000000E+02  0.51100000000E-03 0. -1.
    9900012    2    1    2    0    0  0.25758954970E+02  0.29976717579E+02 -0.95413297598E+01  0.50528876404E+02  0.30000050318E+02 0.  0.
         12    1    1    2    0    0 -0.25758954970E+02 -0.29976717579E+02  0.95413297598E+01  0.40659123596E+02  0.00000000000E+00 0. -1.
         11    1    3    3    0    0  0.18607570076E+02  0.92157422275E+01 -0.33490489904E+01  0.21033014485E+02  0.51100000000E-03 0. -1.
        -11    1    3    3    0    0  0.52817313469E+01 -0.19779505117E+01 -0.32008277523E+01  0.64849265847E+01  0.51100000000E-03 0.  1.
        -12    1    3    3    0    0  0.18696535475E+01  0.22738925863E+02 -0.29914530171E+01  0.23010935334E+02  0.00000000000E+00 0.  1.
</event>
<event>
 7    1  0.2838209E-011  0.5052886E+02  0.7816164E-02  0.1300439E+00
        -11   -1    0    0    0    0  0.00000000000E+00  0.00000000000E+00  0.45593999997E+02  0.45594000000E+02  0.51100000000E-03 0.  1.
         11   -1    0    0    0    0 -0.00000000000E+00 -0.00000000000E+00 -0.45593999997E+02  0.45594000000E+02  0.51100000000E-03 0. -1.
    9900012    2    1    2    0    0  0.21027949246E+02  0.15758186656E+02  0.31026936312E+02  0.50528857448E+02  0.29999992698E+02 0.  0.
         12    1    1    2    0    0 -0.21027949246E+02 -0.15758186656E+02 -0.31026936312E+02  0.40659142552E+02  0.00000000000E+00 0. -1.
         11    1    3    3    0    0 -0.15729174444E+01  0.35511225637E+01  0.68431202271E+01  0.78684709730E+01  0.51100000000E-03 0. -1.
        -11    1    3    3    0    0  0.16039084393E+02 -0.29870674447E+01  0.19570433054E+02  0.25478945235E+02  0.51100000000E-03 0.  1.
         12    1    3    3    0    0  0.65617822970E+01  0.15194131537E+02  0.46133830310E+01  0.17181441240E+02  0.00000000000E+00 0. -1.
</event>
<event>
 7    1  0.2838209E-011  0.5052886E+02  0.7816164E-02  0.1300439E+00
        -11   -1    0    0    0    0  0.00000000000E+00  0.00000000000E+00  0.45593999997E+02  0.45594000000E+02  0.51100000000E-03 0.  1.
         11   -1    0    0    0    0 -0.00000000000E+00 -0.00000000000E+00 -0.45593999997E+02  0.45594000000E+02  0.51100000000E-03 0. -1.
    9900012    2    1    2    0    0 -0.19837585784E+02  0.12459156727E+02 -0.33232595043E+02  0.50528858723E+02  0.29999996575E+02 0.  0.
         12    1    1    2    0    0  0.19837585784E+02 -0.12459156727E+02  0.33232595043E+02  0.40659141277E+02  0.00000000000E+00 0. -1.
         11    1    3    3    0    0 -0.20767758883E+01  0.45698836592E+01  0.17218468678E+01  0.53067496310E+01  0.51100000000E-03 0. -1.
        -11    1    3    3    0    0 -0.24911022760E+01 -0.32120822787E+01  0.13660295171E+01  0.42882513939E+01  0.51100000000E-03 0.  1.
        -12    1    3    3    0    0 -0.15269707620E+02  0.11101355346E+02 -0.36320471428E+02  0.40933857698E+02  0.00000000000E+00 0.  1.
</event>
<event>
 7    1  0.2838209E-011  0.5052886E+02  0.7816164E-02  0.1300439E+00
        -11   -1    0    0    0    0  0.00000000000E+00  0.00000000000E+00  0.45593999997E+02  0.45594000000E+02  0.51100000000E-03 0.  1.
         11   -1    0    0    0    0 -0.00000000000E+00 -0.00000000000E+00 -0.45593999997E+02  0.45594000000E+02  0.51100000000E-03 0. -1.
    9900012    2    1    2    0    0  0.37184878201E+02  0.10655912129E+01 -0.16410821140E+02  0.50528859552E+02  0.29999999095E+02 0.  0.
         12    1    1    2    0    0 -0.37184878201E+02 -0.10655912129E+01  0.16410821140E+02  0.40659140448E+02  0.00000000000E+00 0. -1.
         11    1    3    3    0    0  0.17021796420E+02 -0.11276697113E+01 -0.10278090128E+02  0.19916132388E+02  0.51100000000E-03 0. -1.
        -11    1    3    3    0    0  0.37718034171E+01  0.10589566784E+02 -0.45536705268E+01  0.12128534174E+02  0.51100000000E-03 0.  1.
         12    1    3    3    0    0  0.16391278363E+02 -0.83963058598E+01 -0.15790604858E+01  0.18484192990E+02  0.00000000000E+00 0. -1.
</event>
<event>
 7    1  0.2838209E-011  0.5052886E+02  0.7816164E-02  0.1300439E+00
        -11   -1    0    0    0    0  0.00000000000E+00  0.00000000000E+00  0.45593999997E+02  0.45594000000E+02  0.51100000000E-03 0. -1.
         11   -1    0    0    0    0 -0.00000000000E+00 -0.00000000000E+00 -0.45593999997E+02  0.45594000000E+02  0.51100000000E-03 0.  1.
    9900012    2    1    2    0    0  0.38837462456E+02  0.45518052631E+01  0.11139929416E+02  0.50528862668E+02  0.30000008567E+02 0.  0.
         12    1    1    2    0    0 -0.38837462456E+02 -0.45518052631E+01 -0.11139929416E+02  0.40659137332E+02  0.00000000000E+00 0. -1.
         11    1    3    3    0    0  0.16261156701E+00 -0.43641449963E+00  0.68611043805E+01  0.68768927372E+01  0.51100000000E-03 0. -1.
        -11    1    3    3    0    0  0.12186071124E+02  0.39560412941E+01  0.10333995964E+02  0.16460317889E+02  0.51100000000E-03 0.  1.
        -12    1    3    3    0    0  0.26488779764E+02  0.10321784687E+01 -0.60551709284E+01  0.27191652042E+02  0.00000000000E+00 0.  1.
</event>
<event>
 7    1  0.2838209E-011  0.5052884E+02  0.7816164E-02  0.1300439E+00
        -11   -1    0    0    0    0  0.00000000000E+00  0.00000000000E+00  0.45593999997E+02  0.45594000000E+02  0.51100000000E-03 0.  1.
         11   -1    0    0    0    0 -0.00000000000E+00 -0.00000000000E+00 -0.45593999997E+02  0.45594000000E+02  0.51100000000E-03 0. -1.
    9900012    2    1    2    0    0 -0.10891504847E+02 -0.35772487380E+02  0.15964703406E+02  0.50528837613E+02  0.29999932409E+02 0.  0.
         12    1    1    2    0    0  0.10891504847E+02  0.35772487380E+02 -0.15964703406E+02  0.40659162387E+02  0.00000000000E+00 0. -1.
         11    1    3    3    0    0  0.14034901581E+01 -0.27300056102E+01  0.63642570102E+01  0.70658674491E+01  0.51100000000E-03 0. -1.
        -11    1    3    3    0    0  0.55128466978E+01 -0.82631016516E+00  0.10462339805E+01  0.56717610145E+01  0.51100000000E-03 0.  1.
        -12    1    3    3    0    0 -0.17807841703E+02 -0.32216171604E+02  0.85542124150E+01  0.37791209150E+02  0.00000000000E+00 0.  1.
</event>
<event>
 7    1  0.2838209E-011  0.5052887E+02  0.7816164E-02  0.1300439E+00
        -11   -1    0    0    0    0  0.00000000000E+00  0.00000000000E+00  0.45593999997E+02  0.45594000000E+02  0.51100000000E-03 0.  1.
         11   -1    0    0    0    0 -0.00000000000E+00 -0.00000000000E+00 -0.45593999997E+02  0.45594000000E+02  0.51100000000E-03 0. -1.
    9900012    2    1    2    0    0  0.27661403294E+02 -0.53855672688E+01  0.29308831958E+02  0.50528865753E+02  0.30000017942E+02 0.  0.
         12    1    1    2    0    0 -0.27661403294E+02  0.53855672688E+01 -0.29308831958E+02  0.40659134247E+02  0.00000000000E+00 0. -1.
         11    1    3    3    0    0  0.20496423331E+01  0.96844040700E+00  0.54186652505E+01  0.58737418971E+01  0.51100000000E-03 0. -1.
        -11    1    3    3    0    0  0.15995180100E+02 -0.11846871057E+02  0.26629685738E+02  0.33246568290E+02  0.51100000000E-03 0.  1.
         12    1    3    3    0    0  0.96165808612E+01  0.54928633810E+01 -0.27395190310E+01  0.11408555566E+02  0.00000000000E+00 0. -1.
</event>
<event>
 7    1  0.2838209E-011  0.5052885E+02  0.7816164E-02  0.1300439E+00
        -11   -1    0    0    0    0  0.00000000000E+00  0.00000000000E+00  0.45593999997E+02  0.45594000000E+02  0.51100000000E-03 0.  1.
         11   -1    0    0    0    0 -0.00000000000E+00 -0.00000000000E+00 -0.45593999997E+02  0.45594000000E+02  0.51100000000E-03 0. -1.
    9900012    2    1    2    0    0  0.14439137028E+02 -0.58730396477E+01  0.37552434344E+02  0.50528848533E+02  0.29999965602E+02 0.  0.
         12    1    1    2    0    0 -0.14439137028E+02  0.58730396477E+01 -0.37552434344E+02  0.40659151467E+02  0.00000000000E+00 0. -1.
         11    1    3    3    0    0  0.11574023517E+02 -0.13358346686E+01  0.95030413157E+01  0.15034968212E+02  0.51100000000E-03 0. -1.
        -11    1    3    3    0    0  0.68765782369E+01  0.40149033107E+01  0.26458254799E+01  0.83908980195E+01  0.51100000000E-03 0.  1.
        -12    1    3    3    0    0 -0.40114647262E+01 -0.85521082897E+01  0.25403567549E+02  0.27102982302E+02  0.00000000000E+00 0.  1.
</event>
<event>
 7    1  0.2838209E-011  0.5052886E+02  0.7816164E-02  0.1300439E+00
        -11   -1    0    0    0    0  0.00000000000E+00  0.00000000000E+00  0.45593999997E+02  0.45594000000E+02  0.51100000000E-03 0.  1.
         11   -1    0    0    0    0 -0.00000000000E+00 -0.00000000000E+00 -0.45593999997E+02  0.45594000000E+02  0.51100000000E-03 0. -1.
    9900012    2    1    2    0    0  0.10219066413E+02 -0.38469570709E+02  0.82962947234E+01  0.50528859637E+02  0.29999999353E+02 0.  0.
         12    1    1    2    0    0 -0.10219066413E+02  0.38469570709E+02 -0.82962947234E+01  0.40659140363E+02  0.00000000000E+00 0. -1.
         11    1    3    3    0    0 -0.37284046394E-01 -0.80902675773E+00 -0.22437756463E+01  0.23854651133E+01  0.51100000000E-03 0. -1.
        -11    1    3    3    0    0 -0.72952797068E+00  0.30579071143E+01  0.45723911867E+01  0.55488528909E+01  0.51100000000E-03 0.  1.
         12    1    3    3    0    0  0.10985878431E+02 -0.40718451066E+02  0.59676791829E+01  0.42594541633E+02  0.00000000000E+00 0. -1.
</event>
<event>
 7    1  0.2838209E-011  0.5052887E+02  0.7816164E-02  0.1300439E+00
        -11   -1    0    0    0    0  0.00000000000E+00  0.00000000000E+00  0.45593999997E+02  0.45594000000E+02  0.51100000000E-03 0.  1.
         11   -1    0    0    0    0 -0.00000000000E+00 -0.00000000000E+00 -0.45593999997E+02  0.45594000000E+02  0.51100000000E-03 0. -1.
    9900012    2    1    2    0    0 -0.35146714885E+02  0.15033261502E+02  0.13851874401E+02  0.50528868885E+02  0.30000027462E+02 0.  0.
         12    1    1    2    0    0  0.35146714885E+02 -0.15033261502E+02 -0.13851874401E+02  0.40659131115E+02  0.00000000000E+00 0. -1.
         11    1    3    3    0    0 -0.12735609885E+02  0.16126414980E-01  0.14768627706E+02  0.19501496962E+02  0.51100000000E-03 0. -1.
        -11    1    3    3    0    0 -0.69298252682E+01 -0.23313659361E+00  0.49487180046E+01  0.85186055825E+01  0.51100000000E-03 0.  1.
         12    1    3    3    0    0 -0.15481279732E+02  0.15250271681E+02 -0.58654713087E+01  0.22508766340E+02  0.00000000000E+00 0. -1.
</event>
<event>
 7    1  0.2838209E-011  0.5052886E+02  0.7816164E-02  0.1300439E+00
        -11   -1    0    0    0    0  0.00000000000E+00  0.00000000000E+00  0.45593999997E+02  0.45594000000E+02  0.51100000000E-03 0. -1.
         11   -1    0    0    0    0 -0.00000000000E+00 -0.00000000000E+00 -0.45593999997E+02  0.45594000000E+02  0.51100000000E-03 0.  1.
    9900012    2    1    2    0    0  0.19058896484E+02 -0.25262149242E+02 -0.25529357286E+02  0.50528858310E+02  0.29999995320E+02 0.  0.
         12    1    1    2    0    0 -0.19058896484E+02  0.25262149242E+02  0.25529357286E+02  0.40659141690E+02  0.00000000000E+00 0. -1.
         11    1    3    3    0    0  0.18230396138E+02 -0.24932650454E+01 -0.83412975382E+01  0.20202498826E+02  0.51100000000E-03 0. -1.
        -11    1    3    3    0    0  0.39761185508E+01 -0.47275145147E+01 -0.18794380534E+01  0.64568722981E+01  0.51100000000E-03 0.  1.
         12    1    3    3    0    0 -0.31476182044E+01 -0.18041369682E+02 -0.15308621694E+02  0.23869487186E+02  0.00000000000E+00 0. -1.
</event>
<event>
 7    1  0.2838209E-011  0.5052886E+02  0.7816164E-02  0.1300439E+00
        -11   -1    0    0    0    0  0.00000000000E+00  0.00000000000E+00  0.45593999997E+02  0.45594000000E+02  0.51100000000E-03 0. -1.
         11   -1    0    0    0    0 -0.00000000000E+00 -0.00000000000E+00 -0.45593999997E+02  0.45594000000E+02  0.51100000000E-03 0.  1.
    9900012    2    1    2    0    0  0.99383640415E+01  0.26151735527E+02 -0.29503921595E+02  0.50528859080E+02  0.29999997659E+02 0.  0.
         12    1    1    2    0    0 -0.99383640415E+01 -0.26151735527E+02  0.29503921595E+02  0.40659140920E+02  0.00000000000E+00 0. -1.
         11    1    3    3    0    0  0.35716656335E+01  0.17213496027E+02 -0.73191098677E+01  0.19042862453E+02  0.51100000000E-03 0. -1.
        -11    1    3    3    0    0 -0.18782527307E+01  0.12984967583E+02 -0.12136976149E+02  0.17872979795E+02  0.51100000000E-03 0.  1.
        -12    1    3    3    0    0  0.82449511387E+01 -0.40467280835E+01 -0.10047835578E+02  0.13613016832E+02  0.00000000000E+00 0.  1.
</event>
<event>
 7    1  0.2838209E-011  0.5052881E+02  0.7816164E-02  0.1300439E+00
        -11   -1    0    0    0    0  0.00000000000E+00  0.00000000000E+00  0.45593999997E+02  0.45594000000E+02  0.51100000000E-03 0.  1.
         11   -1    0    0    0    0 -0.00000000000E+00 -0.00000000000E+00 -0.45593999997E+02  0.45594000000E+02  0.51100000000E-03 0. -1.
    9900012    2    1    2    0    0 -0.85624025717E+01 -0.12112884809E+02  0.37856744448E+02  0.50528808955E+02  0.29999845299E+02 0.  0.
         12    1    1    2    0    0  0.85624025717E+01  0.12112884809E+02 -0.37856744448E+02  0.40659191045E+02  0.00000000000E+00 0. -1.
         11    1    3    3    0    0 -0.69014553159E+01 -0.73637720552E+01  0.63778163286E+01  0.11938666833E+02  0.51100000000E-03 0. -1.
        -11    1    3    3    0    0 -0.87429116938E+01 -0.30946645197E+01  0.38873542247E+01  0.10056190954E+02  0.51100000000E-03 0.  1.
        -12    1    3    3    0    0  0.70819644380E+01 -0.16544482342E+01  0.27591573895E+02  0.28533951168E+02  0.00000000000E+00 0.  1.
</event>
<event>
 7    1  0.2838209E-011  0.5052885E+02  0.7816164E-02  0.1300439E+00
        -11   -1    0    0    0    0  0.00000000000E+00  0.00000000000E+00  0.45593999997E+02  0.45594000000E+02  0.51100000000E-03 0.  1.
         11   -1    0    0    0    0 -0.00000000000E+00 -0.00000000000E+00 -0.45593999997E+02  0.45594000000E+02  0.51100000000E-03 0. -1.
    9900012    2    1    2    0    0  0.53933450887E+00 -0.24672173449E+02  0.32313450274E+02  0.50528854743E+02  0.29999984477E+02 0.  0.
         12    1    1    2    0    0 -0.53933450887E+00  0.24672173449E+02 -0.32313450274E+02  0.40659145257E+02  0.00000000000E+00 0. -1.
         11    1    3    3    0    0  0.53114852489E+01 -0.54183259418E+01  0.29211706887E+01  0.81303979002E+01  0.51100000000E-03 0. -1.
        -11    1    3    3    0    0  0.83909714116E+01 -0.13370822506E+02  0.12135428081E+02  0.19911200634E+02  0.51100000000E-03 0.  1.
        -12    1    3    3    0    0 -0.13163122152E+02 -0.58830250007E+01  0.17256851504E+02  0.22487256208E+02  0.00000000000E+00 0.  1.
</event>
<event>
 7    1  0.2838209E-011  0.5052887E+02  0.7816164E-02  0.1300439E+00
        -11   -1    0    0    0    0  0.00000000000E+00  0.00000000000E+00  0.45593999997E+02  0.45594000000E+02  0.51100000000E-03 0.  1.
         11   -1    0    0    0    0 -0.00000000000E+00 -0.00000000000E+00 -0.45593999997E+02  0.45594000000E+02  0.51100000000E-03 0. -1.
    9900012    2    1    2    0    0 -0.18406850505E+02  0.20115103011E+02  0.30161817507E+02  0.50528871259E+02  0.30000034679E+02 0.  0.
         12    1    1    2    0    0  0.18406850505E+02 -0.20115103011E+02 -0.30161817507E+02  0.40659128741E+02  0.00000000000E+00 0. -1.
         11    1    3    3    0    0  0.27822606883E+01  0.36168593733E+01  0.14173569084E+02  0.14890020386E+02  0.51100000000E-03 0. -1.
        -11    1    3    3    0    0 -0.79489494942E+00 -0.32367586380E+01  0.70845605192E+00  0.34073999912E+01  0.51100000000E-03 0.  1.
         12    1    3    3    0    0 -0.20394216244E+02  0.19735002275E+02  0.15279792371E+02  0.32231450881E+02  0.00000000000E+00 0. -1.
</event>
<event>
 7    1  0.2838209E-011  0.5052887E+02  0.7816164E-02  0.1300439E+00
        -11   -1    0    0    0    0  0.00000000000E+00  0.00000000000E+00  0.45593999997E+02  0.45594000000E+02  0.51100000000E-03 0.  1.
         11   -1    0    0    0    0 -0.00000000000E+00 -0.00000000000E+00 -0.45593999997E+02  0.45594000000E+02  0.51100000000E-03 0. -1.
    9900012    2    1    2    0    0 -0.33386230364E+02  0.74864296151E+01  0.21965380734E+02  0.50528868712E+02  0.30000026936E+02 0.  0.
         12    1    1    2    0    0  0.33386230364E+02 -0.74864296151E+01 -0.21965380734E+02  0.40659131288E+02  0.00000000000E+00 0. -1.
         11    1    3    3    0    0 -0.13710103828E+02 -0.22573690159E+01  0.12278600503E+02  0.18542564343E+02  0.51100000000E-03 0. -1.
        -11    1    3    3    0    0 -0.11602163390E+02 -0.51922497692E+01  0.77750488651E+01  0.14900370402E+02  0.51100000000E-03 0.  1.
         12    1    3    3    0    0 -0.80739631465E+01  0.14936048400E+02  0.19117313664E+01  0.17085933967E+02  0.00000000000E+00 0. -1.
</event>
<event>
 7    1  0.2838209E-011  0.5052888E+02  0.7816164E-02  0.1300439E+00
        -11   -1    0    0    0    0  0.00000000000E+00  0.00000000000E+00  0.45593999997E+02  0.45594000000E+02  0.51100000000E-03 0.  1.
         11   -1    0    0    0    0 -0.00000000000E+00 -0.00000000000E+00 -0.45593999997E+02  0.45594000000E+02  0.51100000000E-03 0. -1.
    9900012    2    1    2    0    0  0.37205513338E+02 -0.16355387098E+02 -0.11894897271E+01  0.50528882994E+02  0.30000070348E+02 0.  0.
         12    1    1    2    0    0 -0.37205513338E+02  0.16355387098E+02  0.11894897271E+01  0.40659117006E+02  0.00000000000E+00 0. -1.
         11    1    3    3    0    0  0.19868954260E+02 -0.60557094686E+01  0.33152655070E+01  0.21034208952E+02  0.51100000000E-03 0. -1.
        -11    1    3    3    0    0  0.17638582187E+02 -0.27566142354E+01  0.38199598597E+01  0.18256795919E+02  0.51100000000E-03 0.  1.
         12    1    3    3    0    0 -0.30202310940E+00 -0.75430633943E+01 -0.83247150939E+01  0.11237878124E+02  0.00000000000E+00 0. -1.
</event>
<event>
 7    1  0.2838209E-011  0.5052884E+02  0.7816164E-02  0.1300439E+00
        -11   -1    0    0    0    0  0.00000000000E+00  0.00000000000E+00  0.45593999997E+02  0.45594000000E+02  0.51100000000E-03 0.  1.
         11   -1    0    0    0    0 -0.00000000000E+00 -0.00000000000E+00 -0.45593999997E+02  0.45594000000E+02  0.51100000000E-03 0. -1.
    9900012    2    1    2    0    0  0.23518080875E+02  0.89173874700E+01  0.31946012323E+02  0.50528835834E+02  0.29999927001E+02 0.  0.
         12    1    1    2    0    0 -0.23518080875E+02 -0.89173874700E+01 -0.31946012323E+02  0.40659164166E+02  0.00000000000E+00 0. -1.
         11    1    3    3    0    0  0.11619568487E+02  0.55956086473E+01  0.61689124885E+01  0.14296177444E+02  0.51100000000E-03 0. -1.
        -11    1    3    3    0    0  0.58936869801E+01  0.12506741720E+02  0.10212916935E+02  0.17188886155E+02  0.51100000000E-03 0.  1.
         12    1    3    3    0    0  0.60048254076E+01 -0.91849628970E+01  0.15564182900E+02  0.19043772235E+02  0.00000000000E+00 0. -1.
</event>
<event>
 7    1  0.2838209E-011  0.5052887E+02  0.7816164E-02  0.1300439E+00
        -11   -1    0    0    0    0  0.00000000000E+00  0.00000000000E+00  0.45593999997E+02  0.45594000000E+02  0.51100000000E-03 0.  1.
         11   -1    0    0    0    0 -0.00000000000E+00 -0.00000000000E+00 -0.45593999997E+02  0.45594000000E+02  0.51100000000E-03 0. -1.
    9900012    2    1    2    0    0 -0.31940410503E+01 -0.30354214041E+02  0.26862322322E+02  0.50528873487E+02  0.30000041451E+02 0.  0.
         12    1    1    2    0    0  0.31940410503E+01  0.30354214041E+02 -0.26862322322E+02  0.40659126513E+02  0.00000000000E+00 0. -1.
         11    1    3    3    0    0 -0.18265555628E+01  0.62158688586E+00  0.33889377236E+01  0.38996890435E+01  0.51100000000E-03 0. -1.
        -11    1    3    3    0    0 -0.11415106019E+02 -0.51115875555E+01  0.82050294311E+01  0.14958458510E+02  0.51100000000E-03 0.  1.
        -12    1    3    3    0    0  0.10047620532E+02 -0.25864213371E+02  0.15268355168E+02  0.31670725934E+02  0.00000000000E+00 0.  1.
</event>
<event>
 7    1  0.2838209E-011  0.5052886E+02  0.7816164E-02  0.1300439E+00
        -11   -1    0    0    0    0  0.00000000000E+00  0.00000000000E+00  0.45593999997E+02  0.45594000000E+02  0.51100000000E-03 0.  1.
         11   -1    0    0    0    0 -0.00000000000E+00 -0.00000000000E+00 -0.45593999997E+02  0.45594000000E+02  0.51100000000E-03 0. -1.
    9900012    2    1    2    0    0 -0.74710859673E+01  0.44853645986E+01  0.39714358763E+02  0.50528856956E+02  0.29999991203E+02 0.  0.
         12    1    1    2    0    0  0.74710859673E+01 -0.44853645986E+01 -0.39714358763E+02  0.40659143044E+02  0.00000000000E+00 0. -1.
         11    1    3    3    0    0  0.79748074063E+01 -0.16210209728E+01  0.58330033284E+01  0.10012451760E+02  0.51100000000E-03 0. -1.
        -11    1    3    3    0    0 -0.59123229613E+01 -0.48774378522E+01  0.12249621453E+02  0.14449850823E+02  0.51100000000E-03 0.  1.
        -12    1    3    3    0    0 -0.95335704123E+01  0.10983823424E+02  0.21631733981E+02  0.26066554372E+02  0.00000000000E+00 0.  1.
</event>
<event>
 7    1  0.2838209E-011  0.5052885E+02  0.7816164E-02  0.1300439E+00
        -11   -1    0    0    0    0  0.00000000000E+00  0.00000000000E+00  0.45593999997E+02  0.45594000000E+02  0.51100000000E-03 0.  1.
         11   -1    0    0    0    0 -0.00000000000E+00 -0.00000000000E+00 -0.45593999997E+02  0.45594000000E+02  0.51100000000E-03 0. -1.
    9900012    2    1    2    0    0 -0.15639819443E+02 -0.28617762512E+02  0.24281396044E+02  0.50528850018E+02  0.29999970116E+02 0.  0.
         12    1    1    2    0    0  0.15639819443E+02  0.28617762512E+02 -0.24281396044E+02  0.40659149982E+02  0.00000000000E+00 0. -1.
         11    1    3    3    0    0 -0.50060695583E+01 -0.12361854713E+02  0.39128162890E+01  0.13899148029E+02  0.51100000000E-03 0. -1.
        -11    1    3    3    0    0 -0.89504849598E+01 -0.12037312576E+02  0.25618947982E+02  0.29687346986E+02  0.51100000000E-03 0.  1.
         12    1    3    3    0    0 -0.16832649248E+01 -0.42185952231E+01 -0.52503682277E+01  0.69423550032E+01  0.00000000000E+00 0. -1.
</event>
<event>
 7    1  0.2838209E-011  0.5052886E+02  0.7816164E-02  0.1300439E+00
        -11   -1    0    0    0    0  0.00000000000E+00  0.00000000000E+00  0.45593999997E+02  0.45594000000E+02  0.51100000000E-03 0. -1.
         11   -1    0    0    0    0 -0.00000000000E+00 -0.00000000000E+00 -0.45593999997E+02  0.45594000000E+02  0.51100000000E-03 0.  1.
    9900012    2    1    2    0    0 -0.13073746284E+02  0.15336231443E+02 -0.35313491393E+02  0.50528861898E+02  0.30000006226E+02 0.  0.
         12    1    1    2    0    0  0.13073746284E+02 -0.15336231443E+02  0.35313491393E+02  0.40659138102E+02  0.00000000000E+00 0. -1.
         11    1    3    3    0    0 -0.19161497821E+01  0.10059314589E+02 -0.15080614082E+01  0.10350637152E+02  0.51100000000E-03 0. -1.
        -11    1    3    3    0    0 -0.12084714426E+01  0.34264393659E+01  0.11313127243E+01  0.38053592073E+01  0.51100000000E-03 0.  1.
        -12    1    3    3    0    0 -0.99491250588E+01  0.18504774889E+01 -0.34936742710E+02  0.36372865539E+02  0.00000000000E+00 0.  1.
</event>
<event>
 7    1  0.2838209E-011  0.5052888E+02  0.7816164E-02  0.1300439E+00
        -11   -1    0    0    0    0  0.00000000000E+00  0.00000000000E+00  0.45593999997E+02  0.45594000000E+02  0.51100000000E-03 0. -1.
         11   -1    0    0    0    0 -0.00000000000E+00 -0.00000000000E+00 -0.45593999997E+02  0.45594000000E+02  0.51100000000E-03 0.  1.
    9900012    2    1    2    0    0 -0.19012478711E+02  0.24176903487E+02 -0.26592607927E+02  0.50528882875E+02  0.30000069988E+02 0.  0.
         12    1    1    2    0    0  0.19012478711E+02 -0.24176903487E+02  0.26592607927E+02  0.40659117125E+02  0.00000000000E+00 0. -1.
         11    1    3    3    0    0 -0.71746331693E+01  0.17005559972E+02 -0.11746640085E+02  0.21878025153E+02  0.51100000000E-03 0. -1.
        -11    1    3    3    0    0 -0.12399364777E+02  0.11052483117E+02 -0.17333156941E+02  0.24007081449E+02  0.51100000000E-03 0.  1.
        -12    1    3    3    0    0  0.56151923483E+00 -0.38811396018E+01  0.24871890982E+01  0.46437762726E+01  0.00000000000E+00 0.  1.
</event>
<event>
 7    1  0.2838209E-011  0.5052887E+02  0.7816164E-02  0.1300439E+00
        -11   -1    0    0    0    0  0.00000000000E+00  0.00000000000E+00  0.45593999997E+02  0.45594000000E+02  0.51100000000E-03 0.  1.
         11   -1    0    0    0    0 -0.00000000000E+00 -0.00000000000E+00 -0.45593999997E+02  0.45594000000E+02  0.51100000000E-03 0. -1.
    9900012    2    1    2    0    0 -0.19147675862E+02  0.14134437507E+01  0.35840395190E+02  0.50528865215E+02  0.30000016306E+02 0.  0.
         12    1    1    2    0    0  0.19147675862E+02 -0.14134437507E+01 -0.35840395190E+02  0.40659134785E+02  0.00000000000E+00 0. -1.
         11    1    3    3    0    0 -0.67398894424E-01  0.12144391586E+01  0.26059098334E+01  0.28757905699E+01  0.51100000000E-03 0. -1.
        -11    1    3    3    0    0 -0.20851146384E+02  0.63905892428E+01  0.34760042974E+02  0.41034991461E+02  0.51100000000E-03 0.  1.
         12    1    3    3    0    0  0.17708694159E+01 -0.61915846508E+01 -0.15255576183E+01  0.66180831834E+01  0.00000000000E+00 0. -1.
</event>
<event>
 7    1  0.2838209E-011  0.5052886E+02  0.7816164E-02  0.1300439E+00
        -11   -1    0    0    0    0  0.00000000000E+00  0.00000000000E+00  0.45593999997E+02  0.45594000000E+02  0.51100000000E-03 0.  1.
         11   -1    0    0    0    0 -0.00000000000E+00 -0.00000000000E+00 -0.45593999997E+02  0.45594000000E+02  0.51100000000E-03 0. -1.
    9900012    2    1    2    0    0 -0.53644329032E+00  0.40256231506E+02  0.56845345475E+01  0.50528857369E+02  0.29999992459E+02 0.  0.
         12    1    1    2    0    0  0.53644329032E+00 -0.40256231506E+02 -0.56845345475E+01  0.40659142631E+02  0.00000000000E+00 0. -1.
         11    1    3    3    0    0  0.63254805928E+01  0.51908322284E+01  0.53211071878E+01  0.97606672886E+01  0.51100000000E-03 0. -1.
        -11    1    3    3    0    0  0.25832976034E+01 -0.14929858824E+01 -0.33866483601E+00  0.30028532240E+01  0.51100000000E-03 0.  1.
        -12    1    3    3    0    0 -0.94452214865E+01  0.36558385160E+02  0.70209219571E+00  0.37765336856E+02  0.00000000000E+00 0.  1.
</event>
<event>
 7    1  0.2838209E-011  0.5052886E+02  0.7816164E-02  0.1300439E+00
        -11   -1    0    0    0    0  0.00000000000E+00  0.00000000000E+00  0.45593999997E+02  0.45594000000E+02  0.51100000000E-03 0.  1.
         11   -1    0    0    0    0 -0.00000000000E+00 -0.00000000000E+00 -0.45593999997E+02  0.45594000000E+02  0.51100000000E-03 0. -1.
    9900012    2    1    2    0    0  0.37537523089E+02 -0.68874675457E+01  0.14023649735E+02  0.50528860797E+02  0.30000002878E+02 0.  0.
         12    1    1    2    0    0 -0.37537523089E+02  0.68874675457E+01 -0.14023649735E+02  0.40659139203E+02  0.00000000000E+00 0. -1.
         11    1    3    3    0    0  0.10703906494E+02 -0.87165787620E+01  0.53630393119E+00  0.13814484489E+02  0.51100000000E-03 0.  1.
        -11    1    3    3    0    0  0.24429037993E+02 -0.50568651077E+01  0.15212563639E+02  0.29219374989E+02  0.51100000000E-03 0. -1.
         12    1    3    3    0    0  0.24045786019E+01  0.68859763241E+01 -0.17252178350E+01  0.74950013187E+01  0.00000000000E+00 0. -1.
</event>
<event>
 7    1  0.2838209E-011  0.5052887E+02  0.7816164E-02  0.1300439E+00
        -11   -1    0    0    0    0  0.00000000000E+00  0.00000000000E+00  0.45593999997E+02  0.45594000000E+02  0.51100000000E-03 0.  1.
         11   -1    0    0    0    0 -0.00000000000E+00 -0.00000000000E+00 -0.45593999997E+02  0.45594000000E+02  0.51100000000E-03 0. -1.
    9900012    2    1    2    0    0 -0.23883390719E+02  0.53280310342E+01  0.32470919242E+02  0.50528869865E+02  0.30000030440E+02 0.  0.
         12    1    1    2    0    0  0.23883390719E+02 -0.53280310342E+01 -0.32470919242E+02  0.40659130135E+02  0.00000000000E+00 0. -1.
         11    1    3    3    0    0 -0.20265587402E+01 -0.96643186569E+01  0.98548325877E+01  0.13950760589E+02  0.51100000000E-03 0. -1.
        -11    1    3    3    0    0  0.18026729015E+00  0.26824505604E+01  0.53747121154E+01  0.60096229407E+01  0.51100000000E-03 0.  1.
        -12    1    3    3    0    0 -0.22037099269E+02  0.12309899131E+02  0.17241374539E+02  0.30568486335E+02  0.00000000000E+00 0.  1.
</event>
<event>
 7    1  0.2838209E-011  0.5052886E+02  0.7816164E-02  0.1300439E+00
        -11   -1    0    0    0    0  0.00000000000E+00  0.00000000000E+00  0.45593999997E+02  0.45594000000E+02  0.51100000000E-03 0.  1.
         11   -1    0    0    0    0 -0.00000000000E+00 -0.00000000000E+00 -0.45593999997E+02  0.45594000000E+02  0.51100000000E-03 0. -1.
    9900012    2    1    2    0    0 -0.30918254684E+02  0.22874876179E+02  0.13189652216E+02  0.50528863776E+02  0.30000011934E+02 0.  0.
         12    1    1    2    0    0  0.30918254684E+02 -0.22874876179E+02 -0.13189652216E+02  0.40659136224E+02  0.00000000000E+00 0. -1.
         11    1    3    3    0    0 -0.12932791053E+02 -0.32737518515E+01 -0.21754303758E+01  0.13516916557E+02  0.51100000000E-03 0. -1.
        -11    1    3    3    0    0 -0.22190618861E+01  0.22731798606E+00  0.40639174072E+01  0.46358746829E+01  0.51100000000E-03 0.  1.
        -12    1    3    3    0    0 -0.15766401744E+02  0.25921310044E+02  0.11301165184E+02  0.32376072537E+02  0.00000000000E+00 0.  1.
</event>
<event>
 7    1  0.2838209E-011  0.5052887E+02  0.7816164E-02  0.1300439E+00
        -11   -1    0    0    0    0  0.00000000000E+00  0.00000000000E+00  0.45593999997E+02  0.45594000000E+02  0.51100000000E-03 0.  1.
         11   -1    0    0    0    0 -0.00000000000E+00 -0.00000000000E+00 -0.45593999997E+02  0.45594000000E+02  0.51100000000E-03 0. -1.
    9900012    2    1    2    0    0 -0.14489209364E+01  0.93792366735E+01  0.39536002657E+02  0.50528868694E+02  0.30000026883E+02 0.  0.
         12    1    1    2    0    0  0.14489209364E+01 -0.93792366735E+01 -0.39536002657E+02  0.40659131306E+02  0.00000000000E+00 0. -1.
         11    1    3    3    0    0  0.20568836255E+01  0.99611365182E+01  0.22364494099E+02  0.24568793368E+02  0.51100000000E-03 0. -1.
        -11    1    3    3    0    0  0.12260499196E+01  0.84998475569E+01  0.11172821054E+02  0.14091931644E+02  0.51100000000E-03 0.  1.
        -12    1    3    3    0    0 -0.47318544815E+01 -0.90817474016E+01  0.59986875041E+01  0.11868143683E+02  0.00000000000E+00 0.  1.
</event>
<event>
 7    1  0.2838209E-011  0.5052886E+02  0.7816164E-02  0.1300439E+00
        -11   -1    0    0    0    0  0.00000000000E+00  0.00000000000E+00  0.45593999997E+02  0.45594000000E+02  0.51100000000E-03 0.  1.
         11   -1    0    0    0    0 -0.00000000000E+00 -0.00000000000E+00 -0.45593999997E+02  0.45594000000E+02  0.51100000000E-03 0. -1.
    9900012    2    1    2    0    0 -0.47083431291E+00  0.31041132528E+02  0.26256278794E+02  0.50528858719E+02  0.29999996564E+02 0.  0.
         12    1    1    2    0    0  0.47083431291E+00 -0.31041132528E+02 -0.26256278794E+02  0.40659141281E+02  0.00000000000E+00 0. -1.
         11    1    3    3    0    0 -0.14151539507E+01  0.10514817276E+02  0.14617458358E+02  0.18061952612E+02  0.51100000000E-03 0. -1.
        -11    1    3    3    0    0 -0.84124698640E+01  0.13333625902E+02  0.13200302804E+02  0.20562179439E+02  0.51100000000E-03 0.  1.
         12    1    3    3    0    0  0.93567895017E+01  0.71926893499E+01 -0.15614823678E+01  0.11904726668E+02  0.00000000000E+00 0. -1.
</event>
<event>
 7    1  0.2838209E-011  0.5052886E+02  0.7816164E-02  0.1300439E+00
        -11   -1    0    0    0    0  0.00000000000E+00  0.00000000000E+00  0.45593999997E+02  0.45594000000E+02  0.51100000000E-03 0. -1.
         11   -1    0    0    0    0 -0.00000000000E+00 -0.00000000000E+00 -0.45593999997E+02  0.45594000000E+02  0.51100000000E-03 0.  1.
    9900012    2    1    2    0    0 -0.10732663601E+02  0.30361648549E+02  0.24822287784E+02  0.50528859067E+02  0.29999997620E+02 0.  0.
         12    1    1    2    0    0  0.10732663601E+02 -0.30361648549E+02 -0.24822287784E+02  0.40659140933E+02  0.00000000000E+00 0. -1.
         11    1    3    3    0    0 -0.34517423703E+01  0.68938122199E+01  0.15844177030E+01  0.78708037729E+01  0.51100000000E-03 0. -1.
        -11    1    3    3    0    0 -0.68879138263E+00  0.98904425022E+01 -0.46478404178E+01  0.10949781152E+02  0.51100000000E-03 0.  1.
         12    1    3    3    0    0 -0.65921298477E+01  0.13577393827E+02  0.27885710499E+02  0.31708274142E+02  0.00000000000E+00 0. -1.
</event>
<event>
 7    1  0.2838209E-011  0.5052892E+02  0.7816164E-02  0.1300439E+00
        -11   -1    0    0    0    0  0.00000000000E+00  0.00000000000E+00  0.45593999997E+02  0.45594000000E+02  0.51100000000E-03 0. -1.
         11   -1    0    0    0    0 -0.00000000000E+00 -0.00000000000E+00 -0.45593999997E+02  0.45594000000E+02  0.51100000000E-03 0.  1.
    9900012    2    1    2    0    0 -0.22822249372E+02 -0.33148120622E+02  0.57886208597E+01  0.50528916161E+02  0.30000171162E+02 0.  0.
         12    1    1    2    0    0  0.22822249372E+02  0.33148120622E+02 -0.57886208597E+01  0.40659083839E+02  0.00000000000E+00 0. -1.
         11    1    3    3    0    0 -0.46724905129E-01 -0.90693206341E+01  0.57090387611E+01  0.10716710494E+02  0.51100000000E-03 0. -1.
        -11    1    3    3    0    0 -0.19080474956E+02 -0.26718006091E+02  0.48938314522E+01  0.33194366398E+02  0.51100000000E-03 0.  1.
        -12    1    3    3    0    0 -0.36950495113E+01  0.26392061030E+01 -0.48142493537E+01  0.66178392685E+01  0.00000000000E+00 0.  1.
</event>
<event>
 7    1  0.2838209E-011  0.5052886E+02  0.7816164E-02  0.1300439E+00
        -11   -1    0    0    0    0  0.00000000000E+00  0.00000000000E+00  0.45593999997E+02  0.45594000000E+02  0.51100000000E-03 0.  1.
         11   -1    0    0    0    0 -0.00000000000E+00 -0.00000000000E+00 -0.45593999997E+02  0.45594000000E+02  0.51100000000E-03 0. -1.
    9900012    2    1    2    0    0 -0.13315994883E+02  0.67666820476E+01  0.37816162203E+02  0.50528857984E+02  0.29999994329E+02 0.  0.
         12    1    1    2    0    0  0.13315994883E+02 -0.67666820476E+01 -0.37816162203E+02  0.40659142016E+02  0.00000000000E+00 0. -1.
         11    1    3    3    0    0 -0.11711766265E+01  0.55185253951E+01  0.13301398371E+02  0.14448286269E+02  0.51100000000E-03 0. -1.
        -11    1    3    3    0    0 -0.13164575609E+01  0.45325986346E+01  0.24309214324E+02  0.24763186633E+02  0.51100000000E-03 0.  1.
         12    1    3    3    0    0 -0.10828360696E+02 -0.32844419821E+01  0.20554950782E+00  0.11317385082E+02  0.00000000000E+00 0. -1.
</event>
<event>
 7    1  0.3462031E-011  0.5052886E+02  0.7816164E-02  0.1300439E+00
        -11   -1    0    0    0    0  0.00000000000E+00  0.00000000000E+00  0.45593999997E+02  0.45594000000E+02  0.51100000000E-03 0. -1.
         11   -1    0    0    0    0 -0.00000000000E+00 -0.00000000000E+00 -0.45593999997E+02  0.45594000000E+02  0.51100000000E-03 0.  1.
    9900012    2    1    2    0    0 -0.14347301554E+02 -0.21154161455E+02 -0.31619965102E+02  0.50528858325E+02  0.29999995365E+02 0.  0.
         12    1    1    2    0    0  0.14347301554E+02  0.21154161455E+02  0.31619965102E+02  0.40659141675E+02  0.00000000000E+00 0. -1.
         11    1    3    3    0    0 -0.46964651533E+01 -0.37992543009E+01  0.47628936129E+01  0.76926116507E+01  0.51100000000E-03 0. -1.
        -11    1    3    3    0    0 -0.91833911533E+01 -0.86150303286E+01 -0.14143087035E+02  0.18936217462E+02  0.51100000000E-03 0.  1.
        -12    1    3    3    0    0 -0.46744524723E+00 -0.87398768252E+01 -0.22239771680E+02  0.23900029212E+02  0.00000000000E+00 0.  1.
</event>
<event>
 7    1  0.2838209E-011  0.5052886E+02  0.7816164E-02  0.1300439E+00
        -11   -1    0    0    0    0  0.00000000000E+00  0.00000000000E+00  0.45593999997E+02  0.45594000000E+02  0.51100000000E-03 0. -1.
         11   -1    0    0    0    0 -0.00000000000E+00 -0.00000000000E+00 -0.45593999997E+02  0.45594000000E+02  0.51100000000E-03 0.  1.
    9900012    2    1    2    0    0  0.13382408494E+01  0.40480706631E+02  0.35619272222E+01  0.50528858058E+02  0.29999994552E+02 0.  0.
         12    1    1    2    0    0 -0.13382408494E+01 -0.40480706631E+02 -0.35619272222E+01  0.40659141942E+02  0.00000000000E+00 0. -1.
         11    1    3    3    0    0 -0.66794516335E+01  0.38230970239E+01 -0.25035875685E+01  0.80931511757E+01  0.51100000000E-03 0. -1.
        -11    1    3    3    0    0  0.62744419345E+01  0.77603979913E+01  0.88682710189E+01  0.13350604095E+02  0.51100000000E-03 0.  1.
        -12    1    3    3    0    0  0.17432505484E+01  0.28897211616E+02 -0.28027562281E+01  0.29085102787E+02  0.00000000000E+00 0.  1.
</event>
<event>
 7    1  0.2838209E-011  0.5052886E+02  0.7816164E-02  0.1300439E+00
        -11   -1    0    0    0    0  0.00000000000E+00  0.00000000000E+00  0.45593999997E+02  0.45594000000E+02  0.51100000000E-03 0.  1.
         11   -1    0    0    0    0 -0.00000000000E+00 -0.00000000000E+00 -0.45593999997E+02  0.45594000000E+02  0.51100000000E-03 0. -1.
    9900012    2    1    2    0    0 -0.31890441842E+01 -0.12137948089E+01  0.40515707313E+02  0.50528857858E+02  0.29999993946E+02 0.  0.
         12    1    1    2    0    0  0.31890441842E+01  0.12137948089E+01 -0.40515707313E+02  0.40659142142E+02  0.00000000000E+00 0. -1.
         11    1    3    3    0    0  0.97516884013E+00 -0.60579895598E+01  0.73204458861E+01  0.95519170854E+01  0.51100000000E-03 0. -1.
        -11    1    3    3    0    0  0.59943641685E+01 -0.43225999829E+01  0.32891911189E+01  0.80892552732E+01  0.51100000000E-03 0.  1.
        -12    1    3    3    0    0 -0.10158577193E+02  0.91667947339E+01  0.29906070308E+02  0.32887685500E+02  0.00000000000E+00 0.  1.
</event>
<event>
 7    1  0.2838209E-011  0.5052886E+02  0.7816164E-02  0.1300439E+00
        -11   -1    0    0    0    0  0.00000000000E+00  0.00000000000E+00  0.45593999997E+02  0.45594000000E+02  0.51100000000E-03 0.  1.
         11   -1    0    0    0    0 -0.00000000000E+00 -0.00000000000E+00 -0.45593999997E+02  0.45594000000E+02  0.51100000000E-03 0. -1.
    9900012    2    1    2    0    0 -0.17512939266E+02 -0.13654195795E+02  0.34059153004E+02  0.50528855790E+02  0.29999987658E+02 0.  0.
         12    1    1    2    0    0  0.17512939266E+02  0.13654195795E+02 -0.34059153004E+02  0.40659144210E+02  0.00000000000E+00 0. -1.
         11    1    3    3    0    0 -0.10907437685E+02 -0.46020509548E+01  0.29864153802E+02  0.32125048676E+02  0.51100000000E-03 0. -1.
        -11    1    3    3    0    0  0.26195158563E+01 -0.47381630922E+01  0.59777315118E+01  0.80650683257E+01  0.51100000000E-03 0.  1.
        -12    1    3    3    0    0 -0.92250174369E+01 -0.43139817483E+01 -0.17827323097E+01  0.10338738788E+02  0.00000000000E+00 0.  1.
</event>
<event>
 7    1  0.2838209E-011  0.5052887E+02  0.7816164E-02  0.1300439E+00
        -11   -1    0    0    0    0  0.00000000000E+00  0.00000000000E+00  0.45593999997E+02  0.45594000000E+02  0.51100000000E-03 0.  1.
         11   -1    0    0    0    0 -0.00000000000E+00 -0.00000000000E+00 -0.45593999997E+02  0.45594000000E+02  0.51100000000E-03 0. -1.
    9900012    2    1    2    0    0 -0.84750924238E+01 -0.32952336471E+02  0.22259404249E+02  0.50528871283E+02  0.30000034753E+02 0.  0.
         12    1    1    2    0    0  0.84750924238E+01  0.32952336471E+02 -0.22259404249E+02  0.40659128717E+02  0.00000000000E+00 0. -1.
         11    1    3    3    0    0  0.88513326537E+01 -0.52279552568E+01  0.16962353680E+01  0.10418964469E+02  0.51100000000E-03 0. -1.
        -11    1    3    3    0    0  0.86543507587E+00 -0.36178625866E+01  0.47086102767E+01  0.60007431677E+01  0.51100000000E-03 0.  1.
         12    1    3    3    0    0 -0.18191860153E+02 -0.24106518627E+02  0.15854558604E+02  0.34109163647E+02  0.00000000000E+00 0. -1.
</event>
<event>
 7    1  0.2838209E-011  0.5052886E+02  0.7816164E-02  0.1300439E+00
        -11   -1    0    0    0    0  0.00000000000E+00  0.00000000000E+00  0.45593999997E+02  0.45594000000E+02  0.51100000000E-03 0. -1.
         11   -1    0    0    0    0 -0.00000000000E+00 -0.00000000000E+00 -0.45593999997E+02  0.45594000000E+02  0.51100000000E-03 0.  1.
    9900012    2    1    2    0    0  0.56791106653E+01 -0.19548496486E+02 -0.35196162698E+02  0.50528857345E+02  0.29999992386E+02 0.  0.
         12    1    1    2    0    0 -0.56791106653E+01  0.19548496486E+02  0.35196162698E+02  0.40659142655E+02  0.00000000000E+00 0. -1.
         11    1    3    3    0    0 -0.26523460735E+01 -0.51468690246E+01 -0.33488908751E+01  0.66888168464E+01  0.51100000000E-03 0. -1.
        -11    1    3    3    0    0  0.85497760033E+01 -0.15341220431E+02 -0.68928540844E+01  0.18866985761E+02  0.51100000000E-03 0.  1.
        -12    1    3    3    0    0 -0.21831926447E+00  0.93959297016E+00 -0.24954417738E+02  0.24973054737E+02  0.00000000000E+00 0.  1.
</event>
<event>
 7    1  0.2838209E-011  0.5052886E+02  0.7816164E-02  0.1300439E+00
        -11   -1    0    0    0    0  0.00000000000E+00  0.00000000000E+00  0.45593999997E+02  0.45594000000E+02  0.51100000000E-03 0.  1.
         11   -1    0    0    0    0 -0.00000000000E+00 -0.00000000000E+00 -0.45593999997E+02  0.45594000000E+02  0.51100000000E-03 0. -1.
    9900012    2    1    2    0    0  0.14839579226E+02 -0.23243081469E+02  0.29878284050E+02  0.50528858278E+02  0.29999995223E+02 0.  0.
         12    1    1    2    0    0 -0.14839579226E+02  0.23243081469E+02 -0.29878284050E+02  0.40659141722E+02  0.00000000000E+00 0. -1.
         11    1    3    3    0    0  0.12979394820E+02 -0.97419490709E+01  0.99497361166E+01  0.19035953106E+02  0.51100000000E-03 0. -1.
        -11    1    3    3    0    0  0.80291385581E+01 -0.15255110856E+02  0.17688351747E+02  0.24699458719E+02  0.51100000000E-03 0.  1.
         12    1    3    3    0    0 -0.61689541525E+01  0.17539784574E+01  0.22401961859E+01  0.67934464535E+01  0.00000000000E+00 0. -1.
</event>
<event>
 7    1  0.2838209E-011  0.5052887E+02  0.7816164E-02  0.1300439E+00
        -11   -1    0    0    0    0  0.00000000000E+00  0.00000000000E+00  0.45593999997E+02  0.45594000000E+02  0.51100000000E-03 0. -1.
         11   -1    0    0    0    0 -0.00000000000E+00 -0.00000000000E+00 -0.45593999997E+02  0.45594000000E+02  0.51100000000E-03 0.  1.
    9900012    2    1    2    0    0 -0.11390862709E+02 -0.36736372319E+02  0.13185308020E+02  0.50528866315E+02  0.30000019650E+02 0.  0.
         12    1    1    2    0    0  0.11390862709E+02  0.36736372319E+02 -0.13185308020E+02  0.40659133685E+02  0.00000000000E+00 0. -1.
         11    1    3    3    0    0  0.20853963287E+00  0.30762992963E+01  0.73985347820E+01  0.80153242805E+01  0.51100000000E-03 0. -1.
        -11    1    3    3    0    0 -0.37924475692E+00 -0.11181736807E+02  0.32875455586E+01  0.11661175784E+02  0.51100000000E-03 0.  1.
        -12    1    3    3    0    0 -0.11220157585E+02 -0.28630934808E+02  0.24992276799E+01  0.30852366250E+02  0.00000000000E+00 0.  1.
</event>
<event>
 7    1  0.2838209E-011  0.5052885E+02  0.7816164E-02  0.1300439E+00
        -11   -1    0    0    0    0  0.00000000000E+00  0.00000000000E+00  0.45593999997E+02  0.45594000000E+02  0.51100000000E-03 0.  1.
         11   -1    0    0    0    0 -0.00000000000E+00 -0.00000000000E+00 -0.45593999997E+02  0.45594000000E+02  0.51100000000E-03 0. -1.
    9900012    2    1    2    0    0  0.40001690409E+02 -0.38901106709E+01  0.61561902375E+01  0.50528845129E+02  0.29999955254E+02 0.  0.
         12    1    1    2    0    0 -0.40001690409E+02  0.38901106709E+01 -0.61561902375E+01  0.40659154871E+02  0.00000000000E+00 0. -1.
         11    1    3    3    0    0  0.20000373024E+01 -0.24393838438E+01  0.61641224028E+01  0.69243879156E+01  0.51100000000E-03 0.  1.
        -11    1    3    3    0    0  0.40710065997E+02 -0.13814428183E+01  0.91063716257E+00  0.40743675804E+02  0.51100000000E-03 0. -1.
         12    1    3    3    0    0 -0.27084128908E+01 -0.69284008774E-01 -0.91856932783E+00  0.28607814091E+01  0.00000000000E+00 0. -1.
</event>
<event>
 7    1  0.2838209E-011  0.5052884E+02  0.7816164E-02  0.1300439E+00
        -11   -1    0    0    0    0  0.00000000000E+00  0.00000000000E+00  0.45593999997E+02  0.45594000000E+02  0.51100000000E-03 0. -1.
         11   -1    0    0    0    0 -0.00000000000E+00 -0.00000000000E+00 -0.45593999997E+02  0.45594000000E+02  0.51100000000E-03 0.  1.
    9900012    2    1    2    0    0 -0.19534198270E+02 -0.21227589560E+02 -0.28652604182E+02  0.50528841291E+02  0.29999943587E+02 0.  0.
         12    1    1    2    0    0  0.19534198270E+02  0.21227589560E+02  0.28652604182E+02  0.40659158709E+02  0.00000000000E+00 0. -1.
         11    1    3    3    0    0 -0.75922033729E+01  0.88501695898E+00 -0.14710311933E+01  0.77838769329E+01  0.51100000000E-03 0. -1.
        -11    1    3    3    0    0 -0.13607121652E+02 -0.45759457285E+01 -0.17531545144E+02  0.22659393512E+02  0.51100000000E-03 0.  1.
        -12    1    3    3    0    0  0.16651267551E+01 -0.17536660790E+02 -0.96500278446E+01  0.20085570845E+02  0.00000000000E+00 0.  1.
</event>
<event>
 7    1  0.2838209E-011  0.5052887E+02  0.7816164E-02  0.1300439E+00
        -11   -1    0    0    0    0  0.00000000000E+00  0.00000000000E+00  0.45593999997E+02  0.45594000000E+02  0.51100000000E-03 0.  1.
         11   -1    0    0    0    0 -0.00000000000E+00 -0.00000000000E+00 -0.45593999997E+02  0.45594000000E+02  0.51100000000E-03 0. -1.
    9900012    2    1    2    0    0 -0.51549537601E+01 -0.25312140927E+02  0.31398833839E+02  0.50528870730E+02  0.30000033071E+02 0.  0.
         12    1    1    2    0    0  0.51549537601E+01  0.25312140927E+02 -0.31398833839E+02  0.40659129270E+02  0.00000000000E+00 0. -1.
         11    1    3    3    0    0  0.45043159808E+01 -0.11608349591E+02  0.16802055165E+02  0.20912955331E+02  0.51100000000E-03 0. -1.
        -11    1    3    3    0    0  0.17523980297E+01 -0.14106575337E+02  0.95917327608E+01  0.17148402381E+02  0.51100000000E-03 0.  1.
        -12    1    3    3    0    0 -0.11411667771E+02  0.40278400126E+00  0.50050459133E+01  0.12467513018E+02  0.00000000000E+00 0.  1.
</event>
<event>
 7    1  0.2838209E-011  0.5052886E+02  0.7816164E-02  0.1300439E+00
        -11   -1    0    0    0    0  0.00000000000E+00  0.00000000000E+00  0.45593999997E+02  0.45594000000E+02  0.51100000000E-03 0. -1.
         11   -1    0    0    0    0 -0.00000000000E+00 -0.00000000000E+00 -0.45593999997E+02  0.45594000000E+02  0.51100000000E-03 0.  1.
    9900012    2    1    2    0    0  0.35378957556E+02  0.20035988716E+02 -0.23336501255E+00  0.50528856615E+02  0.29999990168E+02 0.  0.
         12    1    1    2    0    0 -0.35378957556E+02 -0.20035988716E+02  0.23336501255E+00  0.40659143385E+02  0.00000000000E+00 0. -1.
         11    1    3    3    0    0  0.46518236730E+01  0.84023315203E+01 -0.53699027719E+01  0.11003385593E+02  0.51100000000E-03 0. -1.
        -11    1    3    3    0    0  0.28848109111E+02  0.16413265071E+02  0.14845148193E+01  0.33223673097E+02  0.51100000000E-03 0.  1.
         12    1    3    3    0    0  0.18790247719E+01 -0.47796078754E+01  0.36520229401E+01  0.63017979252E+01  0.00000000000E+00 0. -1.
</event>
<event>
 7    1  0.2838209E-011  0.5052888E+02  0.7816164E-02  0.1300439E+00
        -11   -1    0    0    0    0  0.00000000000E+00  0.00000000000E+00  0.45593999997E+02  0.45594000000E+02  0.51100000000E-03 0. -1.
         11   -1    0    0    0    0 -0.00000000000E+00 -0.00000000000E+00 -0.45593999997E+02  0.45594000000E+02  0.51100000000E-03 0.  1.
    9900012    2    1    2    0    0  0.35210355775E+02  0.16418353789E+02 -0.11993015488E+02  0.50528881522E+02  0.30000065873E+02 0.  0.
         12    1    1    2    0    0 -0.35210355775E+02 -0.16418353789E+02  0.11993015488E+02  0.40659118478E+02  0.00000000000E+00 0. -1.
         11    1    3    3    0    0 -0.28937191978E+00 -0.75487595886E+00  0.33828143652E+01  0.34780752022E+01  0.51100000000E-03 0. -1.
        -11    1    3    3    0    0  0.14443527298E+02  0.26147695163E+01 -0.15641779366E+02  0.21450355765E+02  0.51100000000E-03 0.  1.
         12    1    3    3    0    0  0.21056200397E+02  0.14558460231E+02  0.26594951350E+00  0.25600450555E+02  0.00000000000E+00 0. -1.
</event>
<event>
 7    1  0.2838209E-011  0.5052886E+02  0.7816164E-02  0.1300439E+00
        -11   -1    0    0    0    0  0.00000000000E+00  0.00000000000E+00  0.45593999997E+02  0.45594000000E+02  0.51100000000E-03 0. -1.
         11   -1    0    0    0    0 -0.00000000000E+00 -0.00000000000E+00 -0.45593999997E+02  0.45594000000E+02  0.51100000000E-03 0.  1.
    9900012    2    1    2    0    0  0.77967575540E+00  0.39695873367E+02  0.87632994882E+01  0.50528859889E+02  0.30000000118E+02 0.  0.
         12    1    1    2    0    0 -0.77967575540E+00 -0.39695873367E+02 -0.87632994882E+01  0.40659140111E+02  0.00000000000E+00 0. -1.
         11    1    3    3    0    0 -0.53529091375E+01  0.10077098521E+02  0.59719890209E+01  0.12878905387E+02  0.51100000000E-03 0. -1.
        -11    1    3    3    0    0 -0.33237634963E+01  0.16547185765E+02 -0.75470759921E+01  0.18488242664E+02  0.51100000000E-03 0.  1.
         12    1    3    3    0    0  0.94563483893E+01  0.13071589081E+02  0.10338386459E+02  0.19161711838E+02  0.00000000000E+00 0. -1.
</event>
<event>
 7    1  0.2838209E-011  0.5052886E+02  0.7816164E-02  0.1300439E+00
        -11   -1    0    0    0    0  0.00000000000E+00  0.00000000000E+00  0.45593999997E+02  0.45594000000E+02  0.51100000000E-03 0. -1.
         11   -1    0    0    0    0 -0.00000000000E+00 -0.00000000000E+00 -0.45593999997E+02  0.45594000000E+02  0.51100000000E-03 0.  1.
    9900012    2    1    2    0    0 -0.86320050628E+00  0.38272001005E+02 -0.13699424229E+02  0.50528863263E+02  0.30000010374E+02 0.  0.
         12    1    1    2    0    0  0.86320050628E+00 -0.38272001005E+02  0.13699424229E+02  0.40659136737E+02  0.00000000000E+00 0. -1.
         11    1    3    3    0    0  0.17119020635E+01  0.43987544885E+01  0.38733450222E+01  0.61059357716E+01  0.51100000000E-03 0. -1.
        -11    1    3    3    0    0  0.17048272813E+01  0.23434957462E+02  0.51678032393E-01  0.23496943167E+02  0.51100000000E-03 0.  1.
        -12    1    3    3    0    0 -0.42799298510E+01  0.10438289054E+02 -0.17624447283E+02  0.20925984324E+02  0.00000000000E+00 0.  1.
</event>
<event>
 7    1  0.2838209E-011  0.5052885E+02  0.7816164E-02  0.1300439E+00
        -11   -1    0    0    0    0  0.00000000000E+00  0.00000000000E+00  0.45593999997E+02  0.45594000000E+02  0.51100000000E-03 0. -1.
         11   -1    0    0    0    0 -0.00000000000E+00 -0.00000000000E+00 -0.45593999997E+02  0.45594000000E+02  0.51100000000E-03 0.  1.
    9900012    2    1    2    0    0 -0.29050099958E+02  0.28395317369E+02  0.17215683255E+01  0.50528853999E+02  0.29999982214E+02 0.  0.
         12    1    1    2    0    0  0.29050099958E+02 -0.28395317369E+02 -0.17215683255E+01  0.40659146001E+02  0.00000000000E+00 0. -1.
         11    1    3    3    0    0  0.29139128745E+01  0.53993983256E+01  0.72139711737E+01  0.94702571705E+01  0.51100000000E-03 0. -1.
        -11    1    3    3    0    0 -0.69014658058E+00  0.37563957685E+01 -0.15782951305E+01  0.41325327890E+01  0.51100000000E-03 0.  1.
        -12    1    3    3    0    0 -0.31273866252E+02  0.19239523275E+02 -0.39141077177E+01  0.36926064039E+02  0.00000000000E+00 0.  1.
</event>
<event>
 7    1  0.2838209E-011  0.5052881E+02  0.7816164E-02  0.1300439E+00
        -11   -1    0    0    0    0  0.00000000000E+00  0.00000000000E+00  0.45593999997E+02  0.45594000000E+02  0.51100000000E-03 0.  1.
         11   -1    0    0    0    0 -0.00000000000E+00 -0.00000000000E+00 -0.45593999997E+02  0.45594000000E+02  0.51100000000E-03 0. -1.
    9900012    2    1    2    0    0 -0.10266042204E+02 -0.22709859901E+02  0.32125388648E+02  0.50528807250E+02  0.29999840118E+02 0.  0.
         12    1    1    2    0    0  0.10266042204E+02  0.22709859901E+02 -0.32125388648E+02  0.40659192750E+02  0.00000000000E+00 0. -1.
         11    1    3    3    0    0 -0.32116995273E+01  0.35649822290E+01 -0.92810357632E+00  0.48872782462E+01  0.51100000000E-03 0. -1.
        -11    1    3    3    0    0  0.32642468859E+01 -0.13094500076E+02  0.21198774657E+02  0.25129848531E+02  0.51100000000E-03 0.  1.
        -12    1    3    3    0    0 -0.10318589563E+02 -0.13180342054E+02  0.11854717567E+02  0.20511680473E+02  0.00000000000E+00 0.  1.
</event>
<event>
 7    1  0.2838209E-011  0.5052886E+02  0.7816164E-02  0.1300439E+00
        -11   -1    0    0    0    0  0.00000000000E+00  0.00000000000E+00  0.45593999997E+02  0.45594000000E+02  0.51100000000E-03 0.  1.
         11   -1    0    0    0    0 -0.00000000000E+00 -0.00000000000E+00 -0.45593999997E+02  0.45594000000E+02  0.51100000000E-03 0. -1.
    9900012    2    1    2    0    0 -0.19313374154E+01 -0.37132128359E+02  0.16451156436E+02  0.50528861191E+02  0.30000004075E+02 0.  0.
         12    1    1    2    0    0  0.19313374154E+01  0.37132128359E+02 -0.16451156436E+02  0.40659138809E+02  0.00000000000E+00 0. -1.
         11    1    3    3    0    0 -0.10678107305E+01 -0.12721286341E+02 -0.17772509131E+01  0.12889141437E+02  0.51100000000E-03 0. -1.
        -11    1    3    3    0    0 -0.10563129848E+02 -0.10706494141E+02  0.38263041335E+01  0.15519321266E+02  0.51100000000E-03 0.  1.
        -12    1    3    3    0    0  0.96996031626E+01 -0.13704347877E+02  0.14402103215E+02  0.22120398488E+02  0.00000000000E+00 0.  1.
</event>
<event>
 7    1  0.2838209E-011  0.5052887E+02  0.7816164E-02  0.1300439E+00
        -11   -1    0    0    0    0  0.00000000000E+00  0.00000000000E+00  0.45593999997E+02  0.45594000000E+02  0.51100000000E-03 0.  1.
         11   -1    0    0    0    0 -0.00000000000E+00 -0.00000000000E+00 -0.45593999997E+02  0.45594000000E+02  0.51100000000E-03 0. -1.
    9900012    2    1    2    0    0  0.30913133922E+02  0.16838878105E+02  0.20346873195E+02  0.50528869248E+02  0.30000028566E+02 0.  0.
         12    1    1    2    0    0 -0.30913133922E+02 -0.16838878105E+02 -0.20346873195E+02  0.40659130752E+02  0.00000000000E+00 0. -1.
         11    1    3    3    0    0  0.63437876489E+01 -0.91902663573E+00 -0.26099155009E+01  0.69209761504E+01  0.51100000000E-03 0. -1.
        -11    1    3    3    0    0  0.14849583624E-01 -0.16468117492E+01 -0.26840614901E+01  0.31490309289E+01  0.51100000000E-03 0.  1.
        -12    1    3    3    0    0  0.24554496689E+02  0.19404716490E+02  0.25640850186E+02  0.40458862169E+02  0.00000000000E+00 0.  1.
</event>
<event>
 7    1  0.2838209E-011  0.5052886E+02  0.7816164E-02  0.1300439E+00
        -11   -1    0    0    0    0  0.00000000000E+00  0.00000000000E+00  0.45593999997E+02  0.45594000000E+02  0.51100000000E-03 0.  1.
         11   -1    0    0    0    0 -0.00000000000E+00 -0.00000000000E+00 -0.45593999997E+02  0.45594000000E+02  0.51100000000E-03 0. -1.
    9900012    2    1    2    0    0 -0.80081027052E+01 -0.35854933315E+01  0.39701137357E+02  0.50528858607E+02  0.29999996222E+02 0.  0.
         12    1    1    2    0    0  0.80081027052E+01  0.35854933315E+01 -0.39701137357E+02  0.40659141393E+02  0.00000000000E+00 0. -1.
         11    1    3    3    0    0  0.49042268736E+01  0.21834619228E+01  0.96619367207E+01  0.11053142931E+02  0.51100000000E-03 0. -1.
        -11    1    3    3    0    0  0.50098777458E+01 -0.34615766943E+01  0.14183636898E+02  0.15435573982E+02  0.51100000000E-03 0.  1.
        -12    1    3    3    0    0 -0.17922207325E+02 -0.23073785601E+01  0.15855563739E+02  0.24040141694E+02  0.00000000000E+00 0.  1.
</event>
<event>
 7    1  0.2838209E-011  0.5052885E+02  0.7816164E-02  0.1300439E+00
        -11   -1    0    0    0    0  0.00000000000E+00  0.00000000000E+00  0.45593999997E+02  0.45594000000E+02  0.51100000000E-03 0.  1.
         11   -1    0    0    0    0 -0.00000000000E+00 -0.00000000000E+00 -0.45593999997E+02  0.45594000000E+02  0.51100000000E-03 0. -1.
    9900012    2    1    2    0    0 -0.38896282685E+02 -0.12548488920E+00  0.11841877618E+02  0.50528848278E+02  0.29999964827E+02 0.  0.
         12    1    1    2    0    0  0.38896282685E+02  0.12548488920E+00 -0.11841877618E+02  0.40659151722E+02  0.00000000000E+00 0. -1.
         11    1    3    3    0    0 -0.16329157026E+02 -0.30502172031E+01  0.52161560650E+01  0.17411303183E+02  0.51100000000E-03 0. -1.
        -11    1    3    3    0    0 -0.22828280515E+02 -0.55132987491E+01  0.22045969294E+01  0.23587859213E+02  0.51100000000E-03 0.  1.
         12    1    3    3    0    0  0.26115485551E+00  0.84380310630E+01  0.44211246239E+01  0.95296858825E+01  0.00000000000E+00 0. -1.
</event>
<event>
 7    1  0.2838209E-011  0.5052886E+02  0.7816164E-02  0.1300439E+00
        -11   -1    0    0    0    0  0.00000000000E+00  0.00000000000E+00  0.45593999997E+02  0.45594000000E+02  0.51100000000E-03 0. -1.
         11   -1    0    0    0    0 -0.00000000000E+00 -0.00000000000E+00 -0.45593999997E+02  0.45594000000E+02  0.51100000000E-03 0.  1.
    9900012    2    1    2    0    0 -0.42811950430E+01 -0.40418392728E+02 -0.10910810740E+01  0.50528861303E+02  0.30000004416E+02 0.  0.
         12    1    1    2    0    0  0.42811950430E+01  0.40418392728E+02  0.10910810740E+01  0.40659138697E+02  0.00000000000E+00 0. -1.
         11    1    3    3    0    0 -0.34622487114E+01  0.14234590386E+01  0.18658793849E+01  0.41826914678E+01  0.51100000000E-03 0. -1.
        -11    1    3    3    0    0 -0.81842606685E+01 -0.74109189744E+01 -0.82483755075E+00  0.11071774925E+02  0.51100000000E-03 0.  1.
        -12    1    3    3    0    0  0.73653143369E+01 -0.34430932792E+02 -0.21321229082E+01  0.35274394910E+02  0.00000000000E+00 0.  1.
</event>
<event>
 7    1  0.2838209E-011  0.5052887E+02  0.7816164E-02  0.1300439E+00
        -11   -1    0    0    0    0  0.00000000000E+00  0.00000000000E+00  0.45593999997E+02  0.45594000000E+02  0.51100000000E-03 0.  1.
         11   -1    0    0    0    0 -0.00000000000E+00 -0.00000000000E+00 -0.45593999997E+02  0.45594000000E+02  0.51100000000E-03 0. -1.
    9900012    2    1    2    0    0  0.87490123713E+01 -0.77205920903E+01  0.38948844214E+02  0.50528865414E+02  0.30000016912E+02 0.  0.
         12    1    1    2    0    0 -0.87490123713E+01  0.77205920903E+01 -0.38948844214E+02  0.40659134586E+02  0.00000000000E+00 0. -1.
         11    1    3    3    0    0 -0.19307483337E+01  0.85069805423E+00  0.27576347145E+02  0.27656941234E+02  0.51100000000E-03 0. -1.
        -11    1    3    3    0    0  0.31314254454E+01 -0.56128797735E+01  0.13091640141E+02  0.14584282173E+02  0.51100000000E-03 0.  1.
         12    1    3    3    0    0  0.75483352596E+01 -0.29584103710E+01 -0.17191430725E+01  0.82876420059E+01  0.00000000000E+00 0. -1.
</event>
<event>
 7    1  0.2838209E-011  0.5052886E+02  0.7816164E-02  0.1300439E+00
        -11   -1    0    0    0    0  0.00000000000E+00  0.00000000000E+00  0.45593999997E+02  0.45594000000E+02  0.51100000000E-03 0.  1.
         11   -1    0    0    0    0 -0.00000000000E+00 -0.00000000000E+00 -0.45593999997E+02  0.45594000000E+02  0.51100000000E-03 0. -1.
    9900012    2    1    2    0    0  0.20069425763E+02 -0.34385302086E+02  0.82483271710E+01  0.50528858948E+02  0.29999997258E+02 0.  0.
         12    1    1    2    0    0 -0.20069425763E+02  0.34385302086E+02 -0.82483271710E+01  0.40659141052E+02  0.00000000000E+00 0. -1.
         11    1    3    3    0    0  0.45975143687E+01 -0.91528960195E+01  0.57941891652E+01  0.11767976557E+02  0.51100000000E-03 0.  1.
        -11    1    3    3    0    0 -0.41001249346E+01 -0.13630853456E+02 -0.45689226697E+01  0.14949456346E+02  0.51100000000E-03 0. -1.
         12    1    3    3    0    0  0.19572036329E+02 -0.11601552611E+02  0.70230606755E+01  0.23811426045E+02  0.00000000000E+00 0. -1.
</event>
<event>
 7    1  0.2838209E-011  0.5052886E+02  0.7816164E-02  0.1300439E+00
        -11   -1    0    0    0    0  0.00000000000E+00  0.00000000000E+00  0.45593999997E+02  0.45594000000E+02  0.51100000000E-03 0.  1.
         11   -1    0    0    0    0 -0.00000000000E+00 -0.00000000000E+00 -0.45593999997E+02  0.45594000000E+02  0.51100000000E-03 0. -1.
    9900012    2    1    2    0    0  0.22719395271E+02  0.27562792774E+02  0.19423879715E+02  0.50528861173E+02  0.30000004023E+02 0.  0.
         12    1    1    2    0    0 -0.22719395271E+02 -0.27562792774E+02 -0.19423879715E+02  0.40659138827E+02  0.00000000000E+00 0. -1.
         11    1    3    3    0    0  0.14826822186E+02  0.12323278700E+02  0.14175993558E+02  0.23930245458E+02  0.51100000000E-03 0.  1.
        -11    1    3    3    0    0  0.11899092880E+02  0.16121068207E+02  0.80894425487E+01  0.21608246863E+02  0.51100000000E-03 0. -1.
         12    1    3    3    0    0 -0.40065197952E+01 -0.88155413313E+00 -0.28415563916E+01  0.49903688526E+01  0.00000000000E+00 0. -1.
</event>
<event>
 7    1  0.2838209E-011  0.5052886E+02  0.7816164E-02  0.1300439E+00
        -11   -1    0    0    0    0  0.00000000000E+00  0.00000000000E+00  0.45593999997E+02  0.45594000000E+02  0.51100000000E-03 0.  1.
         11   -1    0    0    0    0 -0.00000000000E+00 -0.00000000000E+00 -0.45593999997E+02  0.45594000000E+02  0.51100000000E-03 0. -1.
    9900012    2    1    2    0    0 -0.34852155749E+02  0.17486140899E+02  0.11520757194E+02  0.50528859205E+02  0.29999998039E+02 0.  0.
         12    1    1    2    0    0  0.34852155749E+02 -0.17486140899E+02 -0.11520757194E+02  0.40659140795E+02  0.00000000000E+00 0. -1.
         11    1    3    3    0    0 -0.11628183594E+02 -0.42764435688E+01 -0.30423685353E+01  0.12757689049E+02  0.51100000000E-03 0. -1.
        -11    1    3    3    0    0 -0.78496695453E+01  0.36698631342E+01 -0.19103143702E+01  0.88732467930E+01  0.51100000000E-03 0.  1.
        -12    1    3    3    0    0 -0.15374302609E+02  0.18092721334E+02  0.16473440100E+02  0.28897923363E+02  0.00000000000E+00 0.  1.
</event>
<event>
 7    1  0.3297511E-011  0.5052886E+02  0.7816164E-02  0.1300439E+00
        -11   -1    0    0    0    0  0.00000000000E+00  0.00000000000E+00  0.45593999997E+02  0.45594000000E+02  0.51100000000E-03 0. -1.
         11   -1    0    0    0    0 -0.00000000000E+00 -0.00000000000E+00 -0.45593999997E+02  0.45594000000E+02  0.51100000000E-03 0.  1.
    9900012    2    1    2    0    0 -0.16299504206E+02  0.24846099923E+02 -0.27751807790E+02  0.50528863826E+02  0.30000012087E+02 0.  0.
         12    1    1    2    0    0  0.16299504206E+02 -0.24846099923E+02  0.27751807790E+02  0.40659136174E+02  0.00000000000E+00 0. -1.
         11    1    3    3    0    0  0.75041262604E+00 -0.60990590817E+00  0.33630852923E+01  0.34993495496E+01  0.51100000000E-03 0. -1.
        -11    1    3    3    0    0 -0.70915709684E+01 -0.25358308103E-01 -0.27090100713E+01  0.75914265900E+01  0.51100000000E-03 0.  1.
        -12    1    3    3    0    0 -0.99583458634E+01  0.25481364140E+02 -0.28405883011E+02  0.39438087687E+02  0.00000000000E+00 0.  1.
</event>
<event>
 7    1  0.2838209E-011  0.5052886E+02  0.7816164E-02  0.1300439E+00
        -11   -1    0    0    0    0  0.00000000000E+00  0.00000000000E+00  0.45593999997E+02  0.45594000000E+02  0.51100000000E-03 0.  1.
         11   -1    0    0    0    0 -0.00000000000E+00 -0.00000000000E+00 -0.45593999997E+02  0.45594000000E+02  0.51100000000E-03 0. -1.
    9900012    2    1    2    0    0  0.24436541754E+02  0.29147780022E+02  0.14367592257E+02  0.50528863752E+02  0.30000011861E+02 0.  0.
         12    1    1    2    0    0 -0.24436541754E+02 -0.29147780022E+02 -0.14367592257E+02  0.40659136248E+02  0.00000000000E+00 0. -1.
         11    1    3    3    0    0  0.21389302166E+02  0.20911475777E+02  0.69586646104E+01  0.30711806846E+02  0.51100000000E-03 0. -1.
        -11    1    3    3    0    0 -0.34789132230E+01  0.81394779778E+01  0.94793630086E+01  0.12969667007E+02  0.51100000000E-03 0.  1.
         12    1    3    3    0    0  0.65261528115E+01  0.96826267596E-01 -0.20704353621E+01  0.68473898993E+01  0.00000000000E+00 0. -1.
</event>
<event>
 7    1  0.2838209E-011  0.5052886E+02  0.7816164E-02  0.1300439E+00
        -11   -1    0    0    0    0  0.00000000000E+00  0.00000000000E+00  0.45593999997E+02  0.45594000000E+02  0.51100000000E-03 0.  1.
         11   -1    0    0    0    0 -0.00000000000E+00 -0.00000000000E+00 -0.45593999997E+02  0.45594000000E+02  0.51100000000E-03 0. -1.
    9900012    2    1    2    0    0  0.68029120378E+01  0.22975521396E+02  0.32848313958E+02  0.50528856804E+02  0.29999990740E+02 0.  0.
         12    1    1    2    0    0 -0.68029120378E+01 -0.22975521396E+02 -0.32848313958E+02  0.40659143196E+02  0.00000000000E+00 0. -1.
         11    1    3    3    0    0  0.13641380701E+02  0.49352645378E+00  0.13507573925E+02  0.19203785809E+02  0.51100000000E-03 0.  1.
        -11    1    3    3    0    0 -0.47436140123E+01  0.68423543301E+01  0.37115879173E+01  0.91156772544E+01  0.51100000000E-03 0. -1.
        -12    1    3    3    0    0 -0.20948546509E+01  0.15639640612E+02  0.15629152115E+02  0.22209393740E+02  0.00000000000E+00 0.  1.
</event>
<event>
 7    1  0.2838209E-011  0.5052885E+02  0.7816164E-02  0.1300439E+00
        -11   -1    0    0    0    0  0.00000000000E+00  0.00000000000E+00  0.45593999997E+02  0.45594000000E+02  0.51100000000E-03 0.  1.
         11   -1    0    0    0    0 -0.00000000000E+00 -0.00000000000E+00 -0.45593999997E+02  0.45594000000E+02  0.51100000000E-03 0. -1.
    9900012    2    1    2    0    0  0.26546233126E+02  0.30374912634E+02  0.50821619411E+01  0.50528853665E+02  0.29999981200E+02 0.  0.
         12    1    1    2    0    0 -0.26546233126E+02 -0.30374912634E+02 -0.50821619411E+01  0.40659146335E+02  0.00000000000E+00 0. -1.
         11    1    3    3    0    0  0.84587846934E+01  0.42033279482E+01  0.12438804901E+01  0.95271319537E+01  0.51100000000E-03 0. -1.
        -11    1    3    3    0    0  0.24487470911E+02  0.18023019905E+02  0.37886993694E+01  0.30640165164E+02  0.51100000000E-03 0.  1.
         12    1    3    3    0    0 -0.64000224778E+01  0.81485647803E+01  0.49582081643E-01  0.10361556547E+02  0.00000000000E+00 0. -1.
</event>
<event>
 7    1  0.2838209E-011  0.5052888E+02  0.7816164E-02  0.1300439E+00
        -11   -1    0    0    0    0  0.00000000000E+00  0.00000000000E+00  0.45593999997E+02  0.45594000000E+02  0.51100000000E-03 0.  1.
         11   -1    0    0    0    0 -0.00000000000E+00 -0.00000000000E+00 -0.45593999997E+02  0.45594000000E+02  0.51100000000E-03 0. -1.
    9900012    2    1    2    0    0  0.31171325780E+01  0.34636400109E+02  0.21065792676E+02  0.50528876189E+02  0.30000049663E+02 0.  0.
         12    1    1    2    0    0 -0.31171325780E+01 -0.34636400109E+02 -0.21065792676E+02  0.40659123811E+02  0.00000000000E+00 0. -1.
         11    1    3    3    0    0 -0.41373640887E+01  0.85687348927E+00  0.36904168222E+01  0.56099189265E+01  0.51100000000E-03 0. -1.
        -11    1    3    3    0    0 -0.25144363455E+01  0.14939107541E+02  0.18200659397E+02  0.23680441867E+02  0.51100000000E-03 0.  1.
        -12    1    3    3    0    0  0.97689330122E+01  0.18840419079E+02 -0.82528354381E+00  0.21238515395E+02  0.00000000000E+00 0.  1.
</event>
<event>
 7    1  0.2838209E-011  0.5052883E+02  0.7816164E-02  0.1300439E+00
        -11   -1    0    0    0    0  0.00000000000E+00  0.00000000000E+00  0.45593999997E+02  0.45594000000E+02  0.51100000000E-03 0.  1.
         11   -1    0    0    0    0 -0.00000000000E+00 -0.00000000000E+00 -0.45593999997E+02  0.45594000000E+02  0.51100000000E-03 0. -1.
    9900012    2    1    2    0    0  0.32113699293E+02  0.21015722381E+02  0.13424538674E+02  0.50528825044E+02  0.29999894205E+02 0.  0.
         12    1    1    2    0    0 -0.32113699293E+02 -0.21015722381E+02 -0.13424538674E+02  0.40659174956E+02  0.00000000000E+00 0. -1.
         11    1    3    3    0    0  0.85716568897E+01  0.62142115151E+00  0.76385129524E+01  0.11498101864E+02  0.51100000000E-03 0. -1.
        -11    1    3    3    0    0  0.77708915971E+01  0.10361381919E+02  0.13591702443E+02  0.18774433868E+02  0.51100000000E-03 0.  1.
        -12    1    3    3    0    0  0.15771150806E+02  0.10032919310E+02 -0.78056767223E+01  0.20256289313E+02  0.00000000000E+00 0.  1.
</event>
<event>
 7    1  0.2838209E-011  0.5052886E+02  0.7816164E-02  0.1300439E+00
        -11   -1    0    0    0    0  0.00000000000E+00  0.00000000000E+00  0.45593999997E+02  0.45594000000E+02  0.51100000000E-03 0.  1.
         11   -1    0    0    0    0 -0.00000000000E+00 -0.00000000000E+00 -0.45593999997E+02  0.45594000000E+02  0.51100000000E-03 0. -1.
    9900012    2    1    2    0    0 -0.39397928941E+02 -0.33449379188E+01  0.94752642303E+01  0.50528855312E+02  0.29999986206E+02 0.  0.
         12    1    1    2    0    0  0.39397928941E+02  0.33449379188E+01 -0.94752642303E+01  0.40659144688E+02  0.00000000000E+00 0. -1.
         11    1    3    3    0    0 -0.76258383294E+01  0.57298633446E+01  0.10951619940E+01  0.96012563880E+01  0.51100000000E-03 0. -1.
        -11    1    3    3    0    0 -0.93869278233E+01  0.41772144434E+01 -0.52732268667E+01  0.11548612744E+02  0.51100000000E-03 0.  1.
        -12    1    3    3    0    0 -0.22385162788E+02 -0.13252015707E+02  0.13653329103E+02  0.29378986180E+02  0.00000000000E+00 0.  1.
</event>
<event>
 7    1  0.2838209E-011  0.5052888E+02  0.7816164E-02  0.1300439E+00
        -11   -1    0    0    0    0  0.00000000000E+00  0.00000000000E+00  0.45593999997E+02  0.45594000000E+02  0.51100000000E-03 0.  1.
         11   -1    0    0    0    0 -0.00000000000E+00 -0.00000000000E+00 -0.45593999997E+02  0.45594000000E+02  0.51100000000E-03 0. -1.
    9900012    2    1    2    0    0  0.75006240639E+01  0.40275363019E-01  0.39961268879E+02  0.50528880557E+02  0.30000062942E+02 0.  0.
         12    1    1    2    0    0 -0.75006240639E+01 -0.40275363019E-01 -0.39961268879E+02  0.40659119443E+02  0.00000000000E+00 0. -1.
         11    1    3    3    0    0  0.27164349262E+01  0.40941160415E+01  0.11997512390E+02  0.12964609854E+02  0.51100000000E-03 0. -1.
        -11    1    3    3    0    0  0.66481858172E+01  0.12842332068E+01  0.30589662633E+02  0.31330098785E+02  0.51100000000E-03 0.  1.
         12    1    3    3    0    0 -0.18639966795E+01 -0.53380738853E+01 -0.26259061441E+01  0.62341719180E+01  0.00000000000E+00 0. -1.
</event>
<event>
 7    1  0.2838209E-011  0.5052886E+02  0.7816164E-02  0.1300439E+00
        -11   -1    0    0    0    0  0.00000000000E+00  0.00000000000E+00  0.45593999997E+02  0.45594000000E+02  0.51100000000E-03 0.  1.
         11   -1    0    0    0    0 -0.00000000000E+00 -0.00000000000E+00 -0.45593999997E+02  0.45594000000E+02  0.51100000000E-03 0. -1.
    9900012    2    1    2    0    0  0.32523406451E+02  0.15177503344E+02  0.19105937550E+02  0.50528862964E+02  0.30000009464E+02 0.  0.
         12    1    1    2    0    0 -0.32523406451E+02 -0.15177503344E+02 -0.19105937550E+02  0.40659137036E+02  0.00000000000E+00 0. -1.
         11    1    3    3    0    0 -0.35115033045E+01 -0.21934100929E+01  0.84962116312E+00  0.42265304536E+01  0.51100000000E-03 0. -1.
        -11    1    3    3    0    0  0.43516820772E+01 -0.26187411030E+01  0.18530176568E+01  0.54063496523E+01  0.51100000000E-03 0.  1.
        -12    1    3    3    0    0  0.31683227678E+02  0.19989654539E+02  0.16403298730E+02  0.40895982858E+02  0.00000000000E+00 0.  1.
</event>
<event>
 7    1  0.2838209E-011  0.5052886E+02  0.7816164E-02  0.1300439E+00
        -11   -1    0    0    0    0  0.00000000000E+00  0.00000000000E+00  0.45593999997E+02  0.45594000000E+02  0.51100000000E-03 0. -1.
         11   -1    0    0    0    0 -0.00000000000E+00 -0.00000000000E+00 -0.45593999997E+02  0.45594000000E+02  0.51100000000E-03 0.  1.
    9900012    2    1    2    0    0  0.35625211716E+02  0.17652854624E+02 -0.85080476500E+01  0.50528857596E+02  0.29999993150E+02 0.  0.
         12    1    1    2    0    0 -0.35625211716E+02 -0.17652854624E+02  0.85080476500E+01  0.40659142404E+02  0.00000000000E+00 0. -1.
         11    1    3    3    0    0  0.24633988371E+02  0.16775232061E+02 -0.13753190502E+02  0.32823650665E+02  0.51100000000E-03 0. -1.
        -11    1    3    3    0    0  0.54926958067E+01  0.34273379643E+01 -0.32700545633E+01  0.72532482279E+01  0.51100000000E-03 0.  1.
         12    1    3    3    0    0  0.54985275383E+01 -0.25497154014E+01  0.85151974149E+01  0.10451958703E+02  0.00000000000E+00 0. -1.
</event>
<event>
 7    1  0.2838209E-011  0.5052888E+02  0.7816164E-02  0.1300439E+00
        -11   -1    0    0    0    0  0.00000000000E+00  0.00000000000E+00  0.45593999997E+02  0.45594000000E+02  0.51100000000E-03 0.  1.
         11   -1    0    0    0    0 -0.00000000000E+00 -0.00000000000E+00 -0.45593999997E+02  0.45594000000E+02  0.51100000000E-03 0. -1.
    9900012    2    1    2    0    0 -0.33532298474E+02  0.22441499096E+02 -0.50128324676E+01  0.50528875416E+02  0.30000047313E+02 0.  0.
         12    1    1    2    0    0  0.33532298474E+02 -0.22441499096E+02  0.50128324676E+01  0.40659124584E+02  0.00000000000E+00 0. -1.
         11    1    3    3    0    0 -0.31636468239E+02  0.76761261482E+01 -0.13517429001E+01  0.32582453014E+02  0.51100000000E-03 0.  1.
        -11    1    3    3    0    0 -0.27642737342E+01  0.25855368215E+00 -0.17664401875E+01  0.32906489453E+01  0.51100000000E-03 0. -1.
        -12    1    3    3    0    0  0.86844349935E+00  0.14506819266E+02 -0.18946493800E+01  0.14655773456E+02  0.00000000000E+00 0.  1.
</event>
<event>
 7    1  0.2838209E-011  0.5052883E+02  0.7816164E-02  0.1300439E+00
        -11   -1    0    0    0    0  0.00000000000E+00  0.00000000000E+00  0.45593999997E+02  0.45594000000E+02  0.51100000000E-03 0.  1.
         11   -1    0    0    0    0 -0.00000000000E+00 -0.00000000000E+00 -0.45593999997E+02  0.45594000000E+02  0.51100000000E-03 0. -1.
    9900012    2    1    2    0    0  0.28018771989E+02 -0.71807988826E+01  0.28575384191E+02  0.50528830824E+02  0.29999911773E+02 0.  0.
         12    1    1    2    0    0 -0.28018771989E+02  0.71807988826E+01 -0.28575384191E+02  0.40659169176E+02  0.00000000000E+00 0. -1.
         11    1    3    3    0    0  0.13545441991E+02  0.40099139038E+01  0.91746518936E+01  0.16844365404E+02  0.51100000000E-03 0. -1.
        -11    1    3    3    0    0  0.11508238835E+02  0.38567084550E+01  0.97010261128E+01  0.15537814167E+02  0.51100000000E-03 0.  1.
         12    1    3    3    0    0  0.29650911638E+01 -0.15047421241E+02  0.96997061848E+01  0.18146651253E+02  0.00000000000E+00 0. -1.
</event>
<event>
 7    1  0.2838209E-011  0.5052885E+02  0.7816164E-02  0.1300439E+00
        -11   -1    0    0    0    0  0.00000000000E+00  0.00000000000E+00  0.45593999997E+02  0.45594000000E+02  0.51100000000E-03 0.  1.
         11   -1    0    0    0    0 -0.00000000000E+00 -0.00000000000E+00 -0.45593999997E+02  0.45594000000E+02  0.51100000000E-03 0. -1.
    9900012    2    1    2    0    0  0.52008063947E+01  0.33900077165E+02  0.21838100356E+02  0.50528852861E+02  0.29999978755E+02 0.  0.
         12    1    1    2    0    0 -0.52008063947E+01 -0.33900077165E+02 -0.21838100356E+02  0.40659147139E+02  0.00000000000E+00 0. -1.
         11    1    3    3    0    0 -0.91608654051E-01  0.93486120866E+00 -0.11079750460E+01  0.14525724039E+01  0.51100000000E-03 0. -1.
        -11    1    3    3    0    0  0.90555276375E+01  0.24447817358E+02  0.19927596098E+01  0.26147073364E+02  0.51100000000E-03 0.  1.
         12    1    3    3    0    0 -0.37631125888E+01  0.85173985985E+01  0.20953315792E+02  0.22929207093E+02  0.00000000000E+00 0. -1.
</event>
<event>
 7    1  0.2838209E-011  0.5052888E+02  0.7816164E-02  0.1300439E+00
        -11   -1    0    0    0    0  0.00000000000E+00  0.00000000000E+00  0.45593999997E+02  0.45594000000E+02  0.51100000000E-03 0. -1.
         11   -1    0    0    0    0 -0.00000000000E+00 -0.00000000000E+00 -0.45593999997E+02  0.45594000000E+02  0.51100000000E-03 0.  1.
    9900012    2    1    2    0    0 -0.32267008062E+02  0.16161897529E+02 -0.18729573071E+02  0.50528884805E+02  0.30000075854E+02 0.  0.
         12    1    1    2    0    0  0.32267008062E+02 -0.16161897529E+02  0.18729573071E+02  0.40659115195E+02  0.00000000000E+00 0. -1.
         11    1    3    3    0    0 -0.17176278233E+02 -0.54133590486E+01 -0.10520545382E+02  0.20856914094E+02  0.51100000000E-03 0. -1.
        -11    1    3    3    0    0 -0.67105568821E+01  0.87738902819E+01 -0.91488397842E+01  0.14342733143E+02  0.51100000000E-03 0.  1.
        -12    1    3    3    0    0 -0.83801729470E+01  0.12801366296E+02  0.93981209514E+00  0.15329237569E+02  0.00000000000E+00 0.  1.
</event>
<event>
 7    1  0.2838209E-011  0.5052886E+02  0.7816164E-02  0.1300439E+00
        -11   -1    0    0    0    0  0.00000000000E+00  0.00000000000E+00  0.45593999997E+02  0.45594000000E+02  0.51100000000E-03 0.  1.
         11   -1    0    0    0    0 -0.00000000000E+00 -0.00000000000E+00 -0.45593999997E+02  0.45594000000E+02  0.51100000000E-03 0. -1.
    9900012    2    1    2    0    0 -0.36894444016E+02  0.30883400609E+01  0.16805599631E+02  0.50528855610E+02  0.29999987112E+02 0.  0.
         12    1    1    2    0    0  0.36894444016E+02 -0.30883400609E+01 -0.16805599631E+02  0.40659144390E+02  0.00000000000E+00 0. -1.
         11    1    3    3    0    0 -0.24993933649E+02  0.95889262188E+01  0.75201479628E+01  0.27806417441E+02  0.51100000000E-03 0. -1.
        -11    1    3    3    0    0 -0.11942081365E+02  0.20969043306E+01  0.58745693331E+01  0.13472968500E+02  0.51100000000E-03 0.  1.
         12    1    3    3    0    0  0.41570997985E-01 -0.85974904885E+01  0.34108823352E+01  0.92494696687E+01  0.00000000000E+00 0. -1.
</event>
<event>
 7    1  0.2838209E-011  0.5052885E+02  0.7816164E-02  0.1300439E+00
        -11   -1    0    0    0    0  0.00000000000E+00  0.00000000000E+00  0.45593999997E+02  0.45594000000E+02  0.51100000000E-03 0.  1.
         11   -1    0    0    0    0 -0.00000000000E+00 -0.00000000000E+00 -0.45593999997E+02  0.45594000000E+02  0.51100000000E-03 0. -1.
    9900012    2    1    2    0    0  0.16193306696E+02  0.26462723653E+02  0.26280546967E+02  0.50528854980E+02  0.29999985197E+02 0.  0.
         12    1    1    2    0    0 -0.16193306696E+02 -0.26462723653E+02 -0.26280546967E+02  0.40659145020E+02  0.00000000000E+00 0. -1.
         11    1    3    3    0    0 -0.16447804548E+01  0.16713395496E+01  0.46821043621E+01  0.52364854772E+01  0.51100000000E-03 0. -1.
        -11    1    3    3    0    0  0.16424696197E+01 -0.30803837649E+01  0.10714644393E+02  0.11268987325E+02  0.51100000000E-03 0.  1.
        -12    1    3    3    0    0  0.16195617531E+02  0.27871767869E+02  0.10883798211E+02  0.34023382178E+02  0.00000000000E+00 0.  1.
</event>
<event>
 7    1  0.2838209E-011  0.5052890E+02  0.7816164E-02  0.1300439E+00
        -11   -1    0    0    0    0  0.00000000000E+00  0.00000000000E+00  0.45593999997E+02  0.45594000000E+02  0.51100000000E-03 0.  1.
         11   -1    0    0    0    0 -0.00000000000E+00 -0.00000000000E+00 -0.45593999997E+02  0.45594000000E+02  0.51100000000E-03 0. -1.
    9900012    2    1    2    0    0  0.20322522891E+01  0.73539705466E+01  0.39936838945E+02  0.50528904620E+02  0.30000136084E+02 0.  0.
         12    1    1    2    0    0 -0.20322522891E+01 -0.73539705466E+01 -0.39936838945E+02  0.40659095380E+02  0.00000000000E+00 0. -1.
         11    1    3    3    0    0 -0.83562947254E+01  0.10523415115E+02  0.18020069811E+02  0.22478719792E+02  0.51100000000E-03 0. -1.
        -11    1    3    3    0    0  0.16538223163E+01  0.44421308562E+01  0.11621686395E+02  0.12551145355E+02  0.51100000000E-03 0.  1.
         12    1    3    3    0    0  0.87347246982E+01 -0.76115754248E+01  0.10295082739E+02  0.15499039474E+02  0.00000000000E+00 0. -1.
</event>
<event>
 7    1  0.2838209E-011  0.5052888E+02  0.7816164E-02  0.1300439E+00
        -11   -1    0    0    0    0  0.00000000000E+00  0.00000000000E+00  0.45593999997E+02  0.45594000000E+02  0.51100000000E-03 0. -1.
         11   -1    0    0    0    0 -0.00000000000E+00 -0.00000000000E+00 -0.45593999997E+02  0.45594000000E+02  0.51100000000E-03 0.  1.
    9900012    2    1    2    0    0  0.34669102493E+02  0.96286011536E+01 -0.18934300148E+02  0.50528876178E+02  0.30000049631E+02 0.  0.
         12    1    1    2    0    0 -0.34669102493E+02 -0.96286011536E+01  0.18934300148E+02  0.40659123822E+02  0.00000000000E+00 0. -1.
         11    1    3    3    0    0 -0.10940247232E+01  0.24793886386E+00  0.10772346749E+01  0.15552487200E+01  0.51100000000E-03 0.  1.
        -11    1    3    3    0    0  0.13869311701E+02  0.86120402714E+01  0.36490350715E+01  0.16728433935E+02  0.51100000000E-03 0. -1.
        -12    1    3    3    0    0  0.21893815516E+02  0.76862201833E+00 -0.23660569894E+02  0.32245193523E+02  0.00000000000E+00 0.  1.
</event>
<event>
 7    1  0.2838209E-011  0.5052887E+02  0.7816164E-02  0.1300439E+00
        -11   -1    0    0    0    0  0.00000000000E+00  0.00000000000E+00  0.45593999997E+02  0.45594000000E+02  0.51100000000E-03 0. -1.
         11   -1    0    0    0    0 -0.00000000000E+00 -0.00000000000E+00 -0.45593999997E+02  0.45594000000E+02  0.51100000000E-03 0.  1.
    9900012    2    1    2    0    0  0.17754067358E+02 -0.21601133076E+01 -0.36514274377E+02  0.50528865350E+02  0.30000016716E+02 0.  0.
         12    1    1    2    0    0 -0.17754067358E+02  0.21601133076E+01  0.36514274377E+02  0.40659134650E+02  0.00000000000E+00 0. -1.
         11    1    3    3    0    0  0.16490893081E+01 -0.89191199907E+01 -0.13280900639E+02  0.16082677607E+02  0.51100000000E-03 0. -1.
        -11    1    3    3    0    0  0.12994743018E-02 -0.27276303336E+01 -0.12705170766E+02  0.12994665574E+02  0.51100000000E-03 0.  1.
         12    1    3    3    0    0  0.16103678576E+02  0.94866370167E+01 -0.10528202972E+02  0.21451522169E+02  0.00000000000E+00 0. -1.
</event>
<event>
 7    1  0.2838209E-011  0.5052886E+02  0.7816164E-02  0.1300439E+00
        -11   -1    0    0    0    0  0.00000000000E+00  0.00000000000E+00  0.45593999997E+02  0.45594000000E+02  0.51100000000E-03 0. -1.
         11   -1    0    0    0    0 -0.00000000000E+00 -0.00000000000E+00 -0.45593999997E+02  0.45594000000E+02  0.51100000000E-03 0.  1.
    9900012    2    1    2    0    0  0.30455032004E+01 -0.40409393213E+02  0.33123282251E+01  0.50528859971E+02  0.30000000368E+02 0.  0.
         12    1    1    2    0    0 -0.30455032004E+01  0.40409393213E+02 -0.33123282251E+01  0.40659140029E+02  0.00000000000E+00 0. -1.
         11    1    3    3    0    0  0.42475845219E+01 -0.97414821906E+01 -0.46957072082E-01  0.10627354081E+02  0.51100000000E-03 0. -1.
        -11    1    3    3    0    0  0.20311684633E+01 -0.31673020270E+02  0.92922311222E+01  0.33070400933E+02  0.51100000000E-03 0.  1.
         12    1    3    3    0    0 -0.32332497848E+01  0.10051092475E+01 -0.59329458250E+01  0.68311049569E+01  0.00000000000E+00 0. -1.
</event>
<event>
 7    1  0.2838209E-011  0.5052885E+02  0.7816164E-02  0.1300439E+00
        -11   -1    0    0    0    0  0.00000000000E+00  0.00000000000E+00  0.45593999997E+02  0.45594000000E+02  0.51100000000E-03 0. -1.
         11   -1    0    0    0    0 -0.00000000000E+00 -0.00000000000E+00 -0.45593999997E+02  0.45594000000E+02  0.51100000000E-03 0.  1.
    9900012    2    1    2    0    0  0.14262095040E+01 -0.22937284483E+02 -0.33541215263E+02  0.50528853251E+02  0.29999979943E+02 0.  0.
         12    1    1    2    0    0 -0.14262095040E+01  0.22937284483E+02  0.33541215263E+02  0.40659146749E+02  0.00000000000E+00 0. -1.
         11    1    3    3    0    0 -0.37006911433E+01 -0.21800212921E+02 -0.21663468229E+02  0.30955617492E+02  0.51100000000E-03 0. -1.
        -11    1    3    3    0    0  0.41753901334E+01 -0.73450222312E+01 -0.98420901614E+01  0.12971120744E+02  0.51100000000E-03 0.  1.
         12    1    3    3    0    0  0.95151051397E+00  0.62079506694E+01 -0.20356568725E+01  0.66021150153E+01  0.00000000000E+00 0. -1.
</event>
<event>
 7    1  0.2838209E-011  0.5052886E+02  0.7816164E-02  0.1300439E+00
        -11   -1    0    0    0    0  0.00000000000E+00  0.00000000000E+00  0.45593999997E+02  0.45594000000E+02  0.51100000000E-03 0.  1.
         11   -1    0    0    0    0 -0.00000000000E+00 -0.00000000000E+00 -0.45593999997E+02  0.45594000000E+02  0.51100000000E-03 0. -1.
    9900012    2    1    2    0    0 -0.11062248667E+01  0.35566193532E+02  0.19671996894E+02  0.50528864279E+02  0.30000013461E+02 0.  0.
         12    1    1    2    0    0  0.11062248667E+01 -0.35566193532E+02 -0.19671996894E+02  0.40659135721E+02  0.00000000000E+00 0. -1.
         11    1    3    3    0    0  0.38557035389E+01  0.93567873755E+00 -0.26817338743E+01  0.47889081546E+01  0.51100000000E-03 0. -1.
        -11    1    3    3    0    0 -0.63582111451E+00  0.23048252944E+02  0.36869501773E+01  0.23349942915E+02  0.51100000000E-03 0.  1.
         12    1    3    3    0    0 -0.43261072911E+01  0.11582261850E+02  0.18666780591E+02  0.22390013209E+02  0.00000000000E+00 0. -1.
</event>
<event>
 7    1  0.2838209E-011  0.5052886E+02  0.7816164E-02  0.1300439E+00
        -11   -1    0    0    0    0  0.00000000000E+00  0.00000000000E+00  0.45593999997E+02  0.45594000000E+02  0.51100000000E-03 0.  1.
         11   -1    0    0    0    0 -0.00000000000E+00 -0.00000000000E+00 -0.45593999997E+02  0.45594000000E+02  0.51100000000E-03 0. -1.
    9900012    2    1    2    0    0 -0.26576167369E+02 -0.18965822792E+01  0.30712799142E+02  0.50528859238E+02  0.29999998140E+02 0.  0.
         12    1    1    2    0    0  0.26576167369E+02  0.18965822792E+01 -0.30712799142E+02  0.40659140762E+02  0.00000000000E+00 0. -1.
         11    1    3    3    0    0 -0.40482620347E+01  0.25090467301E+01  0.50088315541E+01  0.69117389125E+01  0.51100000000E-03 0. -1.
        -11    1    3    3    0    0 -0.13331945404E+02 -0.47215571453E+01  0.30221006852E+02  0.33366796753E+02  0.51100000000E-03 0.  1.
         12    1    3    3    0    0 -0.91959599302E+01  0.31592813595E+00 -0.45170392648E+01  0.10250323573E+02  0.00000000000E+00 0. -1.
</event>
<event>
 7    1  0.2838209E-011  0.5052886E+02  0.7816164E-02  0.1300439E+00
        -11   -1    0    0    0    0  0.00000000000E+00  0.00000000000E+00  0.45593999997E+02  0.45594000000E+02  0.51100000000E-03 0.  1.
         11   -1    0    0    0    0 -0.00000000000E+00 -0.00000000000E+00 -0.45593999997E+02  0.45594000000E+02  0.51100000000E-03 0. -1.
    9900012    2    1    2    0    0  0.81291855118E+00 -0.27333765484E+02  0.30089373808E+02  0.50528856031E+02  0.29999988391E+02 0.  0.
         12    1    1    2    0    0 -0.81291855118E+00  0.27333765484E+02 -0.30089373808E+02  0.40659143969E+02  0.00000000000E+00 0. -1.
         11    1    3    3    0    0 -0.17863604653E+01 -0.18577364524E+02  0.25716979822E+02  0.31775345912E+02  0.51100000000E-03 0. -1.
        -11    1    3    3    0    0  0.42404546533E+01 -0.36733799838E+01  0.97024110933E+01  0.11207674043E+02  0.51100000000E-03 0.  1.
         12    1    3    3    0    0 -0.16411756369E+01 -0.50830209767E+01 -0.53300171074E+01  0.75458360760E+01  0.00000000000E+00 0. -1.
</event>
<event>
 7    1  0.2838209E-011  0.5052887E+02  0.7816164E-02  0.1300439E+00
        -11   -1    0    0    0    0  0.00000000000E+00  0.00000000000E+00  0.45593999997E+02  0.45594000000E+02  0.51100000000E-03 0.  1.
         11   -1    0    0    0    0 -0.00000000000E+00 -0.00000000000E+00 -0.45593999997E+02  0.45594000000E+02  0.51100000000E-03 0. -1.
    9900012    2    1    2    0    0  0.20643462763E+02 -0.19377912644E+02  0.29180617337E+02  0.50528874561E+02  0.30000044717E+02 0.  0.
         12    1    1    2    0    0 -0.20643462763E+02  0.19377912644E+02 -0.29180617337E+02  0.40659125439E+02  0.00000000000E+00 0. -1.
         11    1    3    3    0    0  0.71200911718E+01 -0.85945909077E+01  0.17687997793E+02  0.20914778444E+02  0.51100000000E-03 0. -1.
        -11    1    3    3    0    0  0.17951195749E+02 -0.11623067042E+02  0.54376467948E+01  0.22066017293E+02  0.51100000000E-03 0.  1.
         12    1    3    3    0    0 -0.44278241574E+01  0.83974530598E+00  0.60549727487E+01  0.75480788241E+01  0.00000000000E+00 0. -1.
</event>
<event>
 7    1  0.2838209E-011  0.5052886E+02  0.7816164E-02  0.1300439E+00
        -11   -1    0    0    0    0  0.00000000000E+00  0.00000000000E+00  0.45593999997E+02  0.45594000000E+02  0.51100000000E-03 0.  1.
         11   -1    0    0    0    0 -0.00000000000E+00 -0.00000000000E+00 -0.45593999997E+02  0.45594000000E+02  0.51100000000E-03 0. -1.
    9900012    2    1    2    0    0 -0.33383956959E+02  0.51663059559E+01  0.22627115254E+02  0.50528860263E+02  0.30000001255E+02 0.  0.
         12    1    1    2    0    0  0.33383956959E+02 -0.51663059559E+01 -0.22627115254E+02  0.40659139737E+02  0.00000000000E+00 0. -1.
         11    1    3    3    0    0  0.19333034285E+01 -0.38286166312E+01 -0.13657234980E+00  0.42912258998E+01  0.51100000000E-03 0. -1.
        -11    1    3    3    0    0 -0.93881676399E+01 -0.20454474141E+01 -0.60506351001E+00  0.96274424886E+01  0.51100000000E-03 0.  1.
        -12    1    3    3    0    0 -0.25929092747E+02  0.11040370001E+02  0.23368751114E+02  0.36610191874E+02  0.00000000000E+00 0.  1.
</event>
<event>
 7    1  0.2838209E-011  0.5052886E+02  0.7816164E-02  0.1300439E+00
        -11   -1    0    0    0    0  0.00000000000E+00  0.00000000000E+00  0.45593999997E+02  0.45594000000E+02  0.51100000000E-03 0. -1.
         11   -1    0    0    0    0 -0.00000000000E+00 -0.00000000000E+00 -0.45593999997E+02  0.45594000000E+02  0.51100000000E-03 0.  1.
    9900012    2    1    2    0    0 -0.69581433217E+01  0.13206773620E+02 -0.37819713719E+02  0.50528863589E+02  0.30000011365E+02 0.  0.
         12    1    1    2    0    0  0.69581433217E+01 -0.13206773620E+02  0.37819713719E+02  0.40659136411E+02  0.00000000000E+00 0. -1.
         11    1    3    3    0    0 -0.47864651430E+01  0.13122210436E+02 -0.14047008107E+02  0.19809621205E+02  0.51100000000E-03 0. -1.
        -11    1    3    3    0    0  0.98041773070E-01  0.94302045524E+01 -0.86464821259E+01  0.12794531000E+02  0.51100000000E-03 0.  1.
        -12    1    3    3    0    0 -0.22697199518E+01 -0.93456413683E+01 -0.15126223486E+02  0.17924711384E+02  0.00000000000E+00 0.  1.
</event>
<event>
 7    1  0.2838209E-011  0.5052887E+02  0.7816164E-02  0.1300439E+00
        -11   -1    0    0    0    0  0.00000000000E+00  0.00000000000E+00  0.45593999997E+02  0.45594000000E+02  0.51100000000E-03 0.  1.
         11   -1    0    0    0    0 -0.00000000000E+00 -0.00000000000E+00 -0.45593999997E+02  0.45594000000E+02  0.51100000000E-03 0. -1.
    9900012    2    1    2    0    0 -0.13972913499E+02  0.37593748307E+02  0.66807877845E+01  0.50528866354E+02  0.30000019771E+02 0.  0.
         12    1    1    2    0    0  0.13972913499E+02 -0.37593748307E+02 -0.66807877845E+01  0.40659133646E+02  0.00000000000E+00 0. -1.
         11    1    3    3    0    0  0.57821732003E+01  0.10470194528E+02  0.30313834856E+01  0.12338872982E+02  0.51100000000E-03 0. -1.
        -11    1    3    3    0    0 -0.20771771297E+02  0.25471979533E+02  0.76480595111E+01  0.33745829945E+02  0.51100000000E-03 0.  1.
         12    1    3    3    0    0  0.10166845976E+01  0.16515742457E+01 -0.39986552123E+01  0.44441634271E+01  0.00000000000E+00 0. -1.
</event>
<event>
 7    1  0.2838209E-011  0.5052888E+02  0.7816164E-02  0.1300439E+00
        -11   -1    0    0    0    0  0.00000000000E+00  0.00000000000E+00  0.45593999997E+02  0.45594000000E+02  0.51100000000E-03 0.  1.
         11   -1    0    0    0    0 -0.00000000000E+00 -0.00000000000E+00 -0.45593999997E+02  0.45594000000E+02  0.51100000000E-03 0. -1.
    9900012    2    1    2    0    0 -0.76242585475E+01 -0.11931970945E+02  0.38113817547E+02  0.50528876337E+02  0.30000050113E+02 0.  0.
         12    1    1    2    0    0  0.76242585475E+01  0.11931970945E+02 -0.38113817547E+02  0.40659123663E+02  0.00000000000E+00 0. -1.
         11    1    3    3    0    0 -0.94194597110E+01  0.64951146326E+01  0.12193289879E+02  0.16720916652E+02  0.51100000000E-03 0. -1.
        -11    1    3    3    0    0 -0.34217776642E+01 -0.11143471435E+02  0.19735795264E+02  0.22921324852E+02  0.51100000000E-03 0.  1.
        -12    1    3    3    0    0  0.52169788277E+01 -0.72836141430E+01  0.61847324044E+01  0.10886634833E+02  0.00000000000E+00 0.  1.
</event>
<event>
 7    1  0.2838209E-011  0.5052886E+02  0.7816164E-02  0.1300439E+00
        -11   -1    0    0    0    0  0.00000000000E+00  0.00000000000E+00  0.45593999997E+02  0.45594000000E+02  0.51100000000E-03 0. -1.
         11   -1    0    0    0    0 -0.00000000000E+00 -0.00000000000E+00 -0.45593999997E+02  0.45594000000E+02  0.51100000000E-03 0.  1.
    9900012    2    1    2    0    0 -0.16883247726E+02  0.28017020879E+02 -0.24148877788E+02  0.50528858210E+02  0.29999995014E+02 0.  0.
         12    1    1    2    0    0  0.16883247726E+02 -0.28017020879E+02  0.24148877788E+02  0.40659141790E+02  0.00000000000E+00 0. -1.
         11    1    3    3    0    0 -0.35250181254E+01  0.31809236885E+00  0.40473993978E+01  0.53766511591E+01  0.51100000000E-03 0. -1.
        -11    1    3    3    0    0  0.30947412934E+00  0.37115373307E+00  0.20812427717E+01  0.21366097132E+01  0.51100000000E-03 0.  1.
        -12    1    3    3    0    0 -0.13667703729E+02  0.27327774777E+02 -0.30277519958E+02  0.43015597337E+02  0.00000000000E+00 0.  1.
</event>
<event>
 7    1  0.2838209E-011  0.5052887E+02  0.7816164E-02  0.1300439E+00
        -11   -1    0    0    0    0  0.00000000000E+00  0.00000000000E+00  0.45593999997E+02  0.45594000000E+02  0.51100000000E-03 0. -1.
         11   -1    0    0    0    0 -0.00000000000E+00 -0.00000000000E+00 -0.45593999997E+02  0.45594000000E+02  0.51100000000E-03 0.  1.
    9900012    2    1    2    0    0 -0.35122868161E+02 -0.18619814944E+02 -0.85353147074E+01  0.50528868510E+02  0.30000026322E+02 0.  0.
         12    1    1    2    0    0  0.35122868161E+02  0.18619814944E+02  0.85353147074E+01  0.40659131490E+02  0.00000000000E+00 0. -1.
         11    1    3    3    0    0 -0.41740977953E+01  0.15283103441E+01 -0.82480876438E+01  0.93696197870E+01  0.51100000000E-03 0. -1.
        -11    1    3    3    0    0 -0.17011938747E+02 -0.19487400935E+01  0.45807035095E+01  0.17725306564E+02  0.51100000000E-03 0.  1.
        -12    1    3    3    0    0 -0.13936831618E+02 -0.18199385195E+02 -0.48679305730E+01  0.23433942158E+02  0.00000000000E+00 0.  1.
</event>
<event>
 7    1  0.2838209E-011  0.5052886E+02  0.7816164E-02  0.1300439E+00
        -11   -1    0    0    0    0  0.00000000000E+00  0.00000000000E+00  0.45593999997E+02  0.45594000000E+02  0.51100000000E-03 0.  1.
         11   -1    0    0    0    0 -0.00000000000E+00 -0.00000000000E+00 -0.45593999997E+02  0.45594000000E+02  0.51100000000E-03 0. -1.
    9900012    2    1    2    0    0  0.26057919822E+02 -0.24448232025E+02  0.19401920435E+02  0.50528858947E+02  0.29999997254E+02 0.  0.
         12    1    1    2    0    0 -0.26057919822E+02  0.24448232025E+02 -0.19401920435E+02  0.40659141053E+02  0.00000000000E+00 0. -1.
         11    1    3    3    0    0  0.11568694440E+02 -0.40294506849E+01  0.43590234519E+01  0.13002778533E+02  0.51100000000E-03 0. -1.
        -11    1    3    3    0    0  0.18368846446E+02 -0.14733012145E+02  0.18384872512E+02  0.29874398809E+02  0.51100000000E-03 0.  1.
        -12    1    3    3    0    0 -0.38796210636E+01 -0.56857691960E+01 -0.33419755294E+01  0.76516816051E+01  0.00000000000E+00 0.  1.
</event>
<event>
 7    1  0.2838209E-011  0.5052886E+02  0.7816164E-02  0.1300439E+00
        -11   -1    0    0    0    0  0.00000000000E+00  0.00000000000E+00  0.45593999997E+02  0.45594000000E+02  0.51100000000E-03 0. -1.
         11   -1    0    0    0    0 -0.00000000000E+00 -0.00000000000E+00 -0.45593999997E+02  0.45594000000E+02  0.51100000000E-03 0.  1.
    9900012    2    1    2    0    0  0.35593430119E+02 -0.14484582247E+02 -0.13284226761E+02  0.50528855012E+02  0.29999985294E+02 0.  0.
         12    1    1    2    0    0 -0.35593430119E+02  0.14484582247E+02  0.13284226761E+02  0.40659144988E+02  0.00000000000E+00 0. -1.
         11    1    3    3    0    0  0.44140834171E+01 -0.76354347123E+00 -0.97189545489E+01  0.10701645146E+02  0.51100000000E-03 0. -1.
        -11    1    3    3    0    0 -0.12250126040E+01 -0.54055900013E+00 -0.46389737058E+01  0.48283472552E+01  0.51100000000E-03 0.  1.
         12    1    3    3    0    0  0.32404359306E+02 -0.13180479775E+02  0.10737014937E+01  0.34998862611E+02  0.00000000000E+00 0. -1.
</event>
<event>
 7    1  0.2838209E-011  0.5052887E+02  0.7816164E-02  0.1300439E+00
        -11   -1    0    0    0    0  0.00000000000E+00  0.00000000000E+00  0.45593999997E+02  0.45594000000E+02  0.51100000000E-03 0.  1.
         11   -1    0    0    0    0 -0.00000000000E+00 -0.00000000000E+00 -0.45593999997E+02  0.45594000000E+02  0.51100000000E-03 0. -1.
    9900012    2    1    2    0    0  0.12646387602E+02  0.17264069374E+02  0.34571459161E+02  0.50528868193E+02  0.30000025360E+02 0.  0.
         12    1    1    2    0    0 -0.12646387602E+02 -0.17264069374E+02 -0.34571459161E+02  0.40659131807E+02  0.00000000000E+00 0. -1.
         11    1    3    3    0    0 -0.19081009174E+01 -0.40404648499E+01  0.35254007227E+01  0.56916303316E+01  0.51100000000E-03 0. -1.
        -11    1    3    3    0    0 -0.12453017280E+01  0.75545115524E+01  0.19435750403E+02  0.20889466608E+02  0.51100000000E-03 0.  1.
        -12    1    3    3    0    0  0.15799790247E+02  0.13750022672E+02  0.11610308036E+02  0.23947771254E+02  0.00000000000E+00 0.  1.
</event>
<event>
 7    1  0.2838209E-011  0.5052886E+02  0.7816164E-02  0.1300439E+00
        -11   -1    0    0    0    0  0.00000000000E+00  0.00000000000E+00  0.45593999997E+02  0.45594000000E+02  0.51100000000E-03 0.  1.
         11   -1    0    0    0    0 -0.00000000000E+00 -0.00000000000E+00 -0.45593999997E+02  0.45594000000E+02  0.51100000000E-03 0. -1.
    9900012    2    1    2    0    0  0.45282081232E+01 -0.38106481508E+02  0.13437150302E+02  0.50528860683E+02  0.30000002532E+02 0.  0.
         12    1    1    2    0    0 -0.45282081232E+01  0.38106481508E+02 -0.13437150302E+02  0.40659139317E+02  0.00000000000E+00 0. -1.
         11    1    3    3    0    0  0.15706816292E+01  0.30557766836E+01  0.20077713887E+01  0.39794419371E+01  0.51100000000E-03 0. -1.
        -11    1    3    3    0    0  0.34793851871E+01 -0.16522722078E-01 -0.89817570526E+00  0.35934821746E+01  0.51100000000E-03 0.  1.
        -12    1    3    3    0    0 -0.52185869309E+00 -0.41145735470E+02  0.12327554619E+02  0.42955936571E+02  0.00000000000E+00 0.  1.
</event>
<event>
 7    1  0.2838209E-011  0.5052887E+02  0.7816164E-02  0.1300439E+00
        -11   -1    0    0    0    0  0.00000000000E+00  0.00000000000E+00  0.45593999997E+02  0.45594000000E+02  0.51100000000E-03 0.  1.
         11   -1    0    0    0    0 -0.00000000000E+00 -0.00000000000E+00 -0.45593999997E+02  0.45594000000E+02  0.51100000000E-03 0. -1.
    9900012    2    1    2    0    0 -0.34562291128E+02  0.14742931772E+02 -0.15532513262E+02  0.50528868510E+02  0.30000026324E+02 0.  0.
         12    1    1    2    0    0  0.34562291128E+02 -0.14742931772E+02  0.15532513262E+02  0.40659131490E+02  0.00000000000E+00 0. -1.
         11    1    3    3    0    0 -0.92213258958E+01  0.11642003091E+01 -0.49333812932E+01  0.10522664343E+02  0.51100000000E-03 0. -1.
        -11    1    3    3    0    0 -0.28113349732E+02  0.98528767343E+01 -0.15443850575E+01  0.29829930247E+02  0.51100000000E-03 0.  1.
         12    1    3    3    0    0  0.27723844995E+01  0.37258547290E+01 -0.90547469109E+01  0.10176273920E+02  0.00000000000E+00 0. -1.
</event>
<event>
 7    1  0.2838209E-011  0.5052887E+02  0.7816164E-02  0.1300439E+00
        -11   -1    0    0    0    0  0.00000000000E+00  0.00000000000E+00  0.45593999997E+02  0.45594000000E+02  0.51100000000E-03 0.  1.
         11   -1    0    0    0    0 -0.00000000000E+00 -0.00000000000E+00 -0.45593999997E+02  0.45594000000E+02  0.51100000000E-03 0. -1.
    9900012    2    1    2    0    0 -0.19894046063E+02 -0.29436210072E+02  0.19771230686E+02  0.50528867016E+02  0.30000021783E+02 0.  0.
         12    1    1    2    0    0  0.19894046063E+02  0.29436210072E+02 -0.19771230686E+02  0.40659132984E+02  0.00000000000E+00 0. -1.
         11    1    3    3    0    0 -0.35595916571E+01  0.22307523412E+01  0.91898168764E+01  0.10104438790E+02  0.51100000000E-03 0. -1.
        -11    1    3    3    0    0  0.17112966250E+01 -0.10432414733E+02  0.60828475019E+01  0.12196919583E+02  0.51100000000E-03 0.  1.
         12    1    3    3    0    0 -0.18045751031E+02 -0.21234547680E+02  0.44985663074E+01  0.28227508644E+02  0.00000000000E+00 0. -1.
</event>
<event>
 7    1  0.2838209E-011  0.5052889E+02  0.7816164E-02  0.1300439E+00
        -11   -1    0    0    0    0  0.00000000000E+00  0.00000000000E+00  0.45593999997E+02  0.45594000000E+02  0.51100000000E-03 0.  1.
         11   -1    0    0    0    0 -0.00000000000E+00 -0.00000000000E+00 -0.45593999997E+02  0.45594000000E+02  0.51100000000E-03 0. -1.
    9900012    2    1    2    0    0 -0.11238035987E+02 -0.36156075426E+02 -0.14819181326E+02  0.50528888128E+02  0.30000085953E+02 0.  0.
         12    1    1    2    0    0  0.11238035987E+02  0.36156075426E+02  0.14819181326E+02  0.40659111872E+02  0.00000000000E+00 0. -1.
         11    1    3    3    0    0  0.40445426889E+01 -0.10190488889E+01  0.12549015284E+00  0.41728328794E+01  0.51100000000E-03 0.  1.
        -11    1    3    3    0    0  0.27249682926E+01  0.89700761699E+00  0.99152431434E+00  0.30353246264E+01  0.51100000000E-03 0. -1.
        -12    1    3    3    0    0 -0.18007546969E+02 -0.36034034154E+02 -0.15936195793E+02  0.43320730622E+02  0.00000000000E+00 0.  1.
</event>
<event>
 7    1  0.2838209E-011  0.5052886E+02  0.7816164E-02  0.1300439E+00
        -11   -1    0    0    0    0  0.00000000000E+00  0.00000000000E+00  0.45593999997E+02  0.45594000000E+02  0.51100000000E-03 0.  1.
         11   -1    0    0    0    0 -0.00000000000E+00 -0.00000000000E+00 -0.45593999997E+02  0.45594000000E+02  0.51100000000E-03 0. -1.
    9900012    2    1    2    0    0 -0.21557420217E+02  0.20120201936E+02  0.27993233068E+02  0.50528856010E+02  0.29999988328E+02 0.  0.
         12    1    1    2    0    0  0.21557420217E+02 -0.20120201936E+02 -0.27993233068E+02  0.40659143990E+02  0.00000000000E+00 0. -1.
         11    1    3    3    0    0 -0.18913495475E+02  0.85449154954E+01  0.13477619229E+02  0.24746355535E+02  0.51100000000E-03 0.  1.
        -11    1    3    3    0    0  0.60090416550E+01  0.21907434967E+00  0.94879972391E+00  0.60874293720E+01  0.51100000000E-03 0. -1.
         12    1    3    3    0    0 -0.86529663972E+01  0.11356212091E+02  0.13566814115E+02  0.19695071103E+02  0.00000000000E+00 0. -1.
</event>
<event>
 7    1  0.2838209E-011  0.5052888E+02  0.7816164E-02  0.1300439E+00
        -11   -1    0    0    0    0  0.00000000000E+00  0.00000000000E+00  0.45593999997E+02  0.45594000000E+02  0.51100000000E-03 0.  1.
         11   -1    0    0    0    0 -0.00000000000E+00 -0.00000000000E+00 -0.45593999997E+02  0.45594000000E+02  0.51100000000E-03 0. -1.
    9900012    2    1    2    0    0  0.18626896578E+02 -0.44221229745E+01  0.35869875801E+02  0.50528875099E+02  0.30000046352E+02 0.  0.
         12    1    1    2    0    0 -0.18626896578E+02  0.44221229745E+01 -0.35869875801E+02  0.40659124901E+02  0.00000000000E+00 0. -1.
         11    1    3    3    0    0  0.25791989797E+01  0.17807199405E+01  0.10151874548E+02  0.10624678253E+02  0.51100000000E-03 0. -1.
        -11    1    3    3    0    0  0.32028281410E+01 -0.54348745721E+01  0.26277612152E+02  0.27024227471E+02  0.51100000000E-03 0.  1.
         12    1    3    3    0    0  0.12844869457E+02 -0.76796834287E+00 -0.55961089961E+00  0.12879969376E+02  0.00000000000E+00 0. -1.
</event>
<event>
 7    1  0.2838209E-011  0.5052887E+02  0.7816164E-02  0.1300439E+00
        -11   -1    0    0    0    0  0.00000000000E+00  0.00000000000E+00  0.45593999997E+02  0.45594000000E+02  0.51100000000E-03 0. -1.
         11   -1    0    0    0    0 -0.00000000000E+00 -0.00000000000E+00 -0.45593999997E+02  0.45594000000E+02  0.51100000000E-03 0.  1.
    9900012    2    1    2    0    0  0.40282543501E+02 -0.47410327802E+01  0.28291219654E+01  0.50528872688E+02  0.30000039021E+02 0.  0.
         12    1    1    2    0    0 -0.40282543501E+02  0.47410327802E+01 -0.28291219654E+01  0.40659127312E+02  0.00000000000E+00 0. -1.
         11    1    3    3    0    0  0.77246839571E+01 -0.17624501150E+01  0.88470743202E+01  0.11876350320E+02  0.51100000000E-03 0. -1.
        -11    1    3    3    0    0  0.26574401969E+02  0.14647952010E+01  0.31912471194E+01  0.26805382359E+02  0.51100000000E-03 0.  1.
         12    1    3    3    0    0  0.59834575746E+01 -0.44433778663E+01 -0.92091994742E+01  0.11847140008E+02  0.00000000000E+00 0. -1.
</event>
<event>
 7    1  0.2838209E-011  0.5052886E+02  0.7816164E-02  0.1300439E+00
        -11   -1    0    0    0    0  0.00000000000E+00  0.00000000000E+00  0.45593999997E+02  0.45594000000E+02  0.51100000000E-03 0.  1.
         11   -1    0    0    0    0 -0.00000000000E+00 -0.00000000000E+00 -0.45593999997E+02  0.45594000000E+02  0.51100000000E-03 0. -1.
    9900012    2    1    2    0    0 -0.29472373670E+02  0.24673951289E+02  0.13256729069E+02  0.50528861451E+02  0.30000004867E+02 0.  0.
         12    1    1    2    0    0  0.29472373670E+02 -0.24673951289E+02 -0.13256729069E+02  0.40659138549E+02  0.00000000000E+00 0. -1.
         11    1    3    3    0    0 -0.65753735426E+01  0.13617408507E+02  0.87772160957E+01  0.17484532431E+02  0.51100000000E-03 0. -1.
        -11    1    3    3    0    0 -0.25452574434E+02  0.89942757716E+01  0.80730655609E+01  0.28176318599E+02  0.51100000000E-03 0.  1.
         12    1    3    3    0    0  0.25555743071E+01  0.20622670098E+01 -0.35935525876E+01  0.48680104210E+01  0.00000000000E+00 0. -1.
</event>
<event>
 7    1  0.2838209E-011  0.5052887E+02  0.7816164E-02  0.1300439E+00
        -11   -1    0    0    0    0  0.00000000000E+00  0.00000000000E+00  0.45593999997E+02  0.45594000000E+02  0.51100000000E-03 0.  1.
         11   -1    0    0    0    0 -0.00000000000E+00 -0.00000000000E+00 -0.45593999997E+02  0.45594000000E+02  0.51100000000E-03 0. -1.
    9900012    2    1    2    0    0  0.25920366543E+02  0.94310171328E+01  0.29872311757E+02  0.50528874388E+02  0.30000044189E+02 0.  0.
         12    1    1    2    0    0 -0.25920366543E+02 -0.94310171328E+01 -0.29872311757E+02  0.40659125612E+02  0.00000000000E+00 0. -1.
         11    1    3    3    0    0  0.12441542353E+02  0.95256230666E+00  0.97302600703E+01  0.15823315467E+02  0.51100000000E-03 0. -1.
        -11    1    3    3    0    0  0.13872592121E+02 -0.30526319639E+01  0.18067636605E+02  0.22982751507E+02  0.51100000000E-03 0.  1.
         12    1    3    3    0    0 -0.39376793141E+00  0.11531086790E+02  0.20744150815E+01  0.11722807414E+02  0.00000000000E+00 0. -1.
</event>
<event>
 7    1  0.2838209E-011  0.5052886E+02  0.7816164E-02  0.1300439E+00
        -11   -1    0    0    0    0  0.00000000000E+00  0.00000000000E+00  0.45593999997E+02  0.45594000000E+02  0.51100000000E-03 0. -1.
         11   -1    0    0    0    0 -0.00000000000E+00 -0.00000000000E+00 -0.45593999997E+02  0.45594000000E+02  0.51100000000E-03 0.  1.
    9900012    2    1    2    0    0 -0.17460688878E+02 -0.33047604001E+02 -0.16004565445E+02  0.50528857100E+02  0.29999991641E+02 0.  0.
         12    1    1    2    0    0  0.17460688878E+02  0.33047604001E+02  0.16004565445E+02  0.40659142900E+02  0.00000000000E+00 0. -1.
         11    1    3    3    0    0 -0.67040880092E+01 -0.52050971915E+00 -0.13031191218E+02  0.14663821849E+02  0.51100000000E-03 0. -1.
        -11    1    3    3    0    0 -0.46784579779E+01 -0.29611063258E+01 -0.22474448098E-01  0.55368425195E+01  0.51100000000E-03 0.  1.
         12    1    3    3    0    0 -0.60781428907E+01 -0.29565987956E+02 -0.29508997787E+01  0.30328192731E+02  0.00000000000E+00 0. -1.
</event>
<event>
 7    1  0.2838209E-011  0.5052886E+02  0.7816164E-02  0.1300439E+00
        -11   -1    0    0    0    0  0.00000000000E+00  0.00000000000E+00  0.45593999997E+02  0.45594000000E+02  0.51100000000E-03 0. -1.
         11   -1    0    0    0    0 -0.00000000000E+00 -0.00000000000E+00 -0.45593999997E+02  0.45594000000E+02  0.51100000000E-03 0.  1.
    9900012    2    1    2    0    0  0.35101416454E+02 -0.85219104086E+01 -0.18666364475E+02  0.50528861337E+02  0.30000004520E+02 0.  0.
         12    1    1    2    0    0 -0.35101416454E+02  0.85219104086E+01  0.18666364475E+02  0.40659138663E+02  0.00000000000E+00 0. -1.
         11    1    3    3    0    0  0.26910469381E+02  0.27054387025E+01 -0.53077536722E+01  0.27562021156E+02  0.51100000000E-03 0. -1.
        -11    1    3    3    0    0  0.60756317906E+01 -0.31811922049E+01  0.42044006327E+00  0.68709574011E+01  0.51100000000E-03 0.  1.
         12    1    3    3    0    0  0.21153152821E+01 -0.80461569062E+01 -0.13779050866E+02  0.16095882780E+02  0.00000000000E+00 0. -1.
</event>
<event>
 7    1  0.3525944E-011  0.5052886E+02  0.7816164E-02  0.1300439E+00
        -11   -1    0    0    0    0  0.00000000000E+00  0.00000000000E+00  0.45593999997E+02  0.45594000000E+02  0.51100000000E-03 0.  1.
         11   -1    0    0    0    0 -0.00000000000E+00 -0.00000000000E+00 -0.45593999997E+02  0.45594000000E+02  0.51100000000E-03 0. -1.
    9900012    2    1    2    0    0  0.16189174731E+02 -0.27546393042E+02  0.25145030732E+02  0.50528859347E+02  0.29999998471E+02 0.  0.
         12    1    1    2    0    0 -0.16189174731E+02  0.27546393042E+02 -0.25145030732E+02  0.40659140653E+02  0.00000000000E+00 0. -1.
         11    1    3    3    0    0 -0.18209319751E+01  0.35181719375E+01  0.82710884207E+00  0.40469045377E+01  0.51100000000E-03 0. -1.
        -11    1    3    3    0    0 -0.23404153352E+01 -0.68237366634E+01  0.12605292813E+01  0.73232411077E+01  0.51100000000E-03 0.  1.
        -12    1    3    3    0    0  0.20350522041E+02 -0.24240828316E+02  0.23057392609E+02  0.39158713701E+02  0.00000000000E+00 0.  1.
</event>
<event>
 7    1  0.2838209E-011  0.5052886E+02  0.7816164E-02  0.1300439E+00
        -11   -1    0    0    0    0  0.00000000000E+00  0.00000000000E+00  0.45593999997E+02  0.45594000000E+02  0.51100000000E-03 0.  1.
         11   -1    0    0    0    0 -0.00000000000E+00 -0.00000000000E+00 -0.45593999997E+02  0.45594000000E+02  0.51100000000E-03 0. -1.
    9900012    2    1    2    0    0  0.41337812953E+01  0.38585859105E+02  0.12132966997E+02  0.50528861312E+02  0.30000004445E+02 0.  0.
         12    1    1    2    0    0 -0.41337812953E+01 -0.38585859105E+02 -0.12132966997E+02  0.40659138688E+02  0.00000000000E+00 0. -1.
         11    1    3    3    0    0 -0.79306341213E+01  0.61116392185E+01 -0.15072773741E+01  0.10125165522E+02  0.51100000000E-03 0.  1.
        -11    1    3    3    0    0 -0.28956138278E+01  0.80402977961E+00  0.10131564115E+01  0.31713608280E+01  0.51100000000E-03 0. -1.
        -12    1    3    3    0    0  0.14960029244E+02  0.31670190107E+02  0.12627087959E+02  0.37232334962E+02  0.00000000000E+00 0.  1.
</event>
<event>
 7    1  0.2838209E-011  0.5052887E+02  0.7816164E-02  0.1300439E+00
        -11   -1    0    0    0    0  0.00000000000E+00  0.00000000000E+00  0.45593999997E+02  0.45594000000E+02  0.51100000000E-03 0.  1.
         11   -1    0    0    0    0 -0.00000000000E+00 -0.00000000000E+00 -0.45593999997E+02  0.45594000000E+02  0.51100000000E-03 0. -1.
    9900012    2    1    2    0    0 -0.36688469009E+02  0.16898428371E+02  0.46437096558E+01  0.50528872132E+02  0.30000037332E+02 0.  0.
         12    1    1    2    0    0  0.36688469009E+02 -0.16898428371E+02 -0.46437096558E+01  0.40659127868E+02  0.00000000000E+00 0. -1.
         11    1    3    3    0    0 -0.58920974492E+01  0.57190549932E+01  0.47986480754E+01  0.95105954587E+01  0.51100000000E-03 0. -1.
        -11    1    3    3    0    0 -0.19769728438E+02  0.18228494188E+02  0.42181042936E+01  0.27219709164E+02  0.51100000000E-03 0.  1.
        -12    1    3    3    0    0 -0.11026643121E+02 -0.70491208104E+01 -0.43730427132E+01  0.13798567509E+02  0.00000000000E+00 0.  1.
</event>
<event>
 7    1  0.2838209E-011  0.5052886E+02  0.7816164E-02  0.1300439E+00
        -11   -1    0    0    0    0  0.00000000000E+00  0.00000000000E+00  0.45593999997E+02  0.45594000000E+02  0.51100000000E-03 0.  1.
         11   -1    0    0    0    0 -0.00000000000E+00 -0.00000000000E+00 -0.45593999997E+02  0.45594000000E+02  0.51100000000E-03 0. -1.
    9900012    2    1    2    0    0 -0.27320225083E+02  0.17890235694E+02  0.24222109971E+02  0.50528857815E+02  0.29999993815E+02 0.  0.
         12    1    1    2    0    0  0.27320225083E+02 -0.17890235694E+02 -0.24222109971E+02  0.40659142185E+02  0.00000000000E+00 0. -1.
         11    1    3    3    0    0  0.35401555828E+00  0.49935930726E+00 -0.60104324146E+00  0.85786943790E+00  0.51100000000E-03 0. -1.
        -11    1    3    3    0    0 -0.14731564743E+02  0.37161775540E+01  0.26730151795E+02  0.30746219127E+02  0.51100000000E-03 0.  1.
        -12    1    3    3    0    0 -0.12942675899E+02  0.13674698833E+02 -0.19069985824E+01  0.18924769250E+02  0.00000000000E+00 0.  1.
</event>
<event>
 7    1  0.2838209E-011  0.5052886E+02  0.7816164E-02  0.1300439E+00
        -11   -1    0    0    0    0  0.00000000000E+00  0.00000000000E+00  0.45593999997E+02  0.45594000000E+02  0.51100000000E-03 0. -1.
         11   -1    0    0    0    0 -0.00000000000E+00 -0.00000000000E+00 -0.45593999997E+02  0.45594000000E+02  0.51100000000E-03 0.  1.
    9900012    2    1    2    0    0  0.92832712761E+01  0.29133514625E+01 -0.39477823832E+02  0.50528864288E+02  0.30000013491E+02 0.  0.
         12    1    1    2    0    0 -0.92832712761E+01 -0.29133514625E+01  0.39477823832E+02  0.40659135712E+02  0.00000000000E+00 0. -1.
         11    1    3    3    0    0  0.55008157050E+01 -0.76985427292E+01 -0.16604496781E+02  0.19111144581E+02  0.51100000000E-03 0. -1.
        -11    1    3    3    0    0  0.33018953595E+01 -0.12730986538E+01 -0.18356159140E+02  0.18694166784E+02  0.51100000000E-03 0.  1.
         12    1    3    3    0    0  0.48056021162E+00  0.11884992845E+02 -0.45171679109E+01  0.12723552923E+02  0.00000000000E+00 0. -1.
</event>
<event>
 7    1  0.2838209E-011  0.5052886E+02  0.7816164E-02  0.1300439E+00
        -11   -1    0    0    0    0  0.00000000000E+00  0.00000000000E+00  0.45593999997E+02  0.45594000000E+02  0.51100000000E-03 0. -1.
         11   -1    0    0    0    0 -0.00000000000E+00 -0.00000000000E+00 -0.45593999997E+02  0.45594000000E+02  0.51100000000E-03 0.  1.
    9900012    2    1    2    0    0  0.19865643801E+02 -0.35475508474E+02  0.10211465830E+00  0.50528856717E+02  0.29999990477E+02 0.  0.
         12    1    1    2    0    0 -0.19865643801E+02  0.35475508474E+02 -0.10211465830E+00  0.40659143283E+02  0.00000000000E+00 0. -1.
         11    1    3    3    0    0  0.21043411749E+01  0.51870380155E+00  0.28910381966E+01  0.36132267476E+01  0.51100000000E-03 0. -1.
        -11    1    3    3    0    0  0.10508761407E+02 -0.98190344398E+01  0.93613497681E+01  0.17160488728E+02  0.51100000000E-03 0.  1.
        -12    1    3    3    0    0  0.72525412184E+01 -0.26175177836E+02 -0.12150273306E+02  0.29755141241E+02  0.00000000000E+00 0.  1.
</event>
<event>
 7    1  0.2838209E-011  0.5052885E+02  0.7816164E-02  0.1300439E+00
        -11   -1    0    0    0    0  0.00000000000E+00  0.00000000000E+00  0.45593999997E+02  0.45594000000E+02  0.51100000000E-03 0. -1.
         11   -1    0    0    0    0 -0.00000000000E+00 -0.00000000000E+00 -0.45593999997E+02  0.45594000000E+02  0.51100000000E-03 0.  1.
    9900012    2    1    2    0    0 -0.36057551980E+02  0.20616180562E+01 -0.18675355585E+02  0.50528853058E+02  0.29999979355E+02 0.  0.
         12    1    1    2    0    0  0.36057551980E+02 -0.20616180562E+01  0.18675355585E+02  0.40659146942E+02  0.00000000000E+00 0. -1.
         11    1    3    3    0    0 -0.10417564428E+02 -0.30349240019E+01 -0.11264422802E+02  0.15640448639E+02  0.51100000000E-03 0.  1.
        -11    1    3    3    0    0 -0.51911334703E+01 -0.48682040304E+01  0.52602948136E+01  0.88497445711E+01  0.51100000000E-03 0. -1.
         12    1    3    3    0    0 -0.20448854082E+02  0.99647460884E+01 -0.12671227596E+02  0.26038659848E+02  0.00000000000E+00 0. -1.
</event>
<event>
 7    1  0.2838209E-011  0.5052887E+02  0.7816164E-02  0.1300439E+00
        -11   -1    0    0    0    0  0.00000000000E+00  0.00000000000E+00  0.45593999997E+02  0.45594000000E+02  0.51100000000E-03 0.  1.
         11   -1    0    0    0    0 -0.00000000000E+00 -0.00000000000E+00 -0.45593999997E+02  0.45594000000E+02  0.51100000000E-03 0. -1.
    9900012    2    1    2    0    0 -0.11598924635E+02  0.85736564801E+01  0.38014759860E+02  0.50528873037E+02  0.30000040085E+02 0.  0.
         12    1    1    2    0    0  0.11598924635E+02 -0.85736564801E+01 -0.38014759860E+02  0.40659126963E+02  0.00000000000E+00 0. -1.
         11    1    3    3    0    0 -0.40888057890E+01  0.20155789581E+01  0.11312690434E+02  0.12196632996E+02  0.51100000000E-03 0. -1.
        -11    1    3    3    0    0 -0.33938296641E+01  0.11686321422E+02  0.28933154476E+02  0.31388144519E+02  0.51100000000E-03 0.  1.
        -12    1    3    3    0    0 -0.41162891816E+01 -0.51282439000E+01 -0.22310850498E+01  0.69440955224E+01  0.00000000000E+00 0.  1.
</event>
<event>
 7    1  0.2838209E-011  0.5052886E+02  0.7816164E-02  0.1300439E+00
        -11   -1    0    0    0    0  0.00000000000E+00  0.00000000000E+00  0.45593999997E+02  0.45594000000E+02  0.51100000000E-03 0.  1.
         11   -1    0    0    0    0 -0.00000000000E+00 -0.00000000000E+00 -0.45593999997E+02  0.45594000000E+02  0.51100000000E-03 0. -1.
    9900012    2    1    2    0    0 -0.36351770826E+01  0.23431830998E+02  0.33028783728E+02  0.50528858704E+02  0.29999996518E+02 0.  0.
         12    1    1    2    0    0  0.36351770826E+01 -0.23431830998E+02 -0.33028783728E+02  0.40659141296E+02  0.00000000000E+00 0. -1.
         11    1    3    3    0    0 -0.23285129940E+00  0.17338159566E+01 -0.89318376801E+00  0.19642084929E+01  0.51100000000E-03 0. -1.
        -11    1    3    3    0    0 -0.14693421368E+02  0.17066058986E+02  0.21034228418E+02  0.30815349522E+02  0.51100000000E-03 0.  1.
         12    1    3    3    0    0  0.11291095584E+02  0.46319560559E+01  0.12887739078E+02  0.17749300689E+02  0.00000000000E+00 0. -1.
</event>
<event>
 7    1  0.2838209E-011  0.5052886E+02  0.7816164E-02  0.1300439E+00
        -11   -1    0    0    0    0  0.00000000000E+00  0.00000000000E+00  0.45593999997E+02  0.45594000000E+02  0.51100000000E-03 0. -1.
         11   -1    0    0    0    0 -0.00000000000E+00 -0.00000000000E+00 -0.45593999997E+02  0.45594000000E+02  0.51100000000E-03 0.  1.
    9900012    2    1    2    0    0  0.82071718360E+01  0.22917194503E+02 -0.32567013234E+02  0.50528858047E+02  0.29999994519E+02 0.  0.
         12    1    1    2    0    0 -0.82071718360E+01 -0.22917194503E+02  0.32567013234E+02  0.40659141953E+02  0.00000000000E+00 0. -1.
         11    1    3    3    0    0  0.35701474163E+01 -0.43692807799E+00 -0.39652802113E+01  0.53535321177E+01  0.51100000000E-03 0. -1.
        -11    1    3    3    0    0 -0.46901041176E+01 -0.12674319920E+01  0.15937589193E+01  0.51130742458E+01  0.51100000000E-03 0.  1.
        -12    1    3    3    0    0  0.93271285373E+01  0.24621554573E+02 -0.30195491942E+02  0.40062251683E+02  0.00000000000E+00 0.  1.
</event>
<event>
 7    1  0.2838209E-011  0.5052886E+02  0.7816164E-02  0.1300439E+00
        -11   -1    0    0    0    0  0.00000000000E+00  0.00000000000E+00  0.45593999997E+02  0.45594000000E+02  0.51100000000E-03 0. -1.
         11   -1    0    0    0    0 -0.00000000000E+00 -0.00000000000E+00 -0.45593999997E+02  0.45594000000E+02  0.51100000000E-03 0.  1.
    9900012    2    1    2    0    0  0.68280694521E+01 -0.34088748662E+02 -0.21083169066E+02  0.50528864056E+02  0.30000012785E+02 0.  0.
         12    1    1    2    0    0 -0.68280694521E+01  0.34088748662E+02  0.21083169066E+02  0.40659135944E+02  0.00000000000E+00 0. -1.
         11    1    3    3    0    0  0.60932634754E+01 -0.72726677172E+01 -0.83991382904E+01  0.12671427693E+02  0.51100000000E-03 0. -1.
        -11    1    3    3    0    0  0.10044069933E+02 -0.10611628353E+02 -0.12405327643E+02  0.19167215533E+02  0.51100000000E-03 0.  1.
        -12    1    3    3    0    0 -0.93092639561E+01 -0.16204452593E+02 -0.27870313352E+00  0.18690220830E+02  0.00000000000E+00 0.  1.
</event>
<event>
 7    1  0.2838209E-011  0.5052885E+02  0.7816164E-02  0.1300439E+00
        -11   -1    0    0    0    0  0.00000000000E+00  0.00000000000E+00  0.45593999997E+02  0.45594000000E+02  0.51100000000E-03 0.  1.
         11   -1    0    0    0    0 -0.00000000000E+00 -0.00000000000E+00 -0.45593999997E+02  0.45594000000E+02  0.51100000000E-03 0. -1.
    9900012    2    1    2    0    0 -0.33059297694E+02  0.93647312093E+01  0.21738231812E+02  0.50528854941E+02  0.29999985077E+02 0.  0.
         12    1    1    2    0    0  0.33059297694E+02 -0.93647312093E+01 -0.21738231812E+02  0.40659145059E+02  0.00000000000E+00 0. -1.
         11    1    3    3    0    0 -0.14294504497E+02 -0.46832912058E+01  0.13920960283E+02  0.20495346077E+02  0.51100000000E-03 0. -1.
        -11    1    3    3    0    0 -0.14450936390E+02  0.29687839085E+01 -0.16370389357E+01  0.14843285930E+02  0.51100000000E-03 0.  1.
        -12    1    3    3    0    0 -0.43138568072E+01  0.11079238507E+02  0.94543104645E+01  0.15190222934E+02  0.00000000000E+00 0.  1.
</event>
<event>
 7    1  0.2838209E-011  0.5052886E+02  0.7816164E-02  0.1300439E+00
        -11   -1    0    0    0    0  0.00000000000E+00  0.00000000000E+00  0.45593999997E+02  0.45594000000E+02  0.51100000000E-03 0. -1.
         11   -1    0    0    0    0 -0.00000000000E+00 -0.00000000000E+00 -0.45593999997E+02  0.45594000000E+02  0.51100000000E-03 0.  1.
    9900012    2    1    2    0    0  0.15834397817E+02 -0.14989535535E+02 -0.34318387138E+02  0.50528855573E+02  0.29999986998E+02 0.  0.
         12    1    1    2    0    0 -0.15834397817E+02  0.14989535535E+02  0.34318387138E+02  0.40659144427E+02  0.00000000000E+00 0. -1.
         11    1    3    3    0    0 -0.11461861999E+01  0.30369992878E+01  0.91919963018E+00  0.33737272712E+01  0.51100000000E-03 0. -1.
        -11    1    3    3    0    0  0.21307776600E+01 -0.13225692468E+02 -0.75639840258E+01  0.15384180489E+02  0.51100000000E-03 0.  1.
        -12    1    3    3    0    0  0.14849806357E+02 -0.48008423549E+01 -0.27673602743E+02  0.31770947813E+02  0.00000000000E+00 0.  1.
</event>
<event>
 7    1  0.2838209E-011  0.5052886E+02  0.7816164E-02  0.1300439E+00
        -11   -1    0    0    0    0  0.00000000000E+00  0.00000000000E+00  0.45593999997E+02  0.45594000000E+02  0.51100000000E-03 0.  1.
         11   -1    0    0    0    0 -0.00000000000E+00 -0.00000000000E+00 -0.45593999997E+02  0.45594000000E+02  0.51100000000E-03 0. -1.
    9900012    2    1    2    0    0 -0.19572049497E+02 -0.15532476248E+02  0.32075573684E+02  0.50528863670E+02  0.30000011612E+02 0.  0.
         12    1    1    2    0    0  0.19572049497E+02  0.15532476248E+02 -0.32075573684E+02  0.40659136330E+02  0.00000000000E+00 0. -1.
         11    1    3    3    0    0 -0.17109038577E+01  0.43599779679E+01  0.18860175025E+02  0.19433033786E+02  0.51100000000E-03 0. -1.
        -11    1    3    3    0    0  0.63910229578E+00 -0.48389370144E+00 -0.53363564452E+00  0.96300162045E+00  0.51100000000E-03 0.  1.
        -12    1    3    3    0    0 -0.18500247935E+02 -0.19408560515E+02  0.13749034304E+02  0.30132828264E+02  0.00000000000E+00 0.  1.
</event>
<event>
 7    1  0.2838209E-011  0.5052885E+02  0.7816164E-02  0.1300439E+00
        -11   -1    0    0    0    0  0.00000000000E+00  0.00000000000E+00  0.45593999997E+02  0.45594000000E+02  0.51100000000E-03 0.  1.
         11   -1    0    0    0    0 -0.00000000000E+00 -0.00000000000E+00 -0.45593999997E+02  0.45594000000E+02  0.51100000000E-03 0. -1.
    9900012    2    1    2    0    0  0.27307014135E+02 -0.24872198876E+02 -0.16996102756E+02  0.50528845966E+02  0.29999957798E+02 0.  0.
         12    1    1    2    0    0 -0.27307014135E+02  0.24872198876E+02  0.16996102756E+02  0.40659154034E+02  0.00000000000E+00 0. -1.
         11    1    3    3    0    0 -0.28268508062E+01  0.27439443941E+01  0.24199233790E+01  0.46234560385E+01  0.51100000000E-03 0. -1.
        -11    1    3    3    0    0  0.22341728347E+01 -0.34015227461E+01  0.20669744689E+00  0.40748753776E+01  0.51100000000E-03 0.  1.
        -12    1    3    3    0    0  0.27899692106E+02 -0.24214620524E+02 -0.19622723581E+02  0.41830514550E+02  0.00000000000E+00 0.  1.
</event>
<event>
 7    1  0.2838209E-011  0.5052887E+02  0.7816164E-02  0.1300439E+00
        -11   -1    0    0    0    0  0.00000000000E+00  0.00000000000E+00  0.45593999997E+02  0.45594000000E+02  0.51100000000E-03 0. -1.
         11   -1    0    0    0    0 -0.00000000000E+00 -0.00000000000E+00 -0.45593999997E+02  0.45594000000E+02  0.51100000000E-03 0.  1.
    9900012    2    1    2    0    0 -0.38916549230E+02  0.79378246180E+01  0.86981789874E+01  0.50528865955E+02  0.30000018555E+02 0.  0.
         12    1    1    2    0    0  0.38916549230E+02 -0.79378246180E+01 -0.86981789874E+01  0.40659134045E+02  0.00000000000E+00 0. -1.
         11    1    3    3    0    0 -0.52840892032E+01  0.19483182087E+01 -0.28302496610E+01  0.63030037248E+01  0.51100000000E-03 0. -1.
        -11    1    3    3    0    0 -0.60234867823E+01 -0.22461623689E+01 -0.73621824078E+01  0.97739126490E+01  0.51100000000E-03 0.  1.
        -12    1    3    3    0    0 -0.27608973244E+02  0.82356687783E+01  0.18890611056E+02  0.34451949581E+02  0.00000000000E+00 0.  1.
</event>
<event>
 7    1  0.2838209E-011  0.5052886E+02  0.7816164E-02  0.1300439E+00
        -11   -1    0    0    0    0  0.00000000000E+00  0.00000000000E+00  0.45593999997E+02  0.45594000000E+02  0.51100000000E-03 0. -1.
         11   -1    0    0    0    0 -0.00000000000E+00 -0.00000000000E+00 -0.45593999997E+02  0.45594000000E+02  0.51100000000E-03 0.  1.
    9900012    2    1    2    0    0 -0.23782077983E+01  0.38041372788E+02 -0.14154992838E+02  0.50528859107E+02  0.29999997741E+02 0.  0.
         12    1    1    2    0    0  0.23782077983E+01 -0.38041372788E+02  0.14154992838E+02  0.40659140893E+02  0.00000000000E+00 0. -1.
         11    1    3    3    0    0  0.30871756086E+01 -0.60747335302E+00 -0.21761011697E+01  0.38255840959E+01  0.51100000000E-03 0. -1.
        -11    1    3    3    0    0  0.73355725623E+01  0.16807367200E+02 -0.10965292007E+02  0.21366699466E+02  0.51100000000E-03 0.  1.
         12    1    3    3    0    0 -0.12800955969E+02  0.21841478941E+02 -0.10135996616E+01  0.25336575545E+02  0.00000000000E+00 0. -1.
</event>
<event>
 7    1  0.2838209E-011  0.5052883E+02  0.7816164E-02  0.1300439E+00
        -11   -1    0    0    0    0  0.00000000000E+00  0.00000000000E+00  0.45593999997E+02  0.45594000000E+02  0.51100000000E-03 0.  1.
         11   -1    0    0    0    0 -0.00000000000E+00 -0.00000000000E+00 -0.45593999997E+02  0.45594000000E+02  0.51100000000E-03 0. -1.
    9900012    2    1    2    0    0 -0.16221155208E+02 -0.27400502208E+02  0.25283485509E+02  0.50528830837E+02  0.29999911813E+02 0.  0.
         12    1    1    2    0    0  0.16221155208E+02  0.27400502208E+02 -0.25283485509E+02  0.40659169163E+02  0.00000000000E+00 0. -1.
         11    1    3    3    0    0 -0.77750343356E+01 -0.61594948811E+01  0.11330687365E+02  0.15059050851E+02  0.51100000000E-03 0. -1.
        -11    1    3    3    0    0  0.97124790495E+00 -0.55366561477E+01  0.16080814145E+02  0.17034977770E+02  0.51100000000E-03 0.  1.
         12    1    3    3    0    0 -0.94173687777E+01 -0.15704351179E+02 -0.21280160016E+01  0.18434802216E+02  0.00000000000E+00 0. -1.
</event>
<event>
 7    1  0.2838209E-011  0.5052890E+02  0.7816164E-02  0.1300439E+00
        -11   -1    0    0    0    0  0.00000000000E+00  0.00000000000E+00  0.45593999997E+02  0.45594000000E+02  0.51100000000E-03 0.  1.
         11   -1    0    0    0    0 -0.00000000000E+00 -0.00000000000E+00 -0.45593999997E+02  0.45594000000E+02  0.51100000000E-03 0. -1.
    9900012    2    1    2    0    0 -0.82669423094E+01 -0.14330697760E+01  0.39783995963E+02  0.50528900663E+02  0.30000124054E+02 0.  0.
         12    1    1    2    0    0  0.82669423094E+01  0.14330697760E+01 -0.39783995963E+02  0.40659099337E+02  0.00000000000E+00 0. -1.
         11    1    3    3    0    0  0.34879728035E+01 -0.22887713622E+01  0.15331831063E+02  0.15889287983E+02  0.51100000000E-03 0. -1.
        -11    1    3    3    0    0 -0.14235808589E+01  0.62094062739E+01  0.21790987982E+02  0.22703093759E+02  0.51100000000E-03 0.  1.
         12    1    3    3    0    0 -0.10331334254E+02 -0.53537046877E+01  0.26611769190E+01  0.11936518921E+02  0.00000000000E+00 0. -1.
</event>
<event>
 7    1  0.2838209E-011  0.5052885E+02  0.7816164E-02  0.1300439E+00
        -11   -1    0    0    0    0  0.00000000000E+00  0.00000000000E+00  0.45593999997E+02  0.45594000000E+02  0.51100000000E-03 0. -1.
         11   -1    0    0    0    0 -0.00000000000E+00 -0.00000000000E+00 -0.45593999997E+02  0.45594000000E+02  0.51100000000E-03 0.  1.
    9900012    2    1    2    0    0  0.30684946049E+02  0.14195609794E+02 -0.22585058579E+02  0.50528854381E+02  0.29999983378E+02 0.  0.
         12    1    1    2    0    0 -0.30684946049E+02 -0.14195609794E+02  0.22585058579E+02  0.40659145619E+02  0.00000000000E+00 0. -1.
         11    1    3    3    0    0  0.69202864906E+01  0.27693468985E+01 -0.43525768398E+00  0.74665317831E+01  0.51100000000E-03 0. -1.
        -11    1    3    3    0    0  0.22970255449E+02  0.18488004010E+02 -0.15418809242E+02  0.33274293477E+02  0.51100000000E-03 0.  1.
        -12    1    3    3    0    0  0.79440410912E+00 -0.70617411147E+01 -0.67309916524E+01  0.97880291216E+01  0.00000000000E+00 0.  1.
</event>
<event>
 7    1  0.2838209E-011  0.5052884E+02  0.7816164E-02  0.1300439E+00
        -11   -1    0    0    0    0  0.00000000000E+00  0.00000000000E+00  0.45593999997E+02  0.45594000000E+02  0.51100000000E-03 0. -1.
         11   -1    0    0    0    0 -0.00000000000E+00 -0.00000000000E+00 -0.45593999997E+02  0.45594000000E+02  0.51100000000E-03 0.  1.
    9900012    2    1    2    0    0 -0.18765010049E+02 -0.11131520487E+02 -0.34309347047E+02  0.50528835654E+02  0.29999926453E+02 0.  0.
         12    1    1    2    0    0  0.18765010049E+02  0.11131520487E+02  0.34309347047E+02  0.40659164346E+02  0.00000000000E+00 0. -1.
         11    1    3    3    0    0 -0.92359676951E+00 -0.12316069196E+02 -0.83316464436E+01  0.14898151703E+02  0.51100000000E-03 0. -1.
        -11    1    3    3    0    0 -0.16012650384E+02 -0.37670217039E+01 -0.11100478307E+02  0.19844798909E+02  0.51100000000E-03 0.  1.
        -12    1    3    3    0    0 -0.18287628955E+01  0.49515704126E+01 -0.14877222297E+02  0.15785885042E+02  0.00000000000E+00 0.  1.
</event>
<event>
 7    1  0.2838209E-011  0.5052888E+02  0.7816164E-02  0.1300439E+00
        -11   -1    0    0    0    0  0.00000000000E+00  0.00000000000E+00  0.45593999997E+02  0.45594000000E+02  0.51100000000E-03 0.  1.
         11   -1    0    0    0    0 -0.00000000000E+00 -0.00000000000E+00 -0.45593999997E+02  0.45594000000E+02  0.51100000000E-03 0. -1.
    9900012    2    1    2    0    0 -0.37076897097E+02 -0.16638448509E+02 -0.12766474181E+01  0.50528879304E+02  0.30000059133E+02 0.  0.
         12    1    1    2    0    0  0.37076897097E+02  0.16638448509E+02  0.12766474181E+01  0.40659120696E+02  0.00000000000E+00 0. -1.
         11    1    3    3    0    0 -0.17313561853E+01  0.20477088076E+01  0.18328752921E+01  0.32480975507E+01  0.51100000000E-03 0.  1.
        -11    1    3    3    0    0  0.13189362717E+01  0.23321166649E+01 -0.42266763762E+01  0.50043135871E+01  0.51100000000E-03 0. -1.
        -12    1    3    3    0    0 -0.36664477183E+02 -0.21018273982E+02  0.11171536660E+01  0.42276468166E+02  0.00000000000E+00 0.  1.
</event>
<event>
 7    1  0.2838209E-011  0.5052886E+02  0.7816164E-02  0.1300439E+00
        -11   -1    0    0    0    0  0.00000000000E+00  0.00000000000E+00  0.45593999997E+02  0.45594000000E+02  0.51100000000E-03 0.  1.
         11   -1    0    0    0    0 -0.00000000000E+00 -0.00000000000E+00 -0.45593999997E+02  0.45594000000E+02  0.51100000000E-03 0. -1.
    9900012    2    1    2    0    0 -0.27156409458E+02  0.20051502981E+02  0.22663461293E+02  0.50528858048E+02  0.29999994524E+02 0.  0.
         12    1    1    2    0    0  0.27156409458E+02 -0.20051502981E+02 -0.22663461293E+02  0.40659141952E+02  0.00000000000E+00 0. -1.
         11    1    3    3    0    0  0.16148176400E+01 -0.21622156989E+01 -0.26571244534E+01  0.37872316223E+01  0.51100000000E-03 0. -1.
        -11    1    3    3    0    0 -0.32256249161E+01  0.10830970248E+02  0.65954603009E+01  0.13084902348E+02  0.51100000000E-03 0.  1.
        -12    1    3    3    0    0 -0.25545602182E+02  0.11382748432E+02  0.18725125446E+02  0.33656724078E+02  0.00000000000E+00 0.  1.
</event>
<event>
 7    1  0.2838209E-011  0.5052895E+02  0.7816164E-02  0.1300438E+00
        -11   -1    0    0    0    0  0.00000000000E+00  0.00000000000E+00  0.45593999997E+02  0.45594000000E+02  0.51100000000E-03 0.  1.
         11   -1    0    0    0    0 -0.00000000000E+00 -0.00000000000E+00 -0.45593999997E+02  0.45594000000E+02  0.51100000000E-03 0. -1.
    9900012    2    1    2    0    0  0.23083594176E+02 -0.30002176875E+01  0.33336237045E+02  0.50528950250E+02  0.30000274779E+02 0.  0.
         12    1    1    2    0    0 -0.23083594176E+02  0.30002176875E+01 -0.33336237045E+02  0.40659049750E+02  0.00000000000E+00 0. -1.
         11    1    3    3    0    0  0.49522164155E+01  0.28646703485E+01  0.74174476940E+01  0.93674603915E+01  0.51100000000E-03 0. -1.
        -11    1    3    3    0    0 -0.15461142098E+01  0.54454763761E+01 -0.12120670415E+01  0.57890231375E+01  0.51100000000E-03 0.  1.
        -12    1    3    3    0    0  0.19677491970E+02 -0.11310364412E+02  0.27130856392E+02  0.35372466721E+02  0.00000000000E+00 0.  1.
</event>
<event>
 7    1  0.2838209E-011  0.5052886E+02  0.7816164E-02  0.1300439E+00
        -11   -1    0    0    0    0  0.00000000000E+00  0.00000000000E+00  0.45593999997E+02  0.45594000000E+02  0.51100000000E-03 0. -1.
         11   -1    0    0    0    0 -0.00000000000E+00 -0.00000000000E+00 -0.45593999997E+02  0.45594000000E+02  0.51100000000E-03 0.  1.
    9900012    2    1    2    0    0  0.21661146912E+02 -0.29708012956E+02 -0.17360703557E+02  0.50528863913E+02  0.30000012350E+02 0.  0.
         12    1    1    2    0    0 -0.21661146912E+02  0.29708012956E+02  0.17360703557E+02  0.40659136087E+02  0.00000000000E+00 0. -1.
         11    1    3    3    0    0  0.11740728194E+02 -0.19483785885E+02 -0.82898749255E+01  0.24211250225E+02  0.51100000000E-03 0. -1.
        -11    1    3    3    0    0  0.67487530604E+01 -0.69258812885E+01 -0.15594310605E+02  0.18349278542E+02  0.51100000000E-03 0.  1.
         12    1    3    3    0    0  0.31716656580E+01 -0.32983457824E+01  0.65234819730E+01  0.79683351460E+01  0.00000000000E+00 0. -1.
</event>
<event>
 7    1  0.2838209E-011  0.5052886E+02  0.7816164E-02  0.1300439E+00
        -11   -1    0    0    0    0  0.00000000000E+00  0.00000000000E+00  0.45593999997E+02  0.45594000000E+02  0.51100000000E-03 0.  1.
         11   -1    0    0    0    0 -0.00000000000E+00 -0.00000000000E+00 -0.45593999997E+02  0.45594000000E+02  0.51100000000E-03 0. -1.
    9900012    2    1    2    0    0  0.35953675195E+02  0.18824254131E+02 -0.24791138055E+01  0.50528864386E+02  0.30000013787E+02 0.  0.
         12    1    1    2    0    0 -0.35953675195E+02 -0.18824254131E+02  0.24791138055E+01  0.40659135614E+02  0.00000000000E+00 0. -1.
         11    1    3    3    0    0  0.33292764505E+00  0.28001422406E+01 -0.24537767580E+01  0.37380018758E+01  0.51100000000E-03 0. -1.
        -11    1    3    3    0    0  0.11746483913E+02  0.15412008964E+02  0.88625014781E+01  0.21308539071E+02  0.51100000000E-03 0.  1.
         12    1    3    3    0    0  0.23874263637E+02  0.61210292663E+00 -0.88878385256E+01  0.25482323439E+02  0.00000000000E+00 0. -1.
</event>
<event>
 7    1  0.2838209E-011  0.5052884E+02  0.7816164E-02  0.1300439E+00
        -11   -1    0    0    0    0  0.00000000000E+00  0.00000000000E+00  0.45593999997E+02  0.45594000000E+02  0.51100000000E-03 0.  1.
         11   -1    0    0    0    0 -0.00000000000E+00 -0.00000000000E+00 -0.45593999997E+02  0.45594000000E+02  0.51100000000E-03 0. -1.
    9900012    2    1    2    0    0  0.26211572431E+02  0.27330638388E+02  0.14803945213E+02  0.50528842141E+02  0.29999946171E+02 0.  0.
         12    1    1    2    0    0 -0.26211572431E+02 -0.27330638388E+02 -0.14803945213E+02  0.40659157859E+02  0.00000000000E+00 0. -1.
         11    1    3    3    0    0  0.89710618605E-01 -0.22645889683E+01 -0.16952200552E+01  0.28302265788E+01  0.51100000000E-03 0. -1.
        -11    1    3    3    0    0  0.12349330070E+02  0.40198082986E+01  0.13109923289E+02  0.18453587750E+02  0.51100000000E-03 0.  1.
         12    1    3    3    0    0  0.13772531742E+02  0.25575419057E+02  0.33892419795E+01  0.29245027812E+02  0.00000000000E+00 0. -1.
</event>
<event>
 7    1  0.2838209E-011  0.5052885E+02  0.7816164E-02  0.1300439E+00
        -11   -1    0    0    0    0  0.00000000000E+00  0.00000000000E+00  0.45593999997E+02  0.45594000000E+02  0.51100000000E-03 0.  1.
         11   -1    0    0    0    0 -0.00000000000E+00 -0.00000000000E+00 -0.45593999997E+02  0.45594000000E+02  0.51100000000E-03 0. -1.
    9900012    2    1    2    0    0  0.13262297442E+02 -0.93827522083E+01  0.37272535041E+02  0.50528850466E+02  0.29999971477E+02 0.  0.
         12    1    1    2    0    0 -0.13262297442E+02  0.93827522083E+01 -0.37272535041E+02  0.40659149534E+02  0.00000000000E+00 0. -1.
         11    1    3    3    0    0 -0.86277442155E+01 -0.56212657465E+01  0.53776292400E+01  0.11617034705E+02  0.51100000000E-03 0. -1.
        -11    1    3    3    0    0  0.24337950986E+01 -0.66575998645E+00  0.27418482398E+01  0.37261678670E+01  0.51100000000E-03 0.  1.
         12    1    3    3    0    0  0.19456246559E+02 -0.30957264754E+01  0.29153057561E+02  0.35185647894E+02  0.00000000000E+00 0. -1.
</event>
<event>
 7    1  0.2838209E-011  0.5052886E+02  0.7816164E-02  0.1300439E+00
        -11   -1    0    0    0    0  0.00000000000E+00  0.00000000000E+00  0.45593999997E+02  0.45594000000E+02  0.51100000000E-03 0. -1.
         11   -1    0    0    0    0 -0.00000000000E+00 -0.00000000000E+00 -0.45593999997E+02  0.45594000000E+02  0.51100000000E-03 0.  1.
    9900012    2    1    2    0    0 -0.40480400410E+02 -0.16914021348E+01 -0.34119804830E+01  0.50528864872E+02  0.30000015266E+02 0.  0.
         12    1    1    2    0    0  0.40480400410E+02  0.16914021348E+01  0.34119804830E+01  0.40659135128E+02  0.00000000000E+00 0. -1.
         11    1    3    3    0    0 -0.28051663194E+02 -0.32252938594E+01  0.46841615451E+01  0.28622363601E+02  0.51100000000E-03 0. -1.
        -11    1    3    3    0    0 -0.13037562569E+02 -0.42954434563E+01 -0.83013632040E+01  0.16041867209E+02  0.51100000000E-03 0.  1.
         12    1    3    3    0    0  0.60882535404E+00  0.58293351809E+01  0.20522117587E+00  0.58646340631E+01  0.00000000000E+00 0. -1.
</event>
<event>
 7    1  0.2838209E-011  0.5052886E+02  0.7816164E-02  0.1300439E+00
        -11   -1    0    0    0    0  0.00000000000E+00  0.00000000000E+00  0.45593999997E+02  0.45594000000E+02  0.51100000000E-03 0.  1.
         11   -1    0    0    0    0 -0.00000000000E+00 -0.00000000000E+00 -0.45593999997E+02  0.45594000000E+02  0.51100000000E-03 0. -1.
    9900012    2    1    2    0    0 -0.22579319137E+02 -0.24827663886E+02  0.22954892570E+02  0.50528860318E+02  0.30000001424E+02 0.  0.
         12    1    1    2    0    0  0.22579319137E+02  0.24827663886E+02 -0.22954892570E+02  0.40659139682E+02  0.00000000000E+00 0. -1.
         11    1    3    3    0    0 -0.10164337309E+01 -0.33492320996E+01  0.80749005551E+01  0.88008245308E+01  0.51100000000E-03 0. -1.
        -11    1    3    3    0    0  0.54823623593E+01 -0.37685190444E+01  0.23064952540E+01  0.70411613704E+01  0.51100000000E-03 0.  1.
        -12    1    3    3    0    0 -0.27045247765E+02 -0.17709912742E+02  0.12573496761E+02  0.34686874417E+02  0.00000000000E+00 0.  1.
</event>
<event>
 7    1  0.2838209E-011  0.5052886E+02  0.7816164E-02  0.1300439E+00
        -11   -1    0    0    0    0  0.00000000000E+00  0.00000000000E+00  0.45593999997E+02  0.45594000000E+02  0.51100000000E-03 0. -1.
         11   -1    0    0    0    0 -0.00000000000E+00 -0.00000000000E+00 -0.45593999997E+02  0.45594000000E+02  0.51100000000E-03 0.  1.
    9900012    2    1    2    0    0 -0.13021665613E+02 -0.34858969676E+02 -0.16384558293E+02  0.50528864586E+02  0.30000014395E+02 0.  0.
         12    1    1    2    0    0  0.13021665613E+02  0.34858969676E+02  0.16384558293E+02  0.40659135414E+02  0.00000000000E+00 0. -1.
         11    1    3    3    0    0 -0.76319275029E+00  0.43268101963E+01 -0.54894123236E+01  0.70311732712E+01  0.51100000000E-03 0. -1.
        -11    1    3    3    0    0 -0.35537761072E+01 -0.51986488464E+01 -0.47304440617E+01  0.78760634666E+01  0.51100000000E-03 0.  1.
        -12    1    3    3    0    0 -0.87046967554E+01 -0.33987131026E+02 -0.61647019072E+01  0.35621627848E+02  0.00000000000E+00 0.  1.
</event>
<event>
 7    1  0.2838209E-011  0.5052888E+02  0.7816164E-02  0.1300439E+00
        -11   -1    0    0    0    0  0.00000000000E+00  0.00000000000E+00  0.45593999997E+02  0.45594000000E+02  0.51100000000E-03 0.  1.
         11   -1    0    0    0    0 -0.00000000000E+00 -0.00000000000E+00 -0.45593999997E+02  0.45594000000E+02  0.51100000000E-03 0. -1.
    9900012    2    1    2    0    0 -0.30121137091E+02  0.78502789599E+01  0.26158254704E+02  0.50528879639E+02  0.30000060150E+02 0.  0.
         12    1    1    2    0    0  0.30121137091E+02 -0.78502789599E+01 -0.26158254704E+02  0.40659120361E+02  0.00000000000E+00 0. -1.
         11    1    3    3    0    0  0.22015376285E+01 -0.91500116563E+00  0.61691768238E+01  0.66138292999E+01  0.51100000000E-03 0. -1.
        -11    1    3    3    0    0 -0.20040232363E+02 -0.29939628695E+01  0.17413319680E+02  0.26717006370E+02  0.51100000000E-03 0.  1.
        -12    1    3    3    0    0 -0.12282442357E+02  0.11759242995E+02  0.25757582000E+01  0.17198043969E+02  0.00000000000E+00 0.  1.
</event>
<event>
 7    1  0.2838209E-011  0.5052886E+02  0.7816164E-02  0.1300439E+00
        -11   -1    0    0    0    0  0.00000000000E+00  0.00000000000E+00  0.45593999997E+02  0.45594000000E+02  0.51100000000E-03 0.  1.
         11   -1    0    0    0    0 -0.00000000000E+00 -0.00000000000E+00 -0.45593999997E+02  0.45594000000E+02  0.51100000000E-03 0. -1.
    9900012    2    1    2    0    0  0.37241715306E+02  0.10771671142E+02  0.12255247876E+02  0.50528863774E+02  0.30000011928E+02 0.  0.
         12    1    1    2    0    0 -0.37241715306E+02 -0.10771671142E+02 -0.12255247876E+02  0.40659136226E+02  0.00000000000E+00 0. -1.
         11    1    3    3    0    0  0.56985399280E+01  0.32003801779E+01 -0.48990691073E+01  0.81680272388E+01  0.51100000000E-03 0. -1.
        -11    1    3    3    0    0  0.24372119463E+02  0.67122382151E+01  0.17411127879E+01  0.25339412443E+02  0.51100000000E-03 0.  1.
        -12    1    3    3    0    0  0.71710559152E+01  0.85905274918E+00  0.15413204195E+02  0.17021424093E+02  0.00000000000E+00 0.  1.
</event>
<event>
 7    1  0.2838209E-011  0.5052886E+02  0.7816164E-02  0.1300439E+00
        -11   -1    0    0    0    0  0.00000000000E+00  0.00000000000E+00  0.45593999997E+02  0.45594000000E+02  0.51100000000E-03 0. -1.
         11   -1    0    0    0    0 -0.00000000000E+00 -0.00000000000E+00 -0.45593999997E+02  0.45594000000E+02  0.51100000000E-03 0.  1.
    9900012    2    1    2    0    0  0.33374855131E+02 -0.22039045929E+02  0.73188059141E+01  0.50528863014E+02  0.30000009617E+02 0.  0.
         12    1    1    2    0    0 -0.33374855131E+02  0.22039045929E+02 -0.73188059141E+01  0.40659136986E+02  0.00000000000E+00 0. -1.
         11    1    3    3    0    0  0.81387620095E+01 -0.75116406827E+00  0.10272440326E+02  0.13127327413E+02  0.51100000000E-03 0. -1.
        -11    1    3    3    0    0  0.82948814504E+01 -0.15480982892E+02  0.42960969489E+01  0.18080993856E+02  0.51100000000E-03 0.  1.
         12    1    3    3    0    0  0.16941211671E+02 -0.58068989692E+01 -0.72497313604E+01  0.19320541745E+02  0.00000000000E+00 0. -1.
</event>
<event>
 7    1  0.2838209E-011  0.5052883E+02  0.7816164E-02  0.1300439E+00
        -11   -1    0    0    0    0  0.00000000000E+00  0.00000000000E+00  0.45593999997E+02  0.45594000000E+02  0.51100000000E-03 0.  1.
         11   -1    0    0    0    0 -0.00000000000E+00 -0.00000000000E+00 -0.45593999997E+02  0.45594000000E+02  0.51100000000E-03 0. -1.
    9900012    2    1    2    0    0  0.40626019826E+02 -0.71468743265E-02 -0.16414453923E+01  0.50528832756E+02  0.29999917645E+02 0.  0.
         12    1    1    2    0    0 -0.40626019826E+02  0.71468743265E-02  0.16414453923E+01  0.40659167244E+02  0.00000000000E+00 0. -1.
         11    1    3    3    0    0  0.15443062282E+00  0.30520718995E+00  0.93964788119E+00  0.99996932343E+00  0.51100000000E-03 0. -1.
        -11    1    3    3    0    0  0.27220807936E+02 -0.11842761003E+02 -0.86909109848E+01  0.30931461441E+02  0.51100000000E-03 0.  1.
         12    1    3    3    0    0  0.13250781267E+02  0.11530406939E+02  0.61098177114E+01  0.18597401992E+02  0.00000000000E+00 0. -1.
</event>
<event>
 7    1  0.2838209E-011  0.5052887E+02  0.7816164E-02  0.1300439E+00
        -11   -1    0    0    0    0  0.00000000000E+00  0.00000000000E+00  0.45593999997E+02  0.45594000000E+02  0.51100000000E-03 0.  1.
         11   -1    0    0    0    0 -0.00000000000E+00 -0.00000000000E+00 -0.45593999997E+02  0.45594000000E+02  0.51100000000E-03 0. -1.
    9900012    2    1    2    0    0  0.37720822542E+02 -0.10573476460E+02  0.10886049341E+02  0.50528869071E+02  0.30000028027E+02 0.  0.
         12    1    1    2    0    0 -0.37720822542E+02  0.10573476460E+02 -0.10886049341E+02  0.40659130929E+02  0.00000000000E+00 0. -1.
         11    1    3    3    0    0  0.17411315418E+02 -0.10903935370E+02  0.13392980312E-01  0.20543852871E+02  0.51100000000E-03 0. -1.
        -11    1    3    3    0    0  0.11648665209E+02 -0.93234489852E+01  0.67482835241E+01  0.16375513211E+02  0.51100000000E-03 0.  1.
         12    1    3    3    0    0  0.86608419143E+01  0.96539078950E+01  0.41243728365E+01  0.13609502989E+02  0.00000000000E+00 0. -1.
</event>
<event>
 7    1  0.2838209E-011  0.5052887E+02  0.7816164E-02  0.1300439E+00
        -11   -1    0    0    0    0  0.00000000000E+00  0.00000000000E+00  0.45593999997E+02  0.45594000000E+02  0.51100000000E-03 0. -1.
         11   -1    0    0    0    0 -0.00000000000E+00 -0.00000000000E+00 -0.45593999997E+02  0.45594000000E+02  0.51100000000E-03 0.  1.
    9900012    2    1    2    0    0  0.34197793114E+02  0.78346334359E+01 -0.20549800205E+02  0.50528870356E+02  0.30000031935E+02 0.  0.
         12    1    1    2    0    0 -0.34197793114E+02 -0.78346334359E+01  0.20549800205E+02  0.40659129644E+02  0.00000000000E+00 0. -1.
         11    1    3    3    0    0  0.11199106603E+02 -0.23333707826E+01  0.12189232097E+01  0.11504363606E+02  0.51100000000E-03 0. -1.
        -11    1    3    3    0    0 -0.81729580760E+00 -0.34100595489E+00  0.29782943736E+01  0.31071683468E+01  0.51100000000E-03 0.  1.
        -12    1    3    3    0    0  0.23815982318E+02  0.10509010173E+02 -0.24747017788E+02  0.35917338404E+02  0.00000000000E+00 0.  1.
</event>
<event>
 7    1  0.2838209E-011  0.5052886E+02  0.7816164E-02  0.1300439E+00
        -11   -1    0    0    0    0  0.00000000000E+00  0.00000000000E+00  0.45593999997E+02  0.45594000000E+02  0.51100000000E-03 0. -1.
         11   -1    0    0    0    0 -0.00000000000E+00 -0.00000000000E+00 -0.45593999997E+02  0.45594000000E+02  0.51100000000E-03 0.  1.
    9900012    2    1    2    0    0 -0.32814511996E+02  0.23897067288E+02  0.23030224350E+01  0.50528856688E+02  0.29999990389E+02 0.  0.
         12    1    1    2    0    0  0.32814511996E+02 -0.23897067288E+02 -0.23030224350E+01  0.40659143312E+02  0.00000000000E+00 0. -1.
         11    1    3    3    0    0 -0.76277222735E+01 -0.27197321667E+01 -0.25048201361E+01  0.84766275320E+01  0.51100000000E-03 0. -1.
        -11    1    3    3    0    0 -0.25328697533E+02  0.18617161333E+02 -0.20681078209E+01  0.31502677426E+02  0.51100000000E-03 0.  1.
        -12    1    3    3    0    0  0.14190780990E+00  0.79996381216E+01  0.68759503920E+01  0.10549551730E+02  0.00000000000E+00 0.  1.
</event>
<event>
 7    1  0.2838209E-011  0.5052886E+02  0.7816164E-02  0.1300439E+00
        -11   -1    0    0    0    0  0.00000000000E+00  0.00000000000E+00  0.45593999997E+02  0.45594000000E+02  0.51100000000E-03 0. -1.
         11   -1    0    0    0    0 -0.00000000000E+00 -0.00000000000E+00 -0.45593999997E+02  0.45594000000E+02  0.51100000000E-03 0.  1.
    9900012    2    1    2    0    0 -0.45249133418E+01  0.84603985366E+01 -0.39510920267E+02  0.50528855832E+02  0.29999987788E+02 0.  0.
         12    1    1    2    0    0  0.45249133418E+01 -0.84603985366E+01  0.39510920267E+02  0.40659144168E+02  0.00000000000E+00 0. -1.
         11    1    3    3    0    0  0.28491842917E+01  0.93015134089E+00 -0.15620560628E+02  0.15905500534E+02  0.51100000000E-03 0. -1.
        -11    1    3    3    0    0 -0.33522400999E+00  0.12922341766E+02 -0.22061808574E+02  0.25569956779E+02  0.51100000000E-03 0.  1.
         12    1    3    3    0    0 -0.70388736235E+01 -0.53920945706E+01 -0.18285510642E+01  0.90533985188E+01  0.00000000000E+00 0. -1.
</event>
<event>
 7    1  0.2838209E-011  0.5052886E+02  0.7816164E-02  0.1300439E+00
        -11   -1    0    0    0    0  0.00000000000E+00  0.00000000000E+00  0.45593999997E+02  0.45594000000E+02  0.51100000000E-03 0.  1.
         11   -1    0    0    0    0 -0.00000000000E+00 -0.00000000000E+00 -0.45593999997E+02  0.45594000000E+02  0.51100000000E-03 0. -1.
    9900012    2    1    2    0    0 -0.19150589223E+02  0.98857051357E+01  0.34477428964E+02  0.50528863983E+02  0.30000012564E+02 0.  0.
         12    1    1    2    0    0  0.19150589223E+02 -0.98857051357E+01 -0.34477428964E+02  0.40659136017E+02  0.00000000000E+00 0. -1.
         11    1    3    3    0    0 -0.12935948743E+02  0.18722091223E+02  0.13271417306E+02  0.26343613785E+02  0.51100000000E-03 0. -1.
        -11    1    3    3    0    0 -0.39538389306E+01 -0.20506800269E+01  0.88785566276E+01  0.99331213076E+01  0.51100000000E-03 0.  1.
        -12    1    3    3    0    0 -0.22608015493E+01 -0.67857060609E+01  0.12327455031E+02  0.14252128891E+02  0.00000000000E+00 0.  1.
</event>
<event>
 7    1  0.2838209E-011  0.5052887E+02  0.7816164E-02  0.1300439E+00
        -11   -1    0    0    0    0  0.00000000000E+00  0.00000000000E+00  0.45593999997E+02  0.45594000000E+02  0.51100000000E-03 0. -1.
         11   -1    0    0    0    0 -0.00000000000E+00 -0.00000000000E+00 -0.45593999997E+02  0.45594000000E+02  0.51100000000E-03 0.  1.
    9900012    2    1    2    0    0 -0.40118223229E+02  0.33118714025E+01  0.57205354301E+01  0.50528869994E+02  0.30000030834E+02 0.  0.
         12    1    1    2    0    0  0.40118223229E+02 -0.33118714025E+01 -0.57205354301E+01  0.40659130006E+02  0.00000000000E+00 0. -1.
         11    1    3    3    0    0 -0.19432246257E+02 -0.90104236536E+01  0.16439298016E+01  0.21482607720E+02  0.51100000000E-03 0. -1.
        -11    1    3    3    0    0 -0.16536191171E+02  0.97209177810E+00  0.11067557614E+01  0.16601671285E+02  0.51100000000E-03 0.  1.
         12    1    3    3    0    0 -0.41497858009E+01  0.11350203278E+02  0.29698498672E+01  0.12444590989E+02  0.00000000000E+00 0. -1.
</event>
<event>
 7    1  0.2838209E-011  0.5052889E+02  0.7816164E-02  0.1300439E+00
        -11   -1    0    0    0    0  0.00000000000E+00  0.00000000000E+00  0.45593999997E+02  0.45594000000E+02  0.51100000000E-03 0. -1.
         11   -1    0    0    0    0 -0.00000000000E+00 -0.00000000000E+00 -0.45593999997E+02  0.45594000000E+02  0.51100000000E-03 0.  1.
    9900012    2    1    2    0    0 -0.40076323128E+02  0.39282945595E+00  0.68481611026E+01  0.50528889079E+02  0.30000088844E+02 0.  0.
         12    1    1    2    0    0  0.40076323128E+02 -0.39282945595E+00 -0.68481611026E+01  0.40659110921E+02  0.00000000000E+00 0. -1.
         11    1    3    3    0    0 -0.48737529706E+01  0.38961015840E+01  0.64253840258E+01  0.89564856786E+01  0.51100000000E-03 0. -1.
        -11    1    3    3    0    0  0.10602772024E+01 -0.40665885643E+01  0.30764126853E+01  0.52082286402E+01  0.51100000000E-03 0.  1.
        -12    1    3    3    0    0 -0.36262847360E+02  0.56331643629E+00 -0.26536356085E+01  0.36364174760E+02  0.00000000000E+00 0.  1.
</event>
<event>
 7    1  0.2838209E-011  0.5052886E+02  0.7816164E-02  0.1300439E+00
        -11   -1    0    0    0    0  0.00000000000E+00  0.00000000000E+00  0.45593999997E+02  0.45594000000E+02  0.51100000000E-03 0.  1.
         11   -1    0    0    0    0 -0.00000000000E+00 -0.00000000000E+00 -0.45593999997E+02  0.45594000000E+02  0.51100000000E-03 0. -1.
    9900012    2    1    2    0    0  0.31392841570E+02 -0.94931576679E+01  0.24031957449E+02  0.50528861750E+02  0.30000005776E+02 0.  0.
         12    1    1    2    0    0 -0.31392841570E+02  0.94931576679E+01 -0.24031957449E+02  0.40659138250E+02  0.00000000000E+00 0. -1.
         11    1    3    3    0    0  0.51189603947E+01  0.43651217381E+01 -0.23560175204E+01  0.71280335387E+01  0.51100000000E-03 0. -1.
        -11    1    3    3    0    0 -0.15712560840E+01  0.15004127723E+01  0.38609001487E+01  0.44301957505E+01  0.51100000000E-03 0.  1.
         12    1    3    3    0    0  0.27845137259E+02 -0.15358692178E+02  0.22527074821E+02  0.38970632461E+02  0.00000000000E+00 0. -1.
</event>
<event>
 7    1  0.2838209E-011  0.5052885E+02  0.7816164E-02  0.1300439E+00
        -11   -1    0    0    0    0  0.00000000000E+00  0.00000000000E+00  0.45593999997E+02  0.45594000000E+02  0.51100000000E-03 0.  1.
         11   -1    0    0    0    0 -0.00000000000E+00 -0.00000000000E+00 -0.45593999997E+02  0.45594000000E+02  0.51100000000E-03 0. -1.
    9900012    2    1    2    0    0 -0.26715808385E+02  0.24304022490E+00  0.30649195263E+02  0.50528847814E+02  0.29999963415E+02 0.  0.
         12    1    1    2    0    0  0.26715808385E+02 -0.24304022490E+00 -0.30649195263E+02  0.40659152186E+02  0.00000000000E+00 0. -1.
         11    1    3    3    0    0 -0.69329211667E+01  0.21631633929E+00  0.22133789246E+01  0.72808814842E+01  0.51100000000E-03 0. -1.
        -11    1    3    3    0    0 -0.11638940034E+02 -0.68899017045E+01  0.72067807226E+00  0.13544557865E+02  0.51100000000E-03 0.  1.
        -12    1    3    3    0    0 -0.81439471844E+01  0.69166255901E+01  0.27715138266E+02  0.29703408465E+02  0.00000000000E+00 0.  1.
</event>
<event>
 7    1  0.2838209E-011  0.5052886E+02  0.7816164E-02  0.1300439E+00
        -11   -1    0    0    0    0  0.00000000000E+00  0.00000000000E+00  0.45593999997E+02  0.45594000000E+02  0.51100000000E-03 0. -1.
         11   -1    0    0    0    0 -0.00000000000E+00 -0.00000000000E+00 -0.45593999997E+02  0.45594000000E+02  0.51100000000E-03 0.  1.
    9900012    2    1    2    0    0  0.29820528642E+02 -0.25433815744E+02  0.10817702590E+02  0.50528860793E+02  0.30000002866E+02 0.  0.
         12    1    1    2    0    0 -0.29820528642E+02  0.25433815744E+02 -0.10817702590E+02  0.40659139207E+02  0.00000000000E+00 0. -1.
         11    1    3    3    0    0  0.15801132851E+02 -0.14028443727E+02  0.64739462141E+00  0.21139823860E+02  0.51100000000E-03 0. -1.
        -11    1    3    3    0    0  0.11045368488E+02 -0.14698623466E+02  0.14326847764E+02  0.23308973893E+02  0.51100000000E-03 0.  1.
         12    1    3    3    0    0  0.29740273028E+01  0.32932514492E+01 -0.41565397951E+01  0.60800630403E+01  0.00000000000E+00 0. -1.
</event>
<event>
 7    1  0.2838209E-011  0.5052889E+02  0.7816164E-02  0.1300439E+00
        -11   -1    0    0    0    0  0.00000000000E+00  0.00000000000E+00  0.45593999997E+02  0.45594000000E+02  0.51100000000E-03 0.  1.
         11   -1    0    0    0    0 -0.00000000000E+00 -0.00000000000E+00 -0.45593999997E+02  0.45594000000E+02  0.51100000000E-03 0. -1.
    9900012    2    1    2    0    0 -0.12287742607E+02 -0.30369724544E+02  0.24080175107E+02  0.50528885150E+02  0.30000076901E+02 0.  0.
         12    1    1    2    0    0  0.12287742607E+02  0.30369724544E+02 -0.24080175107E+02  0.40659114850E+02  0.00000000000E+00 0. -1.
         11    1    3    3    0    0  0.29235893968E+01  0.24903070434E+01 -0.84123958520E+00  0.39314995145E+01  0.51100000000E-03 0. -1.
        -11    1    3    3    0    0  0.10537253882E+01 -0.24078389248E+01  0.74591098039E+01  0.79086247104E+01  0.51100000000E-03 0.  1.
        -12    1    3    3    0    0 -0.16265057392E+02 -0.30452192662E+02  0.17462304888E+02  0.38688760925E+02  0.00000000000E+00 0.  1.
</event>
<event>
 7    1  0.2838209E-011  0.5052886E+02  0.7816164E-02  0.1300439E+00
        -11   -1    0    0    0    0  0.00000000000E+00  0.00000000000E+00  0.45593999997E+02  0.45594000000E+02  0.51100000000E-03 0.  1.
         11   -1    0    0    0    0 -0.00000000000E+00 -0.00000000000E+00 -0.45593999997E+02  0.45594000000E+02  0.51100000000E-03 0. -1.
    9900012    2    1    2    0    0 -0.12194052956E+02  0.62866940620E+01  0.38274646281E+02  0.50528855916E+02  0.29999988041E+02 0.  0.
         12    1    1    2    0    0  0.12194052956E+02 -0.62866940620E+01 -0.38274646281E+02  0.40659144084E+02  0.00000000000E+00 0. -1.
         11    1    3    3    0    0 -0.30000236310E+01  0.67377696796E+01 -0.14939721618E+01  0.75252664486E+01  0.51100000000E-03 0. -1.
        -11    1    3    3    0    0 -0.58836725632E+01  0.13276854913E+01  0.44748174963E+01  0.75102825167E+01  0.51100000000E-03 0.  1.
        -12    1    3    3    0    0 -0.33103567616E+01 -0.17787611090E+01  0.35293800947E+02  0.35493306950E+02  0.00000000000E+00 0.  1.
</event>
<event>
 7    1  0.2838209E-011  0.5052885E+02  0.7816164E-02  0.1300439E+00
        -11   -1    0    0    0    0  0.00000000000E+00  0.00000000000E+00  0.45593999997E+02  0.45594000000E+02  0.51100000000E-03 0.  1.
         11   -1    0    0    0    0 -0.00000000000E+00 -0.00000000000E+00 -0.45593999997E+02  0.45594000000E+02  0.51100000000E-03 0. -1.
    9900012    2    1    2    0    0  0.32305783099E+02 -0.19771759707E+02  0.14784460596E+02  0.50528851230E+02  0.29999973799E+02 0.  0.
         12    1    1    2    0    0 -0.32305783099E+02  0.19771759707E+02 -0.14784460596E+02  0.40659148770E+02  0.00000000000E+00 0. -1.
         11    1    3    3    0    0  0.10597421897E+02  0.57393339302E+01  0.93331616315E+00  0.12087861025E+02  0.51100000000E-03 0. -1.
        -11    1    3    3    0    0 -0.12069145381E+00 -0.81895254561E+00  0.39389462492E+01  0.40249903744E+01  0.51100000000E-03 0.  1.
        -12    1    3    3    0    0  0.21829052656E+02 -0.24692141092E+02  0.99121981837E+01  0.34415999831E+02  0.00000000000E+00 0.  1.
</event>
<event>
 7    1  0.2838209E-011  0.5052887E+02  0.7816164E-02  0.1300439E+00
        -11   -1    0    0    0    0  0.00000000000E+00  0.00000000000E+00  0.45593999997E+02  0.45594000000E+02  0.51100000000E-03 0.  1.
         11   -1    0    0    0    0 -0.00000000000E+00 -0.00000000000E+00 -0.45593999997E+02  0.45594000000E+02  0.51100000000E-03 0. -1.
    9900012    2    1    2    0    0  0.19108129625E+02 -0.21007324174E+01  0.35827803829E+02  0.50528865458E+02  0.30000017046E+02 0.  0.
         12    1    1    2    0    0 -0.19108129625E+02  0.21007324174E+01 -0.35827803829E+02  0.40659134542E+02  0.00000000000E+00 0. -1.
         11    1    3    3    0    0 -0.26762547588E+01  0.12227059843E+00 -0.22866350234E+00  0.26887872530E+01  0.51100000000E-03 0. -1.
        -11    1    3    3    0    0  0.15796916744E+02 -0.10609153006E+02  0.30969925935E+02  0.36348769151E+02  0.51100000000E-03 0.  1.
         12    1    3    3    0    0  0.59874676407E+01  0.83861499899E+01  0.50865413970E+01  0.11491309055E+02  0.00000000000E+00 0. -1.
</event>
<event>
 7    1  0.2838209E-011  0.5052886E+02  0.7816164E-02  0.1300439E+00
        -11   -1    0    0    0    0  0.00000000000E+00  0.00000000000E+00  0.45593999997E+02  0.45594000000E+02  0.51100000000E-03 0.  1.
         11   -1    0    0    0    0 -0.00000000000E+00 -0.00000000000E+00 -0.45593999997E+02  0.45594000000E+02  0.51100000000E-03 0. -1.
    9900012    2    1    2    0    0  0.21443574352E+02 -0.27017846549E+02  0.21526136592E+02  0.50528862409E+02  0.30000007778E+02 0.  0.
         12    1    1    2    0    0 -0.21443574352E+02  0.27017846549E+02 -0.21526136592E+02  0.40659137591E+02  0.00000000000E+00 0. -1.
         11    1    3    3    0    0  0.90576115347E+01 -0.11303817248E+01 -0.91321513642E+00  0.91734427400E+01  0.51100000000E-03 0. -1.
        -11    1    3    3    0    0  0.16259138572E+02 -0.17168551741E+02  0.21157017289E+02  0.31729137032E+02  0.51100000000E-03 0.  1.
         12    1    3    3    0    0 -0.38731757555E+01 -0.87189130830E+01  0.12823344392E+01  0.96262826364E+01  0.00000000000E+00 0. -1.
</event>
<event>
 7    1  0.2838209E-011  0.5052887E+02  0.7816164E-02  0.1300439E+00
        -11   -1    0    0    0    0  0.00000000000E+00  0.00000000000E+00  0.45593999997E+02  0.45594000000E+02  0.51100000000E-03 0. -1.
         11   -1    0    0    0    0 -0.00000000000E+00 -0.00000000000E+00 -0.45593999997E+02  0.45594000000E+02  0.51100000000E-03 0.  1.
    9900012    2    1    2    0    0  0.18701641563E+01 -0.31392772715E+02 -0.25771324444E+02  0.50528869951E+02  0.30000030704E+02 0.  0.
         12    1    1    2    0    0 -0.18701641563E+01  0.31392772715E+02  0.25771324444E+02  0.40659130049E+02  0.00000000000E+00 0. -1.
         11    1    3    3    0    0 -0.63592107609E+00 -0.68949359900E+00 -0.78108059621E+01  0.78669236094E+01  0.51100000000E-03 0. -1.
        -11    1    3    3    0    0  0.38380889245E+01  0.28848700140E+01 -0.40554472298E+01  0.62849068477E+01  0.51100000000E-03 0.  1.
        -12    1    3    3    0    0 -0.13320036921E+01 -0.33588149130E+02 -0.13905071252E+02  0.36377039494E+02  0.00000000000E+00 0.  1.
</event>
<event>
 7    1  0.2838209E-011  0.5052887E+02  0.7816164E-02  0.1300439E+00
        -11   -1    0    0    0    0  0.00000000000E+00  0.00000000000E+00  0.45593999997E+02  0.45594000000E+02  0.51100000000E-03 0. -1.
         11   -1    0    0    0    0 -0.00000000000E+00 -0.00000000000E+00 -0.45593999997E+02  0.45594000000E+02  0.51100000000E-03 0.  1.
    9900012    2    1    2    0    0 -0.27700545155E+02 -0.11413055690E+02 -0.27487944500E+02  0.50528866525E+02  0.30000020291E+02 0.  0.
         12    1    1    2    0    0  0.27700545155E+02  0.11413055690E+02  0.27487944500E+02  0.40659133475E+02  0.00000000000E+00 0. -1.
         11    1    3    3    0    0 -0.97339055454E+01 -0.40098583466E+01 -0.46244806399E+01  0.11498421743E+02  0.51100000000E-03 0. -1.
        -11    1    3    3    0    0 -0.20337689658E+02 -0.95139121641E+01 -0.26146203211E+02  0.34463895426E+02  0.51100000000E-03 0.  1.
        -12    1    3    3    0    0  0.23710500485E+01  0.21107148204E+01  0.32827393509E+01  0.45665493571E+01  0.00000000000E+00 0.  1.
</event>
<event>
 7    1  0.2838209E-011  0.5052886E+02  0.7816164E-02  0.1300439E+00
        -11   -1    0    0    0    0  0.00000000000E+00  0.00000000000E+00  0.45593999997E+02  0.45594000000E+02  0.51100000000E-03 0.  1.
         11   -1    0    0    0    0 -0.00000000000E+00 -0.00000000000E+00 -0.45593999997E+02  0.45594000000E+02  0.51100000000E-03 0. -1.
    9900012    2    1    2    0    0 -0.25446562000E+02  0.52366646672E+01  0.31276434544E+02  0.50528861640E+02  0.30000005439E+02 0.  0.
         12    1    1    2    0    0  0.25446562000E+02 -0.52366646672E+01 -0.31276434544E+02  0.40659138360E+02  0.00000000000E+00 0. -1.
         11    1    3    3    0    0  0.25693549446E+00  0.13025429580E+01 -0.14457459399E+01  0.19628590345E+01  0.51100000000E-03 0. -1.
        -11    1    3    3    0    0 -0.98186162339E+01  0.12766827329E+02  0.82881042485E+01  0.18113248662E+02  0.51100000000E-03 0.  1.
        -12    1    3    3    0    0 -0.15884881260E+02 -0.88327056202E+01  0.24434076235E+02  0.30452753943E+02  0.00000000000E+00 0.  1.
</event>
<event>
 7    1  0.2838209E-011  0.5052886E+02  0.7816164E-02  0.1300439E+00
        -11   -1    0    0    0    0  0.00000000000E+00  0.00000000000E+00  0.45593999997E+02  0.45594000000E+02  0.51100000000E-03 0.  1.
         11   -1    0    0    0    0 -0.00000000000E+00 -0.00000000000E+00 -0.45593999997E+02  0.45594000000E+02  0.51100000000E-03 0. -1.
    9900012    2    1    2    0    0 -0.26247398013E+02  0.31017158417E+02  0.14750891141E+01  0.50528857036E+02  0.29999991446E+02 0.  0.
         12    1    1    2    0    0  0.26247398013E+02 -0.31017158417E+02 -0.14750891141E+01  0.40659142964E+02  0.00000000000E+00 0. -1.
         11    1    3    3    0    0 -0.22989092123E+01 -0.43696556295E+01  0.22686091196E+00  0.49427057389E+01  0.51100000000E-03 0. -1.
        -11    1    3    3    0    0 -0.22702303984E+02  0.21957725835E+02  0.39548832174E+01  0.31830448183E+02  0.51100000000E-03 0.  1.
         12    1    3    3    0    0 -0.12461848164E+01  0.13429088211E+02 -0.27066550152E+01  0.13755703114E+02  0.00000000000E+00 0. -1.
</event>
<event>
 7    1  0.2838209E-011  0.5052886E+02  0.7816164E-02  0.1300439E+00
        -11   -1    0    0    0    0  0.00000000000E+00  0.00000000000E+00  0.45593999997E+02  0.45594000000E+02  0.51100000000E-03 0.  1.
         11   -1    0    0    0    0 -0.00000000000E+00 -0.00000000000E+00 -0.45593999997E+02  0.45594000000E+02  0.51100000000E-03 0. -1.
    9900012    2    1    2    0    0  0.37444881109E+02 -0.79507704649E+00  0.15824482418E+02  0.50528861881E+02  0.30000006172E+02 0.  0.
         12    1    1    2    0    0 -0.37444881109E+02  0.79507704649E+00 -0.15824482418E+02  0.40659138119E+02  0.00000000000E+00 0. -1.
         11    1    3    3    0    0  0.65552660033E+01  0.77586420971E+01  0.58126445525E+01  0.11702772172E+02  0.51100000000E-03 0. -1.
        -11    1    3    3    0    0 -0.27099293643E+01  0.39772233278E+00  0.85002751689E+00  0.28678297115E+01  0.51100000000E-03 0.  1.
        -12    1    3    3    0    0  0.33599544470E+02 -0.89514414764E+01  0.91618103490E+01  0.35958259997E+02  0.00000000000E+00 0.  1.
</event>
<event>
 7    1  0.2838209E-011  0.5052886E+02  0.7816164E-02  0.1300439E+00
        -11   -1    0    0    0    0  0.00000000000E+00  0.00000000000E+00  0.45593999997E+02  0.45594000000E+02  0.51100000000E-03 0.  1.
         11   -1    0    0    0    0 -0.00000000000E+00 -0.00000000000E+00 -0.45593999997E+02  0.45594000000E+02  0.51100000000E-03 0. -1.
    9900012    2    1    2    0    0 -0.23468311612E+02  0.26745305056E+01  0.33094573316E+02  0.50528861466E+02  0.30000004913E+02 0.  0.
         12    1    1    2    0    0  0.23468311612E+02 -0.26745305056E+01 -0.33094573316E+02  0.40659138534E+02  0.00000000000E+00 0. -1.
         11    1    3    3    0    0 -0.15313192876E+01  0.13702311528E+01 -0.22336533324E+01  0.30350748991E+01  0.51100000000E-03 0. -1.
        -11    1    3    3    0    0  0.23011846274E+01  0.65234904420E+01  0.85949828266E+01  0.11032910236E+02  0.51100000000E-03 0.  1.
        -12    1    3    3    0    0 -0.24238176952E+02 -0.52191910892E+01  0.26733243822E+02  0.36460876331E+02  0.00000000000E+00 0.  1.
</event>
<event>
 7    1  0.2838209E-011  0.5052885E+02  0.7816164E-02  0.1300439E+00
        -11   -1    0    0    0    0  0.00000000000E+00  0.00000000000E+00  0.45593999997E+02  0.45594000000E+02  0.51100000000E-03 0.  1.
         11   -1    0    0    0    0 -0.00000000000E+00 -0.00000000000E+00 -0.45593999997E+02  0.45594000000E+02  0.51100000000E-03 0. -1.
    9900012    2    1    2    0    0 -0.15321310147E+02  0.29336284789E+02  0.23617929043E+02  0.50528847007E+02  0.29999960963E+02 0.  0.
         12    1    1    2    0    0  0.15321310147E+02 -0.29336284789E+02 -0.23617929043E+02  0.40659152993E+02  0.00000000000E+00 0. -1.
         11    1    3    3    0    0 -0.10091701453E+02  0.17501804066E+01  0.70816518713E+00  0.10266794429E+02  0.51100000000E-03 0. -1.
        -11    1    3    3    0    0 -0.56812251650E+01  0.13717977756E+01  0.85855125665E+01  0.10386008608E+02  0.51100000000E-03 0.  1.
         12    1    3    3    0    0  0.45161647037E+00  0.26214306607E+02  0.14324251289E+02  0.29876043970E+02  0.00000000000E+00 0. -1.
</event>
<event>
 7    1  0.2838209E-011  0.5052886E+02  0.7816164E-02  0.1300439E+00
        -11   -1    0    0    0    0  0.00000000000E+00  0.00000000000E+00  0.45593999997E+02  0.45594000000E+02  0.51100000000E-03 0. -1.
         11   -1    0    0    0    0 -0.00000000000E+00 -0.00000000000E+00 -0.45593999997E+02  0.45594000000E+02  0.51100000000E-03 0.  1.
    9900012    2    1    2    0    0  0.18115745164E+02  0.20760197478E+01 -0.36341105375E+02  0.50528855632E+02  0.29999987180E+02 0.  0.
         12    1    1    2    0    0 -0.18115745164E+02 -0.20760197478E+01  0.36341105375E+02  0.40659144368E+02  0.00000000000E+00 0. -1.
         11    1    3    3    0    0 -0.33912528027E+01 -0.47344737685E+01 -0.25161362729E+01  0.63440349496E+01  0.51100000000E-03 0. -1.
        -11    1    3    3    0    0  0.21113905558E+01 -0.36690884144E+01 -0.54904636948E+00  0.42686803639E+01  0.51100000000E-03 0.  1.
        -12    1    3    3    0    0  0.19395607411E+02  0.10479581931E+02 -0.33275922732E+02  0.39916140319E+02  0.00000000000E+00 0.  1.
</event>
<event>
 7    1  0.2838209E-011  0.5052886E+02  0.7816164E-02  0.1300439E+00
        -11   -1    0    0    0    0  0.00000000000E+00  0.00000000000E+00  0.45593999997E+02  0.45594000000E+02  0.51100000000E-03 0.  1.
         11   -1    0    0    0    0 -0.00000000000E+00 -0.00000000000E+00 -0.45593999997E+02  0.45594000000E+02  0.51100000000E-03 0. -1.
    9900012    2    1    2    0    0 -0.56559011802E+01  0.35020580307E+02  0.19867944097E+02  0.50528862455E+02  0.30000007919E+02 0.  0.
         12    1    1    2    0    0  0.56559011802E+01 -0.35020580307E+02 -0.19867944097E+02  0.40659137545E+02  0.00000000000E+00 0. -1.
         11    1    3    3    0    0  0.10090665059E+02  0.89832387903E+01  0.79381170045E+01  0.15669518255E+02  0.51100000000E-03 0. -1.
        -11    1    3    3    0    0  0.33585677248E+00  0.75455824970E+01  0.59975267847E+01  0.96446328486E+01  0.51100000000E-03 0.  1.
        -12    1    3    3    0    0 -0.16082423012E+02  0.18491759020E+02  0.59323003081E+01  0.25214711352E+02  0.00000000000E+00 0.  1.
</event>
<event>
 7    1  0.2838209E-011  0.5052886E+02  0.7816164E-02  0.1300439E+00
        -11   -1    0    0    0    0  0.00000000000E+00  0.00000000000E+00  0.45593999997E+02  0.45594000000E+02  0.51100000000E-03 0.  1.
         11   -1    0    0    0    0 -0.00000000000E+00 -0.00000000000E+00 -0.45593999997E+02  0.45594000000E+02  0.51100000000E-03 0. -1.
    9900012    2    1    2    0    0  0.34739207062E+01  0.38546664016E+02  0.12460041326E+02  0.50528855128E+02  0.29999985648E+02 0.  0.
         12    1    1    2    0    0 -0.34739207062E+01 -0.38546664016E+02 -0.12460041326E+02  0.40659144872E+02  0.00000000000E+00 0. -1.
         11    1    3    3    0    0  0.20683703471E+01  0.14598013946E+02  0.57575974706E+01  0.15828142530E+02  0.51100000000E-03 0. -1.
        -11    1    3    3    0    0  0.10151221908E+01  0.24300039526E+02 -0.34236349016E+01  0.24561019324E+02  0.51100000000E-03 0.  1.
         12    1    3    3    0    0  0.39042816830E+00 -0.35138945572E+00  0.10126078757E+02  0.10139693274E+02  0.00000000000E+00 0. -1.
</event>
<event>
 7    1  0.2838209E-011  0.5052889E+02  0.7816164E-02  0.1300439E+00
        -11   -1    0    0    0    0  0.00000000000E+00  0.00000000000E+00  0.45593999997E+02  0.45594000000E+02  0.51100000000E-03 0.  1.
         11   -1    0    0    0    0 -0.00000000000E+00 -0.00000000000E+00 -0.45593999997E+02  0.45594000000E+02  0.51100000000E-03 0. -1.
    9900012    2    1    2    0    0 -0.22956676929E+02 -0.11509911338E+02  0.31522629796E+02  0.50528889534E+02  0.30000090228E+02 0.  0.
         12    1    1    2    0    0  0.22956676929E+02  0.11509911338E+02 -0.31522629796E+02  0.40659110466E+02  0.00000000000E+00 0. -1.
         11    1    3    3    0    0 -0.18610998070E+02 -0.33481513862E+01  0.27376187881E+02  0.33272135941E+02  0.51100000000E-03 0. -1.
        -11    1    3    3    0    0 -0.41445265752E+01  0.22918068675E+01  0.48484893631E+01  0.67777082127E+01  0.51100000000E-03 0.  1.
         12    1    3    3    0    0 -0.20115228355E+00 -0.10453566819E+02 -0.70204744870E+00  0.10479045381E+02  0.00000000000E+00 0. -1.
</event>
<event>
 7    1  0.2838209E-011  0.5052886E+02  0.7816164E-02  0.1300439E+00
        -11   -1    0    0    0    0  0.00000000000E+00  0.00000000000E+00  0.45593999997E+02  0.45594000000E+02  0.51100000000E-03 0.  1.
         11   -1    0    0    0    0 -0.00000000000E+00 -0.00000000000E+00 -0.45593999997E+02  0.45594000000E+02  0.51100000000E-03 0. -1.
    9900012    2    1    2    0    0 -0.31255709064E+02  0.79723877541E+01  0.24752520369E+02  0.50528861049E+02  0.30000003644E+02 0.  0.
         12    1    1    2    0    0  0.31255709064E+02 -0.79723877541E+01 -0.24752520369E+02  0.40659138951E+02  0.00000000000E+00 0. -1.
         11    1    3    3    0    0 -0.64718483937E+01  0.21412875963E+01  0.18726790789E-01  0.68169117022E+01  0.51100000000E-03 0. -1.
        -11    1    3    3    0    0 -0.17212709849E+02  0.83663978538E+01  0.15605994412E+01  0.19201808880E+02  0.51100000000E-03 0.  1.
        -12    1    3    3    0    0 -0.75711508215E+01 -0.25352976960E+01  0.23173194137E+02  0.24510140466E+02  0.00000000000E+00 0.  1.
</event>
<event>
 7    1  0.2838209E-011  0.5052886E+02  0.7816164E-02  0.1300439E+00
        -11   -1    0    0    0    0  0.00000000000E+00  0.00000000000E+00  0.45593999997E+02  0.45594000000E+02  0.51100000000E-03 0.  1.
         11   -1    0    0    0    0 -0.00000000000E+00 -0.00000000000E+00 -0.45593999997E+02  0.45594000000E+02  0.51100000000E-03 0. -1.
    9900012    2    1    2    0    0  0.17646958711E+02 -0.21726160105E+00  0.36629265493E+02  0.50528862713E+02  0.30000008703E+02 0.  0.
         12    1    1    2    0    0 -0.17646958711E+02  0.21726160105E+00 -0.36629265493E+02  0.40659137287E+02  0.00000000000E+00 0. -1.
         11    1    3    3    0    0  0.75816260029E+01 -0.19852582462E+01 -0.11703913928E+01  0.79241478674E+01  0.51100000000E-03 0. -1.
        -11    1    3    3    0    0  0.62418601698E+01 -0.12443160424E+01  0.22917125552E+01  0.67646941904E+01  0.51100000000E-03 0.  1.
        -12    1    3    3    0    0  0.38234725381E+01  0.30123126875E+01  0.35507944331E+02  0.35840020655E+02  0.00000000000E+00 0.  1.
</event>
<event>
 7    1  0.2838209E-011  0.5052886E+02  0.7816164E-02  0.1300439E+00
        -11   -1    0    0    0    0  0.00000000000E+00  0.00000000000E+00  0.45593999997E+02  0.45594000000E+02  0.51100000000E-03 0.  1.
         11   -1    0    0    0    0 -0.00000000000E+00 -0.00000000000E+00 -0.45593999997E+02  0.45594000000E+02  0.51100000000E-03 0. -1.
    9900012    2    1    2    0    0 -0.24082810821E+02 -0.92472541752E+01  0.31427248685E+02  0.50528862691E+02  0.30000008636E+02 0.  0.
         12    1    1    2    0    0  0.24082810821E+02  0.92472541752E+01 -0.31427248685E+02  0.40659137309E+02  0.00000000000E+00 0. -1.
         11    1    3    3    0    0 -0.26790208186E+01 -0.93846942699E+01  0.11271122273E+02  0.14909320462E+02  0.51100000000E-03 0.  1.
        -11    1    3    3    0    0 -0.12173783326E+02  0.19157195709E+01 -0.11051987827E+01  0.12373053243E+02  0.51100000000E-03 0. -1.
         12    1    3    3    0    0 -0.92300066755E+01 -0.17782794763E+01  0.21261325195E+02  0.23246488986E+02  0.00000000000E+00 0. -1.
</event>
<event>
 7    1  0.2838209E-011  0.5052886E+02  0.7816164E-02  0.1300439E+00
        -11   -1    0    0    0    0  0.00000000000E+00  0.00000000000E+00  0.45593999997E+02  0.45594000000E+02  0.51100000000E-03 0.  1.
         11   -1    0    0    0    0 -0.00000000000E+00 -0.00000000000E+00 -0.45593999997E+02  0.45594000000E+02  0.51100000000E-03 0. -1.
    9900012    2    1    2    0    0 -0.13619804582E+02  0.87104229931E+01  0.37306770295E+02  0.50528860124E+02  0.30000000833E+02 0.  0.
         12    1    1    2    0    0  0.13619804582E+02 -0.87104229931E+01 -0.37306770295E+02  0.40659139876E+02  0.00000000000E+00 0. -1.
         11    1    3    3    0    0 -0.77305055529E+01  0.17998418296E+01 -0.72757109745E+00  0.79705399239E+01  0.51100000000E-03 0. -1.
        -11    1    3    3    0    0 -0.55500607316E+01 -0.41046198510E+01  0.80030386966E+01  0.10568808206E+02  0.51100000000E-03 0.  1.
        -12    1    3    3    0    0 -0.33923829756E+00  0.11015201015E+02  0.30031302696E+02  0.31989511995E+02  0.00000000000E+00 0.  1.
</event>
<event>
 7    1  0.2838209E-011  0.5052882E+02  0.7816164E-02  0.1300439E+00
        -11   -1    0    0    0    0  0.00000000000E+00  0.00000000000E+00  0.45593999997E+02  0.45594000000E+02  0.51100000000E-03 0. -1.
         11   -1    0    0    0    0 -0.00000000000E+00 -0.00000000000E+00 -0.45593999997E+02  0.45594000000E+02  0.51100000000E-03 0.  1.
    9900012    2    1    2    0    0 -0.17771146367E+02 -0.35284131268E+02 -0.96117488136E+01  0.50528815579E+02  0.29999865434E+02 0.  0.
         12    1    1    2    0    0  0.17771146367E+02  0.35284131268E+02  0.96117488136E+01  0.40659184421E+02  0.00000000000E+00 0. -1.
         11    1    3    3    0    0 -0.39803275274E+01 -0.10415303206E+02 -0.95983853796E+01  0.14712258503E+02  0.51100000000E-03 0. -1.
        -11    1    3    3    0    0  0.12090605394E+00  0.38689798957E+01 -0.35113822224E+00  0.38867624084E+01  0.51100000000E-03 0.  1.
         12    1    3    3    0    0 -0.13911724894E+02 -0.28737807958E+02  0.33777478822E+00  0.31929794668E+02  0.00000000000E+00 0. -1.
</event>
<event>
 7    1  0.2838209E-011  0.5052885E+02  0.7816164E-02  0.1300439E+00
        -11   -1    0    0    0    0  0.00000000000E+00  0.00000000000E+00  0.45593999997E+02  0.45594000000E+02  0.51100000000E-03 0. -1.
         11   -1    0    0    0    0 -0.00000000000E+00 -0.00000000000E+00 -0.45593999997E+02  0.45594000000E+02  0.51100000000E-03 0.  1.
    9900012    2    1    2    0    0  0.11160285608E+02  0.13117703367E+02 -0.36831236747E+02  0.50528854451E+02  0.29999983589E+02 0.  0.
         12    1    1    2    0    0 -0.11160285608E+02 -0.13117703367E+02  0.36831236747E+02  0.40659145549E+02  0.00000000000E+00 0. -1.
         11    1    3    3    0    0 -0.29597529139E-01  0.56882866813E+01  0.12412725613E+01  0.58222194406E+01  0.51100000000E-03 0. -1.
        -11    1    3    3    0    0  0.14099492208E+02  0.47717544539E+01 -0.14407358840E+02  0.20715629609E+02  0.51100000000E-03 0.  1.
        -12    1    3    3    0    0 -0.29096090711E+01  0.26576622321E+01 -0.23665150468E+02  0.23991005401E+02  0.00000000000E+00 0.  1.
</event>
<event>
 7    1  0.2838209E-011  0.5052886E+02  0.7816164E-02  0.1300439E+00
        -11   -1    0    0    0    0  0.00000000000E+00  0.00000000000E+00  0.45593999997E+02  0.45594000000E+02  0.51100000000E-03 0.  1.
         11   -1    0    0    0    0 -0.00000000000E+00 -0.00000000000E+00 -0.45593999997E+02  0.45594000000E+02  0.51100000000E-03 0. -1.
    9900012    2    1    2    0    0  0.91896052391E+01 -0.87872105191E+01  0.38619969386E+02  0.50528856520E+02  0.29999989878E+02 0.  0.
         12    1    1    2    0    0 -0.91896052391E+01  0.87872105191E+01 -0.38619969386E+02  0.40659143480E+02  0.00000000000E+00 0. -1.
         11    1    3    3    0    0  0.10257228932E+02 -0.33156843321E+01  0.14459106243E+02  0.18035250526E+02  0.51100000000E-03 0. -1.
        -11    1    3    3    0    0  0.69373243653E+01 -0.10010072184E+02  0.10846412100E+02  0.16308668560E+02  0.51100000000E-03 0.  1.
        -12    1    3    3    0    0 -0.80049480578E+01  0.45385459971E+01  0.13314451043E+02  0.16184937434E+02  0.00000000000E+00 0.  1.
</event>
<event>
 7    1  0.2838209E-011  0.5052885E+02  0.7816164E-02  0.1300439E+00
        -11   -1    0    0    0    0  0.00000000000E+00  0.00000000000E+00  0.45593999997E+02  0.45594000000E+02  0.51100000000E-03 0.  1.
         11   -1    0    0    0    0 -0.00000000000E+00 -0.00000000000E+00 -0.45593999997E+02  0.45594000000E+02  0.51100000000E-03 0. -1.
    9900012    2    1    2    0    0 -0.35782653632E+02 -0.12516622515E+02  0.14700406569E+02  0.50528854738E+02  0.29999984462E+02 0.  0.
         12    1    1    2    0    0  0.35782653632E+02  0.12516622515E+02 -0.14700406569E+02  0.40659145262E+02  0.00000000000E+00 0. -1.
         11    1    3    3    0    0 -0.95042081432E+00 -0.80844375544E+01 -0.71206375658E+00  0.81711973021E+01  0.51100000000E-03 0. -1.
        -11    1    3    3    0    0 -0.12414036813E+02 -0.38038459952E+01  0.15118759898E+02  0.19928734418E+02  0.51100000000E-03 0.  1.
         12    1    3    3    0    0 -0.22418196004E+02 -0.62833896536E+00  0.29371042728E+00  0.22428923018E+02  0.00000000000E+00 0. -1.
</event>
<event>
 7    1  0.2838209E-011  0.5052885E+02  0.7816164E-02  0.1300439E+00
        -11   -1    0    0    0    0  0.00000000000E+00  0.00000000000E+00  0.45593999997E+02  0.45594000000E+02  0.51100000000E-03 0.  1.
         11   -1    0    0    0    0 -0.00000000000E+00 -0.00000000000E+00 -0.45593999997E+02  0.45594000000E+02  0.51100000000E-03 0. -1.
    9900012    2    1    2    0    0 -0.23644114834E+02 -0.14146858307E+02  0.29899638691E+02  0.50528853918E+02  0.29999981970E+02 0.  0.
         12    1    1    2    0    0  0.23644114834E+02  0.14146858307E+02 -0.29899638691E+02  0.40659146082E+02  0.00000000000E+00 0. -1.
         11    1    3    3    0    0 -0.10431121211E+02  0.21128879280E+01  0.42481127785E+01  0.11459452323E+02  0.51100000000E-03 0. -1.
        -11    1    3    3    0    0 -0.82647744494E+01 -0.92323777849E+01  0.40265282381E+00  0.12397799233E+02  0.51100000000E-03 0.  1.
        -12    1    3    3    0    0 -0.49482191740E+01 -0.70273684504E+01  0.25248873089E+02  0.26671602362E+02  0.00000000000E+00 0.  1.
</event>
<event>
 7    1  0.2838209E-011  0.5052887E+02  0.7816164E-02  0.1300439E+00
        -11   -1    0    0    0    0  0.00000000000E+00  0.00000000000E+00  0.45593999997E+02  0.45594000000E+02  0.51100000000E-03 0. -1.
         11   -1    0    0    0    0 -0.00000000000E+00 -0.00000000000E+00 -0.45593999997E+02  0.45594000000E+02  0.51100000000E-03 0.  1.
    9900012    2    1    2    0    0  0.17374599061E+02 -0.54878732492E+00 -0.36755773011E+02  0.50528871754E+02  0.30000036184E+02 0.  0.
         12    1    1    2    0    0 -0.17374599061E+02  0.54878732492E+00  0.36755773011E+02  0.40659128246E+02  0.00000000000E+00 0. -1.
         11    1    3    3    0    0  0.60549364807E+01 -0.10102499688E+02 -0.22314758538E+02  0.25232344413E+02  0.51100000000E-03 0. -1.
        -11    1    3    3    0    0  0.74993625446E+01 -0.26527058361E+01 -0.49441438203E+01  0.93659940853E+01  0.51100000000E-03 0.  1.
        -12    1    3    3    0    0  0.38203000352E+01  0.12206418199E+02 -0.94968706533E+01  0.15930533256E+02  0.00000000000E+00 0.  1.
</event>
<event>
 7    1  0.2838209E-011  0.5052886E+02  0.7816164E-02  0.1300439E+00
        -11   -1    0    0    0    0  0.00000000000E+00  0.00000000000E+00  0.45593999997E+02  0.45594000000E+02  0.51100000000E-03 0.  1.
         11   -1    0    0    0    0 -0.00000000000E+00 -0.00000000000E+00 -0.45593999997E+02  0.45594000000E+02  0.51100000000E-03 0. -1.
    9900012    2    1    2    0    0  0.31614330187E+02  0.20687000410E+02  0.15024906052E+02  0.50528860056E+02  0.30000000627E+02 0.  0.
         12    1    1    2    0    0 -0.31614330187E+02 -0.20687000410E+02 -0.15024906052E+02  0.40659139944E+02  0.00000000000E+00 0. -1.
         11    1    3    3    0    0  0.20064633118E+02  0.50716576629E+01  0.34134584317E+01  0.20975292902E+02  0.51100000000E-03 0. -1.
        -11    1    3    3    0    0  0.12910893645E+02  0.86794862734E+01  0.15092176184E+02  0.21674834231E+02  0.51100000000E-03 0.  1.
         12    1    3    3    0    0 -0.13611965759E+01  0.69358564733E+01 -0.34807285645E+01  0.78787329232E+01  0.00000000000E+00 0. -1.
</event>
<event>
 7    1  0.2838209E-011  0.5052888E+02  0.7816164E-02  0.1300439E+00
        -11   -1    0    0    0    0  0.00000000000E+00  0.00000000000E+00  0.45593999997E+02  0.45594000000E+02  0.51100000000E-03 0.  1.
         11   -1    0    0    0    0 -0.00000000000E+00 -0.00000000000E+00 -0.45593999997E+02  0.45594000000E+02  0.51100000000E-03 0. -1.
    9900012    2    1    2    0    0 -0.30172449452E+02  0.21002718432E+02  0.17368738641E+02  0.50528880858E+02  0.30000063855E+02 0.  0.
         12    1    1    2    0    0  0.30172449452E+02 -0.21002718432E+02 -0.17368738641E+02  0.40659119142E+02  0.00000000000E+00 0. -1.
         11    1    3    3    0    0  0.24597515615E+01  0.28873774230E+00 -0.18034986792E+00  0.24831982531E+01  0.51100000000E-03 0. -1.
        -11    1    3    3    0    0 -0.12826715937E+02  0.14066204788E+02  0.19265395650E+02  0.27083910883E+02  0.51100000000E-03 0.  1.
        -12    1    3    3    0    0 -0.19805485076E+02  0.66477759015E+01 -0.17163071412E+01  0.20961771722E+02  0.00000000000E+00 0.  1.
</event>
<event>
 7    1  0.2838209E-011  0.5052886E+02  0.7816164E-02  0.1300439E+00
        -11   -1    0    0    0    0  0.00000000000E+00  0.00000000000E+00  0.45593999997E+02  0.45594000000E+02  0.51100000000E-03 0.  1.
         11   -1    0    0    0    0 -0.00000000000E+00 -0.00000000000E+00 -0.45593999997E+02  0.45594000000E+02  0.51100000000E-03 0. -1.
    9900012    2    1    2    0    0  0.18840107390E+02  0.25493568718E+02  0.25461623102E+02  0.50528856583E+02  0.29999990070E+02 0.  0.
         12    1    1    2    0    0 -0.18840107390E+02 -0.25493568718E+02 -0.25461623102E+02  0.40659143417E+02  0.00000000000E+00 0. -1.
         11    1    3    3    0    0 -0.31116681995E+01  0.78737887924E+01 -0.68214328601E+00  0.84937829413E+01  0.51100000000E-03 0. -1.
        -11    1    3    3    0    0  0.59603299529E+01  0.73895597081E+01 -0.28128680465E+00  0.94979075777E+01  0.51100000000E-03 0.  1.
         12    1    3    3    0    0  0.15991445636E+02  0.10230220217E+02  0.26425053193E+02  0.32537166064E+02  0.00000000000E+00 0. -1.
</event>
<event>
 7    1  0.2838209E-011  0.5052885E+02  0.7816164E-02  0.1300439E+00
        -11   -1    0    0    0    0  0.00000000000E+00  0.00000000000E+00  0.45593999997E+02  0.45594000000E+02  0.51100000000E-03 0.  1.
         11   -1    0    0    0    0 -0.00000000000E+00 -0.00000000000E+00 -0.45593999997E+02  0.45594000000E+02  0.51100000000E-03 0. -1.
    9900012    2    1    2    0    0  0.17475411878E+02 -0.32724495741E+02  0.16639825461E+02  0.50528850560E+02  0.29999971762E+02 0.  0.
         12    1    1    2    0    0 -0.17475411878E+02  0.32724495741E+02 -0.16639825461E+02  0.40659149440E+02  0.00000000000E+00 0. -1.
         11    1    3    3    0    0  0.17449051982E+02 -0.16977634605E+02 -0.21782120638E+01  0.24442874215E+02  0.51100000000E-03 0. -1.
        -11    1    3    3    0    0  0.31672195950E+01 -0.11403580441E+02  0.88854550090E+01  0.14799467484E+02  0.51100000000E-03 0.  1.
        -12    1    3    3    0    0 -0.31408596985E+01 -0.43432806950E+01  0.99325825154E+01  0.11286508861E+02  0.00000000000E+00 0.  1.
</event>
<event>
 7    1  0.2838209E-011  0.5052886E+02  0.7816164E-02  0.1300439E+00
        -11   -1    0    0    0    0  0.00000000000E+00  0.00000000000E+00  0.45593999997E+02  0.45594000000E+02  0.51100000000E-03 0.  1.
         11   -1    0    0    0    0 -0.00000000000E+00 -0.00000000000E+00 -0.45593999997E+02  0.45594000000E+02  0.51100000000E-03 0. -1.
    9900012    2    1    2    0    0 -0.91669383320E+01  0.86665532412E+01  0.38652605527E+02  0.50528858131E+02  0.29999994775E+02 0.  0.
         12    1    1    2    0    0  0.91669383320E+01 -0.86665532412E+01 -0.38652605527E+02  0.40659141869E+02  0.00000000000E+00 0. -1.
         11    1    3    3    0    0 -0.43018587469E+01 -0.33620831452E+01  0.17801473732E+01  0.57426924596E+01  0.51100000000E-03 0. -1.
        -11    1    3    3    0    0 -0.52607472708E+01 -0.53440736366E+01  0.71771688801E+01  0.10380093365E+02  0.51100000000E-03 0.  1.
         12    1    3    3    0    0  0.39566768572E+00  0.17372710023E+02  0.29695289274E+02  0.34406072306E+02  0.00000000000E+00 0. -1.
</event>
<event>
 7    1  0.2838209E-011  0.5052885E+02  0.7816164E-02  0.1300439E+00
        -11   -1    0    0    0    0  0.00000000000E+00  0.00000000000E+00  0.45593999997E+02  0.45594000000E+02  0.51100000000E-03 0. -1.
         11   -1    0    0    0    0 -0.00000000000E+00 -0.00000000000E+00 -0.45593999997E+02  0.45594000000E+02  0.51100000000E-03 0.  1.
    9900012    2    1    2    0    0 -0.17080884807E+02 -0.28575431443E+02 -0.23342118568E+02  0.50528850880E+02  0.29999972735E+02 0.  0.
         12    1    1    2    0    0  0.17080884807E+02  0.28575431443E+02  0.23342118568E+02  0.40659149120E+02  0.00000000000E+00 0. -1.
         11    1    3    3    0    0 -0.27428100556E+01 -0.62588980960E+01 -0.37813899821E+01  0.78099758537E+01  0.51100000000E-03 0. -1.
        -11    1    3    3    0    0 -0.19071015356E+02 -0.59854674877E+01 -0.57084695720E+01  0.20787401783E+02  0.51100000000E-03 0.  1.
         12    1    3    3    0    0  0.47329406045E+01 -0.16331065859E+02 -0.13852259014E+02  0.21931473244E+02  0.00000000000E+00 0. -1.
</event>
<event>
 7    1  0.2838209E-011  0.5052887E+02  0.7816164E-02  0.1300439E+00
        -11   -1    0    0    0    0  0.00000000000E+00  0.00000000000E+00  0.45593999997E+02  0.45594000000E+02  0.51100000000E-03 0.  1.
         11   -1    0    0    0    0 -0.00000000000E+00 -0.00000000000E+00 -0.45593999997E+02  0.45594000000E+02  0.51100000000E-03 0. -1.
    9900012    2    1    2    0    0 -0.14428921658E+02  0.37999188682E+02  0.10163060117E+01  0.50528868202E+02  0.30000025385E+02 0.  0.
         12    1    1    2    0    0  0.14428921658E+02 -0.37999188682E+02 -0.10163060117E+01  0.40659131798E+02  0.00000000000E+00 0. -1.
         11    1    3    3    0    0 -0.98679289255E+01  0.12631569004E+02 -0.69283468054E+01  0.17462375168E+02  0.51100000000E-03 0.  1.
        -11    1    3    3    0    0  0.47515088193E+01 -0.27662892852E+00  0.49692760875E+00  0.47854254705E+01  0.51100000000E-03 0. -1.
         12    1    3    3    0    0 -0.93125015517E+01  0.25644248607E+02  0.74477252084E+01  0.28281067563E+02  0.00000000000E+00 0. -1.
</event>
<event>
 7    1  0.2838209E-011  0.5052886E+02  0.7816164E-02  0.1300439E+00
        -11   -1    0    0    0    0  0.00000000000E+00  0.00000000000E+00  0.45593999997E+02  0.45594000000E+02  0.51100000000E-03 0.  1.
         11   -1    0    0    0    0 -0.00000000000E+00 -0.00000000000E+00 -0.45593999997E+02  0.45594000000E+02  0.51100000000E-03 0. -1.
    9900012    2    1    2    0    0  0.73954234580E+01  0.33301461090E+02  0.22124334720E+02  0.50528858523E+02  0.29999995966E+02 0.  0.
         12    1    1    2    0    0 -0.73954234580E+01 -0.33301461090E+02 -0.22124334720E+02  0.40659141477E+02  0.00000000000E+00 0. -1.
         11    1    3    3    0    0  0.75061933619E+01  0.86784812254E+01  0.19394396090E+01  0.11637027173E+02  0.51100000000E-03 0. -1.
        -11    1    3    3    0    0  0.78030225544E+01  0.19148706813E+02  0.56067242565E+01  0.21424180049E+02  0.51100000000E-03 0.  1.
        -12    1    3    3    0    0 -0.79137924583E+01  0.54742730512E+01  0.14578170855E+02  0.17467651301E+02  0.00000000000E+00 0.  1.
</event>
<event>
 7    1  0.2838209E-011  0.5052884E+02  0.7816164E-02  0.1300439E+00
        -11   -1    0    0    0    0  0.00000000000E+00  0.00000000000E+00  0.45593999997E+02  0.45594000000E+02  0.51100000000E-03 0. -1.
         11   -1    0    0    0    0 -0.00000000000E+00 -0.00000000000E+00 -0.45593999997E+02  0.45594000000E+02  0.51100000000E-03 0.  1.
    9900012    2    1    2    0    0 -0.33962966998E+02  0.14863257980E+02 -0.16696328041E+02  0.50528844387E+02  0.29999952999E+02 0.  0.
         12    1    1    2    0    0  0.33962966998E+02 -0.14863257980E+02  0.16696328041E+02  0.40659155613E+02  0.00000000000E+00 0. -1.
         11    1    3    3    0    0 -0.27908099015E+00 -0.48707445772E+01 -0.24402232104E+01  0.54549728243E+01  0.51100000000E-03 0. -1.
        -11    1    3    3    0    0 -0.81113386940E+01 -0.28378825217E+01 -0.38156630593E+01  0.94024825158E+01  0.51100000000E-03 0.  1.
        -12    1    3    3    0    0 -0.25572547314E+02  0.22571885079E+02 -0.10440441771E+02  0.35671389047E+02  0.00000000000E+00 0.  1.
</event>
<event>
 7    1  0.2838209E-011  0.5052888E+02  0.7816164E-02  0.1300439E+00
        -11   -1    0    0    0    0  0.00000000000E+00  0.00000000000E+00  0.45593999997E+02  0.45594000000E+02  0.51100000000E-03 0.  1.
         11   -1    0    0    0    0 -0.00000000000E+00 -0.00000000000E+00 -0.45593999997E+02  0.45594000000E+02  0.51100000000E-03 0. -1.
    9900012    2    1    2    0    0 -0.13001378714E+02 -0.21107768874E+02  0.32227166088E+02  0.50528880612E+02  0.30000063109E+02 0.  0.
         12    1    1    2    0    0  0.13001378714E+02  0.21107768874E+02 -0.32227166088E+02  0.40659119388E+02  0.00000000000E+00 0. -1.
         11    1    3    3    0    0 -0.39966268205E+01 -0.58478048287E+01 -0.83442976164E+00  0.71320488322E+01  0.51100000000E-03 0. -1.
        -11    1    3    3    0    0  0.28695570392E+01 -0.15918260059E+02  0.17853963114E+02  0.24091271449E+02  0.51100000000E-03 0.  1.
         12    1    3    3    0    0 -0.11874308932E+02  0.65829601327E+00  0.15207632736E+02  0.19305560331E+02  0.00000000000E+00 0. -1.
</event>
<event>
 7    1  0.2838209E-011  0.5052884E+02  0.7816164E-02  0.1300439E+00
        -11   -1    0    0    0    0  0.00000000000E+00  0.00000000000E+00  0.45593999997E+02  0.45594000000E+02  0.51100000000E-03 0.  1.
         11   -1    0    0    0    0 -0.00000000000E+00 -0.00000000000E+00 -0.45593999997E+02  0.45594000000E+02  0.51100000000E-03 0. -1.
    9900012    2    1    2    0    0 -0.18052700576E+02 -0.28804659439E+02  0.22306022580E+02  0.50528843014E+02  0.29999948825E+02 0.  0.
         12    1    1    2    0    0  0.18052700576E+02  0.28804659439E+02 -0.22306022580E+02  0.40659156986E+02  0.00000000000E+00 0. -1.
         11    1    3    3    0    0 -0.77622535629E-01 -0.46799738789E+00 -0.10506797353E+01  0.11528117714E+01  0.51100000000E-03 0. -1.
        -11    1    3    3    0    0 -0.40366572989E+01  0.96077948020E+00 -0.48514766863E+01  0.63839271344E+01  0.51100000000E-03 0.  1.
        -12    1    3    3    0    0 -0.13938420741E+02 -0.29297441531E+02  0.28208179002E+02  0.42992104108E+02  0.00000000000E+00 0.  1.
</event>
<event>
 7    1  0.2838209E-011  0.5052888E+02  0.7816164E-02  0.1300439E+00
        -11   -1    0    0    0    0  0.00000000000E+00  0.00000000000E+00  0.45593999997E+02  0.45594000000E+02  0.51100000000E-03 0.  1.
         11   -1    0    0    0    0 -0.00000000000E+00 -0.00000000000E+00 -0.45593999997E+02  0.45594000000E+02  0.51100000000E-03 0. -1.
    9900012    2    1    2    0    0  0.35652158035E+02 -0.19465106915E+02 -0.17880471384E+01  0.50528882052E+02  0.30000067484E+02 0.  0.
         12    1    1    2    0    0 -0.35652158035E+02  0.19465106915E+02  0.17880471384E+01  0.40659117948E+02  0.00000000000E+00 0. -1.
         11    1    3    3    0    0  0.18410598054E+02 -0.77196180864E+01 -0.24622787644E+01  0.20114806514E+02  0.51100000000E-03 0. -1.
        -11    1    3    3    0    0  0.18365470075E+02  0.17958611323E+00  0.13592939951E+01  0.18416580103E+02  0.51100000000E-03 0.  1.
         12    1    3    3    0    0 -0.11239100945E+01 -0.11925074942E+02 -0.68506236905E+00  0.11997495435E+02  0.00000000000E+00 0. -1.
</event>
<event>
 7    1  0.2838209E-011  0.5052886E+02  0.7816164E-02  0.1300439E+00
        -11   -1    0    0    0    0  0.00000000000E+00  0.00000000000E+00  0.45593999997E+02  0.45594000000E+02  0.51100000000E-03 0.  1.
         11   -1    0    0    0    0 -0.00000000000E+00 -0.00000000000E+00 -0.45593999997E+02  0.45594000000E+02  0.51100000000E-03 0. -1.
    9900012    2    1    2    0    0 -0.16824600309E+02  0.35749830086E+02 -0.95941890470E+01  0.50528856007E+02  0.29999988320E+02 0.  0.
         12    1    1    2    0    0  0.16824600309E+02 -0.35749830086E+02  0.95941890470E+01  0.40659143993E+02  0.00000000000E+00 0. -1.
         11    1    3    3    0    0 -0.41327643634E+00 -0.10923525536E+01 -0.29114047817E+01  0.31369267728E+01  0.51100000000E-03 0. -1.
        -11    1    3    3    0    0  0.21762524021E+01  0.91902065826E+00  0.47970760254E+01  0.53472060127E+01  0.51100000000E-03 0.  1.
        -12    1    3    3    0    0 -0.18587576275E+02  0.35923161981E+02 -0.11479860291E+02  0.42044723222E+02  0.00000000000E+00 0.  1.
</event>
<event>
 7    1  0.2838209E-011  0.5052900E+02  0.7816164E-02  0.1300438E+00
        -11   -1    0    0    0    0  0.00000000000E+00  0.00000000000E+00  0.45593999997E+02  0.45594000000E+02  0.51100000000E-03 0.  1.
         11   -1    0    0    0    0 -0.00000000000E+00 -0.00000000000E+00 -0.45593999997E+02  0.45594000000E+02  0.51100000000E-03 0. -1.
    9900012    2    1    2    0    0 -0.21363847229E+02  0.24434992947E+02  0.24488189815E+02  0.50528999899E+02  0.30000425691E+02 0.  0.
         12    1    1    2    0    0  0.21363847229E+02 -0.24434992947E+02 -0.24488189815E+02  0.40659000101E+02  0.00000000000E+00 0. -1.
         11    1    3    3    0    0 -0.99638419003E+01  0.12129467950E+01  0.88189404831E+01  0.13361253566E+02  0.51100000000E-03 0. -1.
        -11    1    3    3    0    0 -0.13523743421E+02  0.75227525622E+01  0.14622580236E+02  0.21290920489E+02  0.51100000000E-03 0.  1.
        -12    1    3    3    0    0  0.21237380923E+01  0.15699293590E+02  0.10466690961E+01  0.15876825845E+02  0.00000000000E+00 0.  1.
</event>
<event>
 7    1  0.2838209E-011  0.5052885E+02  0.7816164E-02  0.1300439E+00
        -11   -1    0    0    0    0  0.00000000000E+00  0.00000000000E+00  0.45593999997E+02  0.45594000000E+02  0.51100000000E-03 0. -1.
         11   -1    0    0    0    0 -0.00000000000E+00 -0.00000000000E+00 -0.45593999997E+02  0.45594000000E+02  0.51100000000E-03 0.  1.
    9900012    2    1    2    0    0 -0.18270093360E+02 -0.35951384381E+02 -0.51834212220E+01  0.50528853355E+02  0.29999980259E+02 0.  0.
         12    1    1    2    0    0  0.18270093360E+02  0.35951384381E+02  0.51834212220E+01  0.40659146645E+02  0.00000000000E+00 0. -1.
         11    1    3    3    0    0  0.30378712330E+01  0.86288204790E+00  0.10696128833E-01  0.31580598039E+01  0.51100000000E-03 0. -1.
        -11    1    3    3    0    0  0.11157017708E+01 -0.78321542631E+01  0.49705538297E+01  0.93431170643E+01  0.51100000000E-03 0.  1.
        -12    1    3    3    0    0 -0.22423666364E+02 -0.28982112166E+02 -0.10164671181E+02  0.38027676487E+02  0.00000000000E+00 0.  1.
</event>
<event>
 7    1  0.2838209E-011  0.5052887E+02  0.7816164E-02  0.1300439E+00
        -11   -1    0    0    0    0  0.00000000000E+00  0.00000000000E+00  0.45593999997E+02  0.45594000000E+02  0.51100000000E-03 0.  1.
         11   -1    0    0    0    0 -0.00000000000E+00 -0.00000000000E+00 -0.45593999997E+02  0.45594000000E+02  0.51100000000E-03 0. -1.
    9900012    2    1    2    0    0 -0.69486742876E+01  0.30564423940E+02  0.25897809713E+02  0.50528872697E+02  0.30000039050E+02 0.  0.
         12    1    1    2    0    0  0.69486742876E+01 -0.30564423940E+02 -0.25897809713E+02  0.40659127303E+02  0.00000000000E+00 0. -1.
         11    1    3    3    0    0 -0.11008551885E+01  0.15490534052E+02  0.29648490919E+01  0.15810087216E+02  0.51100000000E-03 0. -1.
        -11    1    3    3    0    0 -0.10766988962E+02  0.11919044171E+02  0.65882764403E+01  0.17360790649E+02  0.51100000000E-03 0.  1.
         12    1    3    3    0    0  0.49191698631E+01  0.31548457168E+01  0.16344684180E+02  0.17357994832E+02  0.00000000000E+00 0. -1.
</event>
<event>
 7    1  0.2838209E-011  0.5052888E+02  0.7816164E-02  0.1300439E+00
        -11   -1    0    0    0    0  0.00000000000E+00  0.00000000000E+00  0.45593999997E+02  0.45594000000E+02  0.51100000000E-03 0. -1.
         11   -1    0    0    0    0 -0.00000000000E+00 -0.00000000000E+00 -0.45593999997E+02  0.45594000000E+02  0.51100000000E-03 0.  1.
    9900012    2    1    2    0    0 -0.15784099958E+02  0.32853253876E+02 -0.18019146944E+02  0.50528883454E+02  0.30000071747E+02 0.  0.
         12    1    1    2    0    0  0.15784099958E+02 -0.32853253876E+02  0.18019146944E+02  0.40659116546E+02  0.00000000000E+00 0. -1.
         11    1    3    3    0    0 -0.36927135693E+01  0.19983826941E+01  0.62623152260E+01  0.75396458238E+01  0.51100000000E-03 0.  1.
        -11    1    3    3    0    0  0.16500879724E+01  0.22347971173E+00 -0.23794469464E+01  0.29042213294E+01  0.51100000000E-03 0. -1.
        -12    1    3    3    0    0 -0.13741474361E+02  0.30631391470E+02 -0.21902015223E+02  0.40085016301E+02  0.00000000000E+00 0.  1.
</event>
<event>
 7    1  0.2838209E-011  0.5052883E+02  0.7816164E-02  0.1300439E+00
        -11   -1    0    0    0    0  0.00000000000E+00  0.00000000000E+00  0.45593999997E+02  0.45594000000E+02  0.51100000000E-03 0.  1.
         11   -1    0    0    0    0 -0.00000000000E+00 -0.00000000000E+00 -0.45593999997E+02  0.45594000000E+02  0.51100000000E-03 0. -1.
    9900012    2    1    2    0    0 -0.33990344702E+02 -0.10028324977E+02  0.19931312538E+02  0.50528830624E+02  0.29999911166E+02 0.  0.
         12    1    1    2    0    0  0.33990344702E+02  0.10028324977E+02 -0.19931312538E+02  0.40659169376E+02  0.00000000000E+00 0. -1.
         11    1    3    3    0    0 -0.80779402844E+01 -0.47162518489E+01 -0.12336120704E+01  0.94349324185E+01  0.51100000000E-03 0. -1.
        -11    1    3    3    0    0 -0.23836430582E+02 -0.10333661626E+02  0.85372526517E+01  0.27346748776E+02  0.51100000000E-03 0.  1.
        -12    1    3    3    0    0 -0.20759738353E+01  0.50215884973E+01  0.12627671957E+02  0.13747149430E+02  0.00000000000E+00 0.  1.
</event>
<event>
 7    1  0.2838209E-011  0.5052886E+02  0.7816164E-02  0.1300439E+00
        -11   -1    0    0    0    0  0.00000000000E+00  0.00000000000E+00  0.45593999997E+02  0.45594000000E+02  0.51100000000E-03 0.  1.
         11   -1    0    0    0    0 -0.00000000000E+00 -0.00000000000E+00 -0.45593999997E+02  0.45594000000E+02  0.51100000000E-03 0. -1.
    9900012    2    1    2    0    0  0.19359059807E+02 -0.26824303009E+02  0.23639997742E+02  0.50528856849E+02  0.29999990878E+02 0.  0.
         12    1    1    2    0    0 -0.19359059807E+02  0.26824303009E+02 -0.23639997742E+02  0.40659143151E+02  0.00000000000E+00 0. -1.
         11    1    3    3    0    0 -0.13905502613E+01 -0.95825693326E+01 -0.47568802810E+00  0.96946141957E+01  0.51100000000E-03 0.  1.
        -11    1    3    3    0    0  0.14548022076E+01  0.39050395264E+01  0.18093115609E+01  0.45430597346E+01  0.51100000000E-03 0. -1.
        -12    1    3    3    0    0  0.19294807861E+02 -0.21146773202E+02  0.22306374210E+02  0.36291182919E+02  0.00000000000E+00 0.  1.
</event>
<event>
 7    1  0.2838209E-011  0.5052886E+02  0.7816164E-02  0.1300439E+00
        -11   -1    0    0    0    0  0.00000000000E+00  0.00000000000E+00  0.45593999997E+02  0.45594000000E+02  0.51100000000E-03 0. -1.
         11   -1    0    0    0    0 -0.00000000000E+00 -0.00000000000E+00 -0.45593999997E+02  0.45594000000E+02  0.51100000000E-03 0.  1.
    9900012    2    1    2    0    0 -0.80175381845E+01 -0.31183949829E+02 -0.24828327365E+02  0.50528862217E+02  0.30000007196E+02 0.  0.
         12    1    1    2    0    0  0.80175381845E+01  0.31183949829E+02  0.24828327365E+02  0.40659137783E+02  0.00000000000E+00 0. -1.
         11    1    3    3    0    0  0.13349255453E+01 -0.15744039921E+02 -0.20082481320E+02  0.25553138271E+02  0.51100000000E-03 0. -1.
        -11    1    3    3    0    0 -0.49457618660E+01 -0.14417673865E+02 -0.98557024169E+01  0.18151163888E+02  0.51100000000E-03 0.  1.
         12    1    3    3    0    0 -0.44067018638E+01 -0.10222360429E+01  0.51098563721E+01  0.68245600581E+01  0.00000000000E+00 0. -1.
</event>
<event>
 7    1  0.2838209E-011  0.5052877E+02  0.7816164E-02  0.1300439E+00
        -11   -1    0    0    0    0  0.00000000000E+00  0.00000000000E+00  0.45593999997E+02  0.45594000000E+02  0.51100000000E-03 0.  1.
         11   -1    0    0    0    0 -0.00000000000E+00 -0.00000000000E+00 -0.45593999997E+02  0.45594000000E+02  0.51100000000E-03 0. -1.
    9900012    2    1    2    0    0  0.19266885419E+02  0.77004904293E+01  0.34966590984E+02  0.50528770892E+02  0.29999729601E+02 0.  0.
         12    1    1    2    0    0 -0.19266885419E+02 -0.77004904293E+01 -0.34966590984E+02  0.40659229108E+02  0.00000000000E+00 0. -1.
         11    1    3    3    0    0  0.20276803006E+01  0.84668872148E+00 -0.11401513150E+01  0.24755432686E+01  0.51100000000E-03 0. -1.
        -11    1    3    3    0    0  0.10647973479E+02  0.56077048728E+01  0.74122535138E+00  0.12057160048E+02  0.51100000000E-03 0.  1.
         12    1    3    3    0    0  0.65912316398E+01  0.12460968351E+01  0.35365516948E+02  0.35996067575E+02  0.00000000000E+00 0. -1.
</event>
<event>
 7    1  0.2838209E-011  0.5052886E+02  0.7816164E-02  0.1300439E+00
        -11   -1    0    0    0    0  0.00000000000E+00  0.00000000000E+00  0.45593999997E+02  0.45594000000E+02  0.51100000000E-03 0.  1.
         11   -1    0    0    0    0 -0.00000000000E+00 -0.00000000000E+00 -0.45593999997E+02  0.45594000000E+02  0.51100000000E-03 0. -1.
    9900012    2    1    2    0    0 -0.18832929820E+02  0.17752705281E+02  0.31358061171E+02  0.50528858459E+02  0.29999995773E+02 0.  0.
         12    1    1    2    0    0  0.18832929820E+02 -0.17752705281E+02 -0.31358061171E+02  0.40659141541E+02  0.00000000000E+00 0. -1.
         11    1    3    3    0    0 -0.12991260670E+02  0.14004804638E+02  0.10672987546E+02  0.21881957641E+02  0.51100000000E-03 0. -1.
        -11    1    3    3    0    0 -0.26400388820E+01  0.11306009997E+02  0.12158920610E+02  0.16811752378E+02  0.51100000000E-03 0.  1.
        -12    1    3    3    0    0 -0.32016302671E+01 -0.75581093539E+01  0.85261530159E+01  0.11835148441E+02  0.00000000000E+00 0.  1.
</event>
<event>
 7    1  0.2838209E-011  0.5052887E+02  0.7816164E-02  0.1300439E+00
        -11   -1    0    0    0    0  0.00000000000E+00  0.00000000000E+00  0.45593999997E+02  0.45594000000E+02  0.51100000000E-03 0.  1.
         11   -1    0    0    0    0 -0.00000000000E+00 -0.00000000000E+00 -0.45593999997E+02  0.45594000000E+02  0.51100000000E-03 0. -1.
    9900012    2    1    2    0    0  0.25105556919E+01  0.23566800628E+02  0.33037371506E+02  0.50528869442E+02  0.30000029155E+02 0.  0.
         12    1    1    2    0    0 -0.25105556919E+01 -0.23566800628E+02 -0.33037371506E+02  0.40659130558E+02  0.00000000000E+00 0. -1.
         11    1    3    3    0    0  0.31319458816E+01  0.51658379178E+01 -0.50888351618E+01  0.78988106677E+01  0.51100000000E-03 0. -1.
        -11    1    3    3    0    0  0.17665739279E+01  0.49316615744E+01  0.82741299606E+01  0.97930228322E+01  0.51100000000E-03 0.  1.
        -12    1    3    3    0    0 -0.23879641176E+01  0.13469301135E+02  0.29852076707E+02  0.32837035942E+02  0.00000000000E+00 0.  1.
</event>
<event>
 7    1  0.2838209E-011  0.5052889E+02  0.7816164E-02  0.1300439E+00
        -11   -1    0    0    0    0  0.00000000000E+00  0.00000000000E+00  0.45593999997E+02  0.45594000000E+02  0.51100000000E-03 0. -1.
         11   -1    0    0    0    0 -0.00000000000E+00 -0.00000000000E+00 -0.45593999997E+02  0.45594000000E+02  0.51100000000E-03 0.  1.
    9900012    2    1    2    0    0 -0.91679173813E+01  0.80008002267E+00 -0.39603943620E+02  0.50528890474E+02  0.30000093085E+02 0.  0.
         12    1    1    2    0    0  0.91679173813E+01 -0.80008002267E+00  0.39603943620E+02  0.40659109526E+02  0.00000000000E+00 0. -1.
         11    1    3    3    0    0 -0.10627231033E+02 -0.51627158202E+00 -0.14293866252E+02  0.17819068115E+02  0.51100000000E-03 0. -1.
        -11    1    3    3    0    0 -0.42157924817E+01  0.33396267752E+01  0.12110347703E+01  0.55129500925E+01  0.51100000000E-03 0.  1.
        -12    1    3    3    0    0  0.56751061339E+01 -0.20232751705E+01 -0.26521112138E+02  0.27196872267E+02  0.00000000000E+00 0.  1.
</event>
<event>
 7    1  0.2838209E-011  0.5052888E+02  0.7816164E-02  0.1300439E+00
        -11   -1    0    0    0    0  0.00000000000E+00  0.00000000000E+00  0.45593999997E+02  0.45594000000E+02  0.51100000000E-03 0. -1.
         11   -1    0    0    0    0 -0.00000000000E+00 -0.00000000000E+00 -0.45593999997E+02  0.45594000000E+02  0.51100000000E-03 0.  1.
    9900012    2    1    2    0    0 -0.28428882025E+02  0.22877491180E+02 -0.17932735064E+02  0.50528881432E+02  0.30000065600E+02 0.  0.
         12    1    1    2    0    0  0.28428882025E+02 -0.22877491180E+02  0.17932735064E+02  0.40659118568E+02  0.00000000000E+00 0. -1.
         11    1    3    3    0    0 -0.10422860926E+02  0.35443395910E+01  0.58597436023E+00  0.11024597010E+02  0.51100000000E-03 0. -1.
        -11    1    3    3    0    0 -0.17825519382E+02  0.11845871206E+02 -0.21584422862E+01  0.21511222169E+02  0.51100000000E-03 0.  1.
        -12    1    3    3    0    0 -0.18050171722E+00  0.74872803835E+01 -0.16360267138E+02  0.17993062253E+02  0.00000000000E+00 0.  1.
</event>
<event>
 7    1  0.2838209E-011  0.5052886E+02  0.7816164E-02  0.1300439E+00
        -11   -1    0    0    0    0  0.00000000000E+00  0.00000000000E+00  0.45593999997E+02  0.45594000000E+02  0.51100000000E-03 0.  1.
         11   -1    0    0    0    0 -0.00000000000E+00 -0.00000000000E+00 -0.45593999997E+02  0.45594000000E+02  0.51100000000E-03 0. -1.
    9900012    2    1    2    0    0 -0.17103108908E+02  0.29679379996E+02  0.21903959484E+02  0.50528863606E+02  0.30000011416E+02 0.  0.
         12    1    1    2    0    0  0.17103108908E+02 -0.29679379996E+02 -0.21903959484E+02  0.40659136394E+02  0.00000000000E+00 0. -1.
         11    1    3    3    0    0 -0.73350998158E+01  0.85452699663E+01  0.76953766005E+01  0.13639800196E+02  0.51100000000E-03 0.  1.
        -11    1    3    3    0    0 -0.14307183993E+02  0.21592893324E+02  0.17502821702E+02  0.31261754968E+02  0.51100000000E-03 0. -1.
         12    1    3    3    0    0  0.45391749017E+01 -0.45878329406E+00 -0.32942388185E+01  0.56273084412E+01  0.00000000000E+00 0. -1.
</event>
<event>
 7    1  0.2838209E-011  0.5052881E+02  0.7816164E-02  0.1300439E+00
        -11   -1    0    0    0    0  0.00000000000E+00  0.00000000000E+00  0.45593999997E+02  0.45594000000E+02  0.51100000000E-03 0.  1.
         11   -1    0    0    0    0 -0.00000000000E+00 -0.00000000000E+00 -0.45593999997E+02  0.45594000000E+02  0.51100000000E-03 0. -1.
    9900012    2    1    2    0    0  0.39794487610E+02 -0.26693361994E+01  0.79021177561E+01  0.50528805900E+02  0.29999836012E+02 0.  0.
         12    1    1    2    0    0 -0.39794487610E+02  0.26693361994E+01 -0.79021177561E+01  0.40659194100E+02  0.00000000000E+00 0. -1.
         11    1    3    3    0    0  0.10536132384E+02  0.26409330040E+01  0.77277411691E+01  0.13330513740E+02  0.51100000000E-03 0. -1.
        -11    1    3    3    0    0  0.10705753303E+02  0.86195217488E+01  0.21616443866E+01  0.13913375423E+02  0.51100000000E-03 0.  1.
         12    1    3    3    0    0  0.18552601923E+02 -0.13929790952E+02 -0.19872677996E+01  0.23284916736E+02  0.00000000000E+00 0. -1.
</event>
<event>
 7    1  0.2838209E-011  0.5052885E+02  0.7816164E-02  0.1300439E+00
        -11   -1    0    0    0    0  0.00000000000E+00  0.00000000000E+00  0.45593999997E+02  0.45594000000E+02  0.51100000000E-03 0. -1.
         11   -1    0    0    0    0 -0.00000000000E+00 -0.00000000000E+00 -0.45593999997E+02  0.45594000000E+02  0.51100000000E-03 0.  1.
    9900012    2    1    2    0    0 -0.20981580817E+02 -0.34264922359E+02 -0.62333512023E+01  0.50528852136E+02  0.29999976551E+02 0.  0.
         12    1    1    2    0    0  0.20981580817E+02  0.34264922359E+02  0.62333512023E+01  0.40659147864E+02  0.00000000000E+00 0. -1.
         11    1    3    3    0    0  0.47726375677E+01 -0.17008085885E+02 -0.33899939425E+01  0.17987359840E+02  0.51100000000E-03 0. -1.
        -11    1    3    3    0    0  0.43610753671E+00 -0.33215317561E+00  0.98210373248E+00  0.11247415339E+01  0.51100000000E-03 0.  1.
        -12    1    3    3    0    0 -0.26190325921E+02 -0.16924683299E+02 -0.38254609923E+01  0.31416750762E+02  0.00000000000E+00 0.  1.
</event>
<event>
 7    1  0.2838209E-011  0.5052886E+02  0.7816164E-02  0.1300439E+00
        -11   -1    0    0    0    0  0.00000000000E+00  0.00000000000E+00  0.45593999997E+02  0.45594000000E+02  0.51100000000E-03 0.  1.
         11   -1    0    0    0    0 -0.00000000000E+00 -0.00000000000E+00 -0.45593999997E+02  0.45594000000E+02  0.51100000000E-03 0. -1.
    9900012    2    1    2    0    0 -0.32062134287E+02  0.60448515632E+01 -0.24262001382E+02  0.50528863308E+02  0.30000010512E+02 0.  0.
         12    1    1    2    0    0  0.32062134287E+02 -0.60448515632E+01  0.24262001382E+02  0.40659136692E+02  0.00000000000E+00 0. -1.
         11    1    3    3    0    0 -0.93136693773E+01  0.16674356554E+00  0.11093301216E+01  0.93809836513E+01  0.51100000000E-03 0. -1.
        -11    1    3    3    0    0 -0.21168161812E+02  0.97287131424E+01 -0.10228262965E+02  0.25443197469E+02  0.51100000000E-03 0.  1.
         12    1    3    3    0    0 -0.15803030975E+01 -0.38506051447E+01 -0.15143068539E+02  0.15704682188E+02  0.00000000000E+00 0. -1.
</event>
<event>
 7    1  0.2838209E-011  0.5052886E+02  0.7816164E-02  0.1300439E+00
        -11   -1    0    0    0    0  0.00000000000E+00  0.00000000000E+00  0.45593999997E+02  0.45594000000E+02  0.51100000000E-03 0.  1.
         11   -1    0    0    0    0 -0.00000000000E+00 -0.00000000000E+00 -0.45593999997E+02  0.45594000000E+02  0.51100000000E-03 0. -1.
    9900012    2    1    2    0    0  0.16610244648E+02 -0.23184978144E+02  0.28977960553E+02  0.50528860356E+02  0.30000001538E+02 0.  0.
         12    1    1    2    0    0 -0.16610244648E+02  0.23184978144E+02 -0.28977960553E+02  0.40659139644E+02  0.00000000000E+00 0. -1.
         11    1    3    3    0    0  0.84955149050E+01 -0.80558031511E+01  0.13688095022E+02  0.18012042735E+02  0.51100000000E-03 0.  1.
        -11    1    3    3    0    0  0.98538293665E+01 -0.19919688580E+02  0.79950429056E+01  0.23618057872E+02  0.51100000000E-03 0. -1.
         12    1    3    3    0    0 -0.17390996237E+01  0.47905135873E+01  0.72948226250E+01  0.88987597485E+01  0.00000000000E+00 0. -1.
</event>
<event>
 7    1  0.2838209E-011  0.5052886E+02  0.7816164E-02  0.1300439E+00
        -11   -1    0    0    0    0  0.00000000000E+00  0.00000000000E+00  0.45593999997E+02  0.45594000000E+02  0.51100000000E-03 0. -1.
         11   -1    0    0    0    0 -0.00000000000E+00 -0.00000000000E+00 -0.45593999997E+02  0.45594000000E+02  0.51100000000E-03 0.  1.
    9900012    2    1    2    0    0  0.30173830737E+02 -0.15748993098E+02 -0.22241280151E+02  0.50528863417E+02  0.30000010841E+02 0.  0.
         12    1    1    2    0    0 -0.30173830737E+02  0.15748993098E+02  0.22241280151E+02  0.40659136583E+02  0.00000000000E+00 0. -1.
         11    1    3    3    0    0  0.16116852303E+02 -0.99790524085E+01 -0.45792310864E+01  0.19501378739E+02  0.51100000000E-03 0. -1.
        -11    1    3    3    0    0 -0.65436825875E+00 -0.94542409641E+01 -0.30185504499E+01  0.99459799469E+01  0.51100000000E-03 0.  1.
        -12    1    3    3    0    0  0.14711346693E+02  0.36843002747E+01 -0.14643498614E+02  0.21081504731E+02  0.00000000000E+00 0.  1.
</event>
<event>
 7    1  0.2838209E-011  0.5052890E+02  0.7816164E-02  0.1300439E+00
        -11   -1    0    0    0    0  0.00000000000E+00  0.00000000000E+00  0.45593999997E+02  0.45594000000E+02  0.51100000000E-03 0. -1.
         11   -1    0    0    0    0 -0.00000000000E+00 -0.00000000000E+00 -0.45593999997E+02  0.45594000000E+02  0.51100000000E-03 0.  1.
    9900012    2    1    2    0    0 -0.21956239997E+01  0.23652556559E+02 -0.32998459269E+02  0.50528898797E+02  0.30000118383E+02 0.  0.
         12    1    1    2    0    0  0.21956239997E+01 -0.23652556559E+02  0.32998459269E+02  0.40659101203E+02  0.00000000000E+00 0. -1.
         11    1    3    3    0    0  0.80054900535E+01  0.65025629724E+01 -0.11486268377E+02  0.15437148626E+02  0.51100000000E-03 0. -1.
        -11    1    3    3    0    0 -0.96609101166E+01  0.16467111782E+02 -0.25022996662E+02  0.31474582077E+02  0.51100000000E-03 0.  1.
         12    1    3    3    0    0 -0.54020393661E+00  0.68288180517E+00  0.35108057711E+01  0.36171680934E+01  0.00000000000E+00 0. -1.
</event>
<event>
 7    1  0.2838209E-011  0.5052886E+02  0.7816164E-02  0.1300439E+00
        -11   -1    0    0    0    0  0.00000000000E+00  0.00000000000E+00  0.45593999997E+02  0.45594000000E+02  0.51100000000E-03 0.  1.
         11   -1    0    0    0    0 -0.00000000000E+00 -0.00000000000E+00 -0.45593999997E+02  0.45594000000E+02  0.51100000000E-03 0. -1.
    9900012    2    1    2    0    0  0.11318184296E+02  0.21059417916E+02  0.32887155463E+02  0.50528863595E+02  0.30000011385E+02 0.  0.
         12    1    1    2    0    0 -0.11318184296E+02 -0.21059417916E+02 -0.32887155463E+02  0.40659136405E+02  0.00000000000E+00 0. -1.
         11    1    3    3    0    0  0.57810577876E+01  0.13810929801E+02  0.16916664282E+02  0.22590616233E+02  0.51100000000E-03 0.  1.
        -11    1    3    3    0    0  0.12280391567E+02  0.22593408592E+01  0.36057524697E+01  0.12996695322E+02  0.51100000000E-03 0. -1.
         12    1    3    3    0    0 -0.67432650579E+01  0.49891472551E+01  0.12364738711E+02  0.14941552040E+02  0.00000000000E+00 0. -1.
</event>
<event>
 7    1  0.2838209E-011  0.5052877E+02  0.7816164E-02  0.1300439E+00
        -11   -1    0    0    0    0  0.00000000000E+00  0.00000000000E+00  0.45593999997E+02  0.45594000000E+02  0.51100000000E-03 0.  1.
         11   -1    0    0    0    0 -0.00000000000E+00 -0.00000000000E+00 -0.45593999997E+02  0.45594000000E+02  0.51100000000E-03 0. -1.
    9900012    2    1    2    0    0  0.20095771759E+02 -0.92601535842E+01  0.34111327465E+02  0.50528767980E+02  0.29999720751E+02 0.  0.
         12    1    1    2    0    0 -0.20095771759E+02  0.92601535842E+01 -0.34111327465E+02  0.40659232020E+02  0.00000000000E+00 0. -1.
         11    1    3    3    0    0 -0.11404957831E+00 -0.32130328542E+01 -0.30297170584E+01  0.44176660290E+01  0.51100000000E-03 0. -1.
        -11    1    3    3    0    0  0.15638778957E+02 -0.10761163665E+02  0.19174031009E+02  0.26981799719E+02  0.51100000000E-03 0.  1.
         12    1    3    3    0    0  0.45710423799E+01  0.47140429350E+01  0.17967013515E+02  0.19129302232E+02  0.00000000000E+00 0. -1.
</event>
<event>
 7    1  0.2838209E-011  0.5052887E+02  0.7816164E-02  0.1300439E+00
        -11   -1    0    0    0    0  0.00000000000E+00  0.00000000000E+00  0.45593999997E+02  0.45594000000E+02  0.51100000000E-03 0.  1.
         11   -1    0    0    0    0 -0.00000000000E+00 -0.00000000000E+00 -0.45593999997E+02  0.45594000000E+02  0.51100000000E-03 0. -1.
    9900012    2    1    2    0    0  0.45847678162E+01 -0.23424666226E+02  0.32915498262E+02  0.50528866837E+02  0.30000021238E+02 0.  0.
         12    1    1    2    0    0 -0.45847678162E+01  0.23424666226E+02 -0.32915498262E+02  0.40659133163E+02  0.00000000000E+00 0. -1.
         11    1    3    3    0    0 -0.45080761186E+01 -0.82038611035E+01  0.36464992707E+01  0.10046046212E+02  0.51100000000E-03 0. -1.
        -11    1    3    3    0    0  0.42710716859E+01 -0.18909836655E+02  0.28347065454E+02  0.34342103834E+02  0.51100000000E-03 0.  1.
         12    1    3    3    0    0  0.48217722490E+01  0.36890315318E+01  0.92193353690E+00  0.61407167912E+01  0.00000000000E+00 0. -1.
</event>
<event>
 7    1  0.2838209E-011  0.5052887E+02  0.7816164E-02  0.1300439E+00
        -11   -1    0    0    0    0  0.00000000000E+00  0.00000000000E+00  0.45593999997E+02  0.45594000000E+02  0.51100000000E-03 0.  1.
         11   -1    0    0    0    0 -0.00000000000E+00 -0.00000000000E+00 -0.45593999997E+02  0.45594000000E+02  0.51100000000E-03 0. -1.
    9900012    2    1    2    0    0  0.61754903669E+01  0.27230890601E+02  0.29555153271E+02  0.50528866105E+02  0.30000019013E+02 0.  0.
         12    1    1    2    0    0 -0.61754903669E+01 -0.27230890601E+02 -0.29555153271E+02  0.40659133895E+02  0.00000000000E+00 0. -1.
         11    1    3    3    0    0  0.41197613573E+01 -0.30215594866E+01  0.53632632933E+01  0.74072159943E+01  0.51100000000E-03 0. -1.
        -11    1    3    3    0    0  0.37470098585E+01  0.16165879503E+01 -0.17547927314E+01  0.44421545754E+01  0.51100000000E-03 0.  1.
         12    1    3    3    0    0 -0.16912808489E+01  0.28635862138E+02  0.25946682709E+02  0.38679495535E+02  0.00000000000E+00 0. -1.
</event>
<event>
 7    1  0.2838209E-011  0.5052886E+02  0.7816164E-02  0.1300439E+00
        -11   -1    0    0    0    0  0.00000000000E+00  0.00000000000E+00  0.45593999997E+02  0.45594000000E+02  0.51100000000E-03 0.  1.
         11   -1    0    0    0    0 -0.00000000000E+00 -0.00000000000E+00 -0.45593999997E+02  0.45594000000E+02  0.51100000000E-03 0. -1.
    9900012    2    1    2    0    0  0.38119715529E+02 -0.14142692115E+02 -0.19286895291E+00  0.50528860183E+02  0.30000001012E+02 0.  0.
         12    1    1    2    0    0 -0.38119715529E+02  0.14142692115E+02  0.19286895291E+00  0.40659139817E+02  0.00000000000E+00 0. -1.
         11    1    3    3    0    0  0.84197644433E+01 -0.68747387696E+01  0.28047720642E+01  0.11225917024E+02  0.51100000000E-03 0. -1.
        -11    1    3    3    0    0  0.24140453563E+02  0.47349797560E+01  0.29927578237E+01  0.24781810490E+02  0.51100000000E-03 0.  1.
         12    1    3    3    0    0  0.55594975224E+01 -0.12002933101E+02 -0.59903988408E+01  0.14521132669E+02  0.00000000000E+00 0. -1.
</event>
<event>
 7    1  0.2838209E-011  0.5052879E+02  0.7816164E-02  0.1300439E+00
        -11   -1    0    0    0    0  0.00000000000E+00  0.00000000000E+00  0.45593999997E+02  0.45594000000E+02  0.51100000000E-03 0. -1.
         11   -1    0    0    0    0 -0.00000000000E+00 -0.00000000000E+00 -0.45593999997E+02  0.45594000000E+02  0.51100000000E-03 0.  1.
    9900012    2    1    2    0    0  0.16569721590E+02 -0.83923361447E+01 -0.36168834454E+02  0.50528787449E+02  0.29999779929E+02 0.  0.
         12    1    1    2    0    0 -0.16569721590E+02  0.83923361447E+01  0.36168834454E+02  0.40659212551E+02  0.00000000000E+00 0. -1.
         11    1    3    3    0    0  0.10032047777E+02  0.36820607408E+01 -0.70180327535E+00  0.10709438920E+02  0.51100000000E-03 0. -1.
        -11    1    3    3    0    0  0.35881387227E+01 -0.10766969133E+02 -0.13589845258E+02  0.17705543149E+02  0.51100000000E-03 0.  1.
        -12    1    3    3    0    0  0.29495350901E+01 -0.13074277529E+01 -0.21877185920E+02  0.22113805379E+02  0.00000000000E+00 0.  1.
</event>
<event>
 7    1  0.2838209E-011  0.5052886E+02  0.7816164E-02  0.1300439E+00
        -11   -1    0    0    0    0  0.00000000000E+00  0.00000000000E+00  0.45593999997E+02  0.45594000000E+02  0.51100000000E-03 0.  1.
         11   -1    0    0    0    0 -0.00000000000E+00 -0.00000000000E+00 -0.45593999997E+02  0.45594000000E+02  0.51100000000E-03 0. -1.
    9900012    2    1    2    0    0  0.23117818318E+02  0.31978940865E+02  0.98019936190E+01  0.50528864968E+02  0.30000015557E+02 0.  0.
         12    1    1    2    0    0 -0.23117818318E+02 -0.31978940865E+02 -0.98019936190E+01  0.40659135032E+02  0.00000000000E+00 0. -1.
         11    1    3    3    0    0 -0.40862828238E+00  0.44693255060E+01 -0.43179900766E+01  0.62279118583E+01  0.51100000000E-03 0. -1.
        -11    1    3    3    0    0  0.61463840709E+01  0.23309294168E+02  0.84098805957E+01  0.25530909182E+02  0.51100000000E-03 0.  1.
        -12    1    3    3    0    0  0.17380062530E+02  0.42003211910E+01  0.57101030998E+01  0.18770043928E+02  0.00000000000E+00 0.  1.
</event>
<event>
 7    1  0.2838209E-011  0.5052888E+02  0.7816164E-02  0.1300439E+00
        -11   -1    0    0    0    0  0.00000000000E+00  0.00000000000E+00  0.45593999997E+02  0.45594000000E+02  0.51100000000E-03 0.  1.
         11   -1    0    0    0    0 -0.00000000000E+00 -0.00000000000E+00 -0.45593999997E+02  0.45594000000E+02  0.51100000000E-03 0. -1.
    9900012    2    1    2    0    0 -0.81235451256E+01  0.29466126177E+02  0.26812679704E+02  0.50528875929E+02  0.30000048875E+02 0.  0.
         12    1    1    2    0    0  0.81235451256E+01 -0.29466126177E+02 -0.26812679704E+02  0.40659124071E+02  0.00000000000E+00 0. -1.
         11    1    3    3    0    0 -0.91969998246E+01  0.55816945391E+01  0.20854441580E+02  0.23465887019E+02  0.51100000000E-03 0. -1.
        -11    1    3    3    0    0 -0.14607831846E+01 -0.69205562153E+00  0.87729094924E+00  0.18391487614E+01  0.51100000000E-03 0.  1.
        -12    1    3    3    0    0  0.25342378837E+01  0.24576487260E+02  0.50809471745E+01  0.25223840149E+02  0.00000000000E+00 0.  1.
</event>
<event>
 7    1  0.2838209E-011  0.5052884E+02  0.7816164E-02  0.1300439E+00
        -11   -1    0    0    0    0  0.00000000000E+00  0.00000000000E+00  0.45593999997E+02  0.45594000000E+02  0.51100000000E-03 0. -1.
         11   -1    0    0    0    0 -0.00000000000E+00 -0.00000000000E+00 -0.45593999997E+02  0.45594000000E+02  0.51100000000E-03 0.  1.
    9900012    2    1    2    0    0  0.22601703556E+02 -0.26665408041E+02 -0.20767431376E+02  0.50528841185E+02  0.29999943265E+02 0.  0.
         12    1    1    2    0    0 -0.22601703556E+02  0.26665408041E+02  0.20767431376E+02  0.40659158815E+02  0.00000000000E+00 0. -1.
         11    1    3    3    0    0  0.55724946390E+01 -0.12467855164E+02 -0.81614869223E+01  0.15909430472E+02  0.51100000000E-03 0. -1.
        -11    1    3    3    0    0  0.22840909201E+02 -0.12768272368E+02 -0.11247448726E+02  0.28482293017E+02  0.51100000000E-03 0.  1.
         12    1    3    3    0    0 -0.58117002846E+01 -0.14292805094E+01 -0.13584957273E+01  0.61371176959E+01  0.00000000000E+00 0. -1.
</event>
<event>
 7    1  0.2838209E-011  0.5052886E+02  0.7816164E-02  0.1300439E+00
        -11   -1    0    0    0    0  0.00000000000E+00  0.00000000000E+00  0.45593999997E+02  0.45594000000E+02  0.51100000000E-03 0.  1.
         11   -1    0    0    0    0 -0.00000000000E+00 -0.00000000000E+00 -0.45593999997E+02  0.45594000000E+02  0.51100000000E-03 0. -1.
    9900012    2    1    2    0    0 -0.82611166863E+01 -0.29901286610E+02  0.26283702846E+02  0.50528855578E+02  0.29999987014E+02 0.  0.
         12    1    1    2    0    0  0.82611166863E+01  0.29901286610E+02 -0.26283702846E+02  0.40659144422E+02  0.00000000000E+00 0. -1.
         11    1    3    3    0    0 -0.20238681820E+00 -0.15492975828E+02  0.87402359391E+01  0.17789462751E+02  0.51100000000E-03 0. -1.
        -11    1    3    3    0    0 -0.67776366713E+01 -0.16665519817E+02  0.33370805694E+01  0.18297869182E+02  0.51100000000E-03 0.  1.
         12    1    3    3    0    0 -0.12810931968E+01  0.22572090349E+01  0.14206386338E+02  0.14441523645E+02  0.00000000000E+00 0. -1.
</event>
<event>
 7    1  0.2838209E-011  0.5052877E+02  0.7816164E-02  0.1300439E+00
        -11   -1    0    0    0    0  0.00000000000E+00  0.00000000000E+00  0.45593999997E+02  0.45594000000E+02  0.51100000000E-03 0.  1.
         11   -1    0    0    0    0 -0.00000000000E+00 -0.00000000000E+00 -0.45593999997E+02  0.45594000000E+02  0.51100000000E-03 0. -1.
    9900012    2    1    2    0    0  0.22433460227E+02  0.90504211560E+00  0.33898290549E+02  0.50528765610E+02  0.29999713548E+02 0.  0.
         12    1    1    2    0    0 -0.22433460227E+02 -0.90504211560E+00 -0.33898290549E+02  0.40659234390E+02  0.00000000000E+00 0. -1.
         11    1    3    3    0    0  0.28300952499E+02 -0.17848051638E+01  0.19862290417E+02  0.34621381005E+02  0.51100000000E-03 0.  1.
        -11    1    3    3    0    0 -0.14825888635E+01  0.23322450411E+01  0.78045217182E+01  0.82793717262E+01  0.51100000000E-03 0. -1.
        -12    1    3    3    0    0 -0.43849034081E+01  0.35760223827E+00  0.62314784139E+01  0.76280128790E+01  0.00000000000E+00 0.  1.
</event>
<event>
 7    1  0.2838209E-011  0.5052886E+02  0.7816164E-02  0.1300439E+00
        -11   -1    0    0    0    0  0.00000000000E+00  0.00000000000E+00  0.45593999997E+02  0.45594000000E+02  0.51100000000E-03 0.  1.
         11   -1    0    0    0    0 -0.00000000000E+00 -0.00000000000E+00 -0.45593999997E+02  0.45594000000E+02  0.51100000000E-03 0. -1.
    9900012    2    1    2    0    0  0.10214157200E+01  0.88438526278E+01  0.39672515305E+02  0.50528862159E+02  0.30000007017E+02 0.  0.
         12    1    1    2    0    0 -0.10214157200E+01 -0.88438526278E+01 -0.39672515305E+02  0.40659137841E+02  0.00000000000E+00 0. -1.
         11    1    3    3    0    0  0.48574146896E+01 -0.19071493826E+01  0.34955893531E+01  0.62809904809E+01  0.51100000000E-03 0. -1.
        -11    1    3    3    0    0  0.81532042767E+01  0.79774741379E+01  0.94083722362E+01  0.14786220004E+02  0.51100000000E-03 0.  1.
         12    1    3    3    0    0 -0.11989203246E+02  0.27735278726E+01  0.26768553716E+02  0.29461651674E+02  0.00000000000E+00 0. -1.
</event>
<event>
 7    1  0.2838209E-011  0.5052886E+02  0.7816164E-02  0.1300439E+00
        -11   -1    0    0    0    0  0.00000000000E+00  0.00000000000E+00  0.45593999997E+02  0.45594000000E+02  0.51100000000E-03 0.  1.
         11   -1    0    0    0    0 -0.00000000000E+00 -0.00000000000E+00 -0.45593999997E+02  0.45594000000E+02  0.51100000000E-03 0. -1.
    9900012    2    1    2    0    0 -0.38456810499E+01  0.32309012519E+02  0.24382458875E+02  0.50528857689E+02  0.29999993431E+02 0.  0.
         12    1    1    2    0    0  0.38456810499E+01 -0.32309012519E+02 -0.24382458875E+02  0.40659142311E+02  0.00000000000E+00 0. -1.
         11    1    3    3    0    0 -0.57309238754E+01  0.21881745836E+02  0.24360918122E+02  0.33243174056E+02  0.51100000000E-03 0. -1.
        -11    1    3    3    0    0 -0.46250581606E+01  0.24055151128E+01  0.36188517948E+01  0.63461606126E+01  0.51100000000E-03 0.  1.
         12    1    3    3    0    0  0.65103009861E+01  0.80217515705E+01 -0.35973110419E+01  0.10939523021E+02  0.00000000000E+00 0. -1.
</event>
<event>
 7    1  0.2838209E-011  0.5052886E+02  0.7816164E-02  0.1300439E+00
        -11   -1    0    0    0    0  0.00000000000E+00  0.00000000000E+00  0.45593999997E+02  0.45594000000E+02  0.51100000000E-03 0.  1.
         11   -1    0    0    0    0 -0.00000000000E+00 -0.00000000000E+00 -0.45593999997E+02  0.45594000000E+02  0.51100000000E-03 0. -1.
    9900012    2    1    2    0    0 -0.29183158434E+02  0.19772724044E+02  0.20261985338E+02  0.50528863239E+02  0.30000010301E+02 0.  0.
         12    1    1    2    0    0  0.29183158434E+02 -0.19772724044E+02 -0.20261985338E+02  0.40659136761E+02  0.00000000000E+00 0. -1.
         11    1    3    3    0    0 -0.18844577071E+01  0.42922577755E+01 -0.22360221338E+01  0.51936935706E+01  0.51100000000E-03 0. -1.
        -11    1    3    3    0    0  0.33562265052E+01  0.41237333584E+01 -0.53674363102E+00  0.53439243213E+01  0.51100000000E-03 0.  1.
         12    1    3    3    0    0 -0.30654927232E+02  0.11356732910E+02  0.23034751103E+02  0.39991245347E+02  0.00000000000E+00 0. -1.
</event>
<event>
 7    1  0.2838209E-011  0.5052886E+02  0.7816164E-02  0.1300439E+00
        -11   -1    0    0    0    0  0.00000000000E+00  0.00000000000E+00  0.45593999997E+02  0.45594000000E+02  0.51100000000E-03 0. -1.
         11   -1    0    0    0    0 -0.00000000000E+00 -0.00000000000E+00 -0.45593999997E+02  0.45594000000E+02  0.51100000000E-03 0.  1.
    9900012    2    1    2    0    0  0.36769850514E+02 -0.11384869967E+02 -0.13096884434E+02  0.50528861386E+02  0.30000004669E+02 0.  0.
         12    1    1    2    0    0 -0.36769850514E+02  0.11384869967E+02  0.13096884434E+02  0.40659138614E+02  0.00000000000E+00 0. -1.
         11    1    3    3    0    0  0.19722894145E+02 -0.54038954344E+01  0.67152627446E+01  0.21524158365E+02  0.51100000000E-03 0. -1.
        -11    1    3    3    0    0 -0.51600458558E+00 -0.16499715025E+01  0.50568747769E+00  0.18012181372E+01  0.51100000000E-03 0.  1.
        -12    1    3    3    0    0  0.17562960954E+02 -0.43310030304E+01 -0.20317834656E+02  0.27203484884E+02  0.00000000000E+00 0.  1.
</event>
<event>
 7    1  0.2838209E-011  0.5052885E+02  0.7816164E-02  0.1300439E+00
        -11   -1    0    0    0    0  0.00000000000E+00  0.00000000000E+00  0.45593999997E+02  0.45594000000E+02  0.51100000000E-03 0. -1.
         11   -1    0    0    0    0 -0.00000000000E+00 -0.00000000000E+00 -0.45593999997E+02  0.45594000000E+02  0.51100000000E-03 0.  1.
    9900012    2    1    2    0    0  0.28374839222E+02 -0.21620582045E+02 -0.19508590250E+02  0.50528853890E+02  0.29999981884E+02 0.  0.
         12    1    1    2    0    0 -0.28374839222E+02  0.21620582045E+02  0.19508590250E+02  0.40659146110E+02  0.00000000000E+00 0. -1.
         11    1    3    3    0    0  0.24045527481E+01 -0.34915678132E+00 -0.37636731323E+00  0.24587470370E+01  0.51100000000E-03 0. -1.
        -11    1    3    3    0    0  0.30667805912E+02 -0.22551731482E+02 -0.20186854534E+02  0.43088327985E+02  0.51100000000E-03 0.  1.
         12    1    3    3    0    0 -0.46975194380E+01  0.12803062188E+01  0.10546315965E+01  0.49817788679E+01  0.00000000000E+00 0. -1.
</event>
<event>
 7    1  0.2838209E-011  0.5052886E+02  0.7816164E-02  0.1300439E+00
        -11   -1    0    0    0    0  0.00000000000E+00  0.00000000000E+00  0.45593999997E+02  0.45594000000E+02  0.51100000000E-03 0.  1.
         11   -1    0    0    0    0 -0.00000000000E+00 -0.00000000000E+00 -0.45593999997E+02  0.45594000000E+02  0.51100000000E-03 0. -1.
    9900012    2    1    2    0    0 -0.11040823526E+02  0.37445258812E+02  0.11363041026E+02  0.50528857203E+02  0.29999991955E+02 0.  0.
         12    1    1    2    0    0  0.11040823526E+02 -0.37445258812E+02 -0.11363041026E+02  0.40659142797E+02  0.00000000000E+00 0. -1.
         11    1    3    3    0    0 -0.96821996611E+01  0.10156285699E+02 -0.68554477998E+01  0.15617051395E+02  0.51100000000E-03 0. -1.
        -11    1    3    3    0    0 -0.57578509697E+01  0.17214137928E+02  0.77682864979E+01  0.19744003337E+02  0.51100000000E-03 0.  1.
        -12    1    3    3    0    0  0.43992271045E+01  0.10074835185E+02  0.10450202328E+02  0.15167802472E+02  0.00000000000E+00 0.  1.
</event>
<event>
 7    1  0.2838209E-011  0.5052883E+02  0.7816164E-02  0.1300439E+00
        -11   -1    0    0    0    0  0.00000000000E+00  0.00000000000E+00  0.45593999997E+02  0.45594000000E+02  0.51100000000E-03 0.  1.
         11   -1    0    0    0    0 -0.00000000000E+00 -0.00000000000E+00 -0.45593999997E+02  0.45594000000E+02  0.51100000000E-03 0. -1.
    9900012    2    1    2    0    0  0.19545283411E+02 -0.23209996856E+02  0.27063737722E+02  0.50528831819E+02  0.29999914797E+02 0.  0.
         12    1    1    2    0    0 -0.19545283411E+02  0.23209996856E+02 -0.27063737722E+02  0.40659168181E+02  0.00000000000E+00 0. -1.
         11    1    3    3    0    0 -0.17096257891E+00  0.37196408422E+01 -0.50120397839E+00  0.37571481057E+01  0.51100000000E-03 0. -1.
        -11    1    3    3    0    0 -0.22997265358E+00 -0.26113011994E+01  0.10833636384E+02  0.11146275563E+02  0.51100000000E-03 0.  1.
        -12    1    3    3    0    0  0.19946218643E+02 -0.24318336499E+02  0.16731305317E+02  0.35625408150E+02  0.00000000000E+00 0.  1.
</event>
<event>
 7    1  0.2838209E-011  0.5052891E+02  0.7816164E-02  0.1300439E+00
        -11   -1    0    0    0    0  0.00000000000E+00  0.00000000000E+00  0.45593999997E+02  0.45594000000E+02  0.51100000000E-03 0.  1.
         11   -1    0    0    0    0 -0.00000000000E+00 -0.00000000000E+00 -0.45593999997E+02  0.45594000000E+02  0.51100000000E-03 0. -1.
    9900012    2    1    2    0    0 -0.23073186179E+02 -0.22196617281E+02  0.25061925882E+02  0.50528906699E+02  0.30000142401E+02 0.  0.
         12    1    1    2    0    0  0.23073186179E+02  0.22196617281E+02 -0.25061925882E+02  0.40659093301E+02  0.00000000000E+00 0. -1.
         11    1    3    3    0    0 -0.16277464020E+02 -0.11780075432E+02  0.12824211247E+02  0.23836660976E+02  0.51100000000E-03 0.  1.
        -11    1    3    3    0    0  0.13923839990E+00  0.55480116053E+01  0.24543487749E+00  0.55551830433E+01  0.51100000000E-03 0. -1.
         12    1    3    3    0    0 -0.69349605594E+01 -0.15964553454E+02  0.11992279758E+02  0.21137062680E+02  0.00000000000E+00 0. -1.
</event>
<event>
 7    1  0.2838209E-011  0.5052886E+02  0.7816164E-02  0.1300439E+00
        -11   -1    0    0    0    0  0.00000000000E+00  0.00000000000E+00  0.45593999997E+02  0.45594000000E+02  0.51100000000E-03 0.  1.
         11   -1    0    0    0    0 -0.00000000000E+00 -0.00000000000E+00 -0.45593999997E+02  0.45594000000E+02  0.51100000000E-03 0. -1.
    9900012    2    1    2    0    0  0.34508880897E+02  0.10011549046E+02 -0.19028176233E+02  0.50528862456E+02  0.30000007921E+02 0.  0.
         12    1    1    2    0    0 -0.34508880897E+02 -0.10011549046E+02  0.19028176233E+02  0.40659137544E+02  0.00000000000E+00 0. -1.
         11    1    3    3    0    0  0.16010988056E+02 -0.89793706515E+00  0.70773504845E-01  0.16036303772E+02  0.51100000000E-03 0. -1.
        -11    1    3    3    0    0  0.16689003313E+02  0.50812654944E+01 -0.35691190628E+01  0.17806760002E+02  0.51100000000E-03 0.  1.
         12    1    3    3    0    0  0.18088895278E+01  0.58282206165E+01 -0.15529830675E+02  0.16685798683E+02  0.00000000000E+00 0. -1.
</event>
<event>
 7    1  0.2838209E-011  0.5052886E+02  0.7816164E-02  0.1300439E+00
        -11   -1    0    0    0    0  0.00000000000E+00  0.00000000000E+00  0.45593999997E+02  0.45594000000E+02  0.51100000000E-03 0.  1.
         11   -1    0    0    0    0 -0.00000000000E+00 -0.00000000000E+00 -0.45593999997E+02  0.45594000000E+02  0.51100000000E-03 0. -1.
    9900012    2    1    2    0    0  0.32949617926E+01  0.93770980235E+01  0.39425609339E+02  0.50528863115E+02  0.30000009923E+02 0.  0.
         12    1    1    2    0    0 -0.32949617926E+01 -0.93770980235E+01 -0.39425609339E+02  0.40659136885E+02  0.00000000000E+00 0. -1.
         11    1    3    3    0    0 -0.15872413996E+01  0.31668014219E+00 -0.28241634563E+01  0.32550761991E+01  0.51100000000E-03 0. -1.
        -11    1    3    3    0    0 -0.34202049879E+01  0.11938229135E+02  0.25077481024E+02  0.27983909159E+02  0.51100000000E-03 0.  1.
         12    1    3    3    0    0  0.83024081801E+01 -0.28778112538E+01  0.17172291771E+02  0.19289877756E+02  0.00000000000E+00 0. -1.
</event>
<event>
 7    1  0.2838209E-011  0.5052887E+02  0.7816164E-02  0.1300439E+00
        -11   -1    0    0    0    0  0.00000000000E+00  0.00000000000E+00  0.45593999997E+02  0.45594000000E+02  0.51100000000E-03 0.  1.
         11   -1    0    0    0    0 -0.00000000000E+00 -0.00000000000E+00 -0.45593999997E+02  0.45594000000E+02  0.51100000000E-03 0. -1.
    9900012    2    1    2    0    0  0.21063942959E+02 -0.31171182287E+02  0.15421810580E+02  0.50528873845E+02  0.30000042539E+02 0.  0.
         12    1    1    2    0    0 -0.21063942959E+02  0.31171182287E+02 -0.15421810580E+02  0.40659126155E+02  0.00000000000E+00 0. -1.
         11    1    3    3    0    0  0.23932702832E+00  0.25108524168E+01  0.23758130841E+01  0.34649885075E+01  0.51100000000E-03 0. -1.
        -11    1    3    3    0    0  0.41855213879E+01 -0.25337782414E+02  0.12196953011E+02  0.28430396936E+02  0.51100000000E-03 0.  1.
         12    1    3    3    0    0  0.16639094542E+02 -0.83442522899E+01  0.84904448503E+00  0.18633488401E+02  0.00000000000E+00 0. -1.
</event>
<event>
 7    1  0.2838209E-011  0.5052886E+02  0.7816164E-02  0.1300439E+00
        -11   -1    0    0    0    0  0.00000000000E+00  0.00000000000E+00  0.45593999997E+02  0.45594000000E+02  0.51100000000E-03 0. -1.
         11   -1    0    0    0    0 -0.00000000000E+00 -0.00000000000E+00 -0.45593999997E+02  0.45594000000E+02  0.51100000000E-03 0.  1.
    9900012    2    1    2    0    0  0.16299728032E+02  0.17569760117E+02  0.32844903771E+02  0.50528864394E+02  0.30000013813E+02 0.  0.
         12    1    1    2    0    0 -0.16299728032E+02 -0.17569760117E+02 -0.32844903771E+02  0.40659135606E+02  0.00000000000E+00 0. -1.
         11    1    3    3    0    0 -0.74092651758E+01  0.66455017014E+00  0.82294701719E+01  0.11093377166E+02  0.51100000000E-03 0. -1.
        -11    1    3    3    0    0  0.98916198226E+01  0.13207856652E+01  0.82129909438E+01  0.12924466642E+02  0.51100000000E-03 0.  1.
        -12    1    3    3    0    0  0.13817373385E+02  0.15584424281E+02  0.16402442655E+02  0.26511020586E+02  0.00000000000E+00 0.  1.
</event>
<event>
 7    1  0.2838209E-011  0.5052886E+02  0.7816164E-02  0.1300439E+00
        -11   -1    0    0    0    0  0.00000000000E+00  0.00000000000E+00  0.45593999997E+02  0.45594000000E+02  0.51100000000E-03 0. -1.
         11   -1    0    0    0    0 -0.00000000000E+00 -0.00000000000E+00 -0.45593999997E+02  0.45594000000E+02  0.51100000000E-03 0.  1.
    9900012    2    1    2    0    0 -0.33003648829E+02  0.16457330439E+02 -0.17119610935E+02  0.50528860317E+02  0.30000001421E+02 0.  0.
         12    1    1    2    0    0  0.33003648829E+02 -0.16457330439E+02  0.17119610935E+02  0.40659139683E+02  0.00000000000E+00 0. -1.
         11    1    3    3    0    0 -0.61110482989E+01 -0.21654234011E+01 -0.56101303786E+01  0.85736534187E+01  0.51100000000E-03 0. -1.
        -11    1    3    3    0    0 -0.89037180180E+01 -0.53163703115E+01 -0.22475767389E+01  0.10610918400E+02  0.51100000000E-03 0.  1.
         12    1    3    3    0    0 -0.17988882512E+02  0.23939124152E+02 -0.92619038174E+01  0.31344288499E+02  0.00000000000E+00 0. -1.
</event>
<event>
 7    1  0.2838209E-011  0.5052884E+02  0.7816164E-02  0.1300439E+00
        -11   -1    0    0    0    0  0.00000000000E+00  0.00000000000E+00  0.45593999997E+02  0.45594000000E+02  0.51100000000E-03 0.  1.
         11   -1    0    0    0    0 -0.00000000000E+00 -0.00000000000E+00 -0.45593999997E+02  0.45594000000E+02  0.51100000000E-03 0. -1.
    9900012    2    1    2    0    0  0.56953536505E+01 -0.32705788801E+02  0.23474694436E+02  0.50528844166E+02  0.29999952326E+02 0.  0.
         12    1    1    2    0    0 -0.56953536505E+01  0.32705788801E+02 -0.23474694436E+02  0.40659155834E+02  0.00000000000E+00 0. -1.
         11    1    3    3    0    0 -0.78671616977E+01 -0.83466878588E+01  0.31721499117E+01  0.11900502792E+02  0.51100000000E-03 0.  1.
        -11    1    3    3    0    0 -0.20454816251E+01  0.11366619597E+01  0.38518263616E+01  0.45069459804E+01  0.51100000000E-03 0. -1.
        -12    1    3    3    0    0  0.15607996973E+02 -0.25495762902E+02  0.16450718162E+02  0.34121395393E+02  0.00000000000E+00 0.  1.
</event>
<event>
 7    1  0.2838209E-011  0.5052887E+02  0.7816164E-02  0.1300439E+00
        -11   -1    0    0    0    0  0.00000000000E+00  0.00000000000E+00  0.45593999997E+02  0.45594000000E+02  0.51100000000E-03 0.  1.
         11   -1    0    0    0    0 -0.00000000000E+00 -0.00000000000E+00 -0.45593999997E+02  0.45594000000E+02  0.51100000000E-03 0. -1.
    9900012    2    1    2    0    0 -0.34112914618E+02  0.18269518008E+02  0.12477915884E+02  0.50528872897E+02  0.30000039658E+02 0.  0.
         12    1    1    2    0    0  0.34112914618E+02 -0.18269518008E+02 -0.12477915884E+02  0.40659127103E+02  0.00000000000E+00 0. -1.
         11    1    3    3    0    0 -0.30076780334E+01 -0.20447154868E+01  0.88235342832E+01  0.95436757113E+01  0.51100000000E-03 0. -1.
        -11    1    3    3    0    0 -0.74098496574E+01 -0.14951365792E+01  0.44486117677E+01  0.87710576475E+01  0.51100000000E-03 0.  1.
         12    1    3    3    0    0 -0.23695386927E+02  0.21809370074E+02 -0.79423016674E+00  0.32214139538E+02  0.00000000000E+00 0. -1.
</event>
<event>
 7    1  0.2838209E-011  0.5052886E+02  0.7816164E-02  0.1300439E+00
        -11   -1    0    0    0    0  0.00000000000E+00  0.00000000000E+00  0.45593999997E+02  0.45594000000E+02  0.51100000000E-03 0. -1.
         11   -1    0    0    0    0 -0.00000000000E+00 -0.00000000000E+00 -0.45593999997E+02  0.45594000000E+02  0.51100000000E-03 0.  1.
    9900012    2    1    2    0    0  0.16259805248E+02  0.80793339754E+01 -0.36380062360E+02  0.50528857836E+02  0.29999993879E+02 0.  0.
         12    1    1    2    0    0 -0.16259805248E+02 -0.80793339754E+01  0.36380062360E+02  0.40659142164E+02  0.00000000000E+00 0. -1.
         11    1    3    3    0    0  0.28027442459E+00 -0.63723175014E+01 -0.11344730644E+01  0.64785811322E+01  0.51100000000E-03 0. -1.
        -11    1    3    3    0    0  0.14470531677E+01 -0.31680758453E+01 -0.60682489580E+01  0.69967358896E+01  0.51100000000E-03 0.  1.
         12    1    3    3    0    0  0.14532477656E+02  0.17619727322E+02 -0.29177340337E+02  0.37053540814E+02  0.00000000000E+00 0. -1.
</event>
<event>
 7    1  0.2838209E-011  0.5052886E+02  0.7816164E-02  0.1300439E+00
        -11   -1    0    0    0    0  0.00000000000E+00  0.00000000000E+00  0.45593999997E+02  0.45594000000E+02  0.51100000000E-03 0.  1.
         11   -1    0    0    0    0 -0.00000000000E+00 -0.00000000000E+00 -0.45593999997E+02  0.45594000000E+02  0.51100000000E-03 0. -1.
    9900012    2    1    2    0    0  0.35687042224E+02  0.18713913865E+01  0.19393269063E+02  0.50528856215E+02  0.29999988951E+02 0.  0.
         12    1    1    2    0    0 -0.35687042224E+02 -0.18713913865E+01 -0.19393269063E+02  0.40659143785E+02  0.00000000000E+00 0. -1.
         11    1    3    3    0    0  0.23643412806E+02  0.47461244811E+01  0.12075827946E+02  0.26969654940E+02  0.51100000000E-03 0. -1.
        -11    1    3    3    0    0  0.26735344840E-02  0.33471826025E+01  0.92792375320E+01  0.98644760611E+01  0.51100000000E-03 0.  1.
         12    1    3    3    0    0  0.12040955883E+02 -0.62219156971E+01 -0.19617964155E+01  0.13694725214E+02  0.00000000000E+00 0. -1.
</event>
<event>
 7    1  0.2838209E-011  0.5052886E+02  0.7816164E-02  0.1300439E+00
        -11   -1    0    0    0    0  0.00000000000E+00  0.00000000000E+00  0.45593999997E+02  0.45594000000E+02  0.51100000000E-03 0.  1.
         11   -1    0    0    0    0 -0.00000000000E+00 -0.00000000000E+00 -0.45593999997E+02  0.45594000000E+02  0.51100000000E-03 0. -1.
    9900012    2    1    2    0    0  0.22074459195E+02  0.91831671100E+01  0.32886975855E+02  0.50528862185E+02  0.30000007099E+02 0.  0.
         12    1    1    2    0    0 -0.22074459195E+02 -0.91831671100E+01 -0.32886975855E+02  0.40659137815E+02  0.00000000000E+00 0. -1.
         11    1    3    3    0    0 -0.34215629343E+01 -0.21101246033E+01 -0.22396556825E+01  0.46017145275E+01  0.51100000000E-03 0. -1.
        -11    1    3    3    0    0  0.12330363342E+02  0.15980331060E+01  0.10032153566E+02  0.15976097001E+02  0.51100000000E-03 0.  1.
        -12    1    3    3    0    0  0.13165658787E+02  0.96952586072E+01  0.25094477973E+02  0.29951050657E+02  0.00000000000E+00 0.  1.
</event>
<event>
 7    1  0.2838209E-011  0.5052886E+02  0.7816164E-02  0.1300439E+00
        -11   -1    0    0    0    0  0.00000000000E+00  0.00000000000E+00  0.45593999997E+02  0.45594000000E+02  0.51100000000E-03 0. -1.
         11   -1    0    0    0    0 -0.00000000000E+00 -0.00000000000E+00 -0.45593999997E+02  0.45594000000E+02  0.51100000000E-03 0.  1.
    9900012    2    1    2    0    0 -0.31805337007E+02 -0.28120537628E+01 -0.25172970712E+02  0.50528861261E+02  0.30000004290E+02 0.  0.
         12    1    1    2    0    0  0.31805337007E+02  0.28120537628E+01  0.25172970712E+02  0.40659138739E+02  0.00000000000E+00 0. -1.
         11    1    3    3    0    0 -0.14311770629E+02  0.84978988347E+00  0.23602104187E+01  0.14529952335E+02  0.51100000000E-03 0. -1.
        -11    1    3    3    0    0  0.13695536610E+01  0.88984209215E+00  0.66979650979E+00  0.17652546006E+01  0.51100000000E-03 0.  1.
         12    1    3    3    0    0 -0.18863120039E+02 -0.45516857384E+01 -0.28202977641E+02  0.34233654326E+02  0.00000000000E+00 0. -1.
</event>
<event>
 7    1  0.2838209E-011  0.5052886E+02  0.7816164E-02  0.1300439E+00
        -11   -1    0    0    0    0  0.00000000000E+00  0.00000000000E+00  0.45593999997E+02  0.45594000000E+02  0.51100000000E-03 0.  1.
         11   -1    0    0    0    0 -0.00000000000E+00 -0.00000000000E+00 -0.45593999997E+02  0.45594000000E+02  0.51100000000E-03 0. -1.
    9900012    2    1    2    0    0  0.36552680792E+02 -0.67934936518E+01  0.16459516072E+02  0.50528859596E+02  0.29999999227E+02 0.  0.
         12    1    1    2    0    0 -0.36552680792E+02  0.67934936518E+01 -0.16459516072E+02  0.40659140404E+02  0.00000000000E+00 0. -1.
         11    1    3    3    0    0  0.10383929963E+02  0.57303443351E+01  0.42618221805E+01  0.12602617833E+02  0.51100000000E-03 0. -1.
        -11    1    3    3    0    0 -0.11260569740E+01  0.35794976595E+01  0.33323903208E+01  0.50185289990E+01  0.51100000000E-03 0.  1.
        -12    1    3    3    0    0  0.27294807803E+02 -0.16103335646E+02  0.88653035704E+01  0.32907712764E+02  0.00000000000E+00 0.  1.
</event>
<event>
 7    1  0.2838209E-011  0.5052886E+02  0.7816164E-02  0.1300439E+00
        -11   -1    0    0    0    0  0.00000000000E+00  0.00000000000E+00  0.45593999997E+02  0.45594000000E+02  0.51100000000E-03 0.  1.
         11   -1    0    0    0    0 -0.00000000000E+00 -0.00000000000E+00 -0.45593999997E+02  0.45594000000E+02  0.51100000000E-03 0. -1.
    9900012    2    1    2    0    0  0.28728353834E+02 -0.19299255199E+02  0.21339780718E+02  0.50528858269E+02  0.29999995193E+02 0.  0.
         12    1    1    2    0    0 -0.28728353834E+02  0.19299255199E+02 -0.21339780718E+02  0.40659141731E+02  0.00000000000E+00 0. -1.
         11    1    3    3    0    0 -0.85571607493E+00  0.36378049823E+01 -0.20191928536E+01  0.42477070440E+01  0.51100000000E-03 0. -1.
        -11    1    3    3    0    0  0.93918564502E+00 -0.34835570992E+01 -0.12307366355E+01  0.38120798347E+01  0.51100000000E-03 0.  1.
        -12    1    3    3    0    0  0.28644884264E+02 -0.19453503083E+02  0.24589710207E+02  0.42469071390E+02  0.00000000000E+00 0.  1.
</event>
<event>
 7    1  0.2838209E-011  0.5052886E+02  0.7816164E-02  0.1300439E+00
        -11   -1    0    0    0    0  0.00000000000E+00  0.00000000000E+00  0.45593999997E+02  0.45594000000E+02  0.51100000000E-03 0.  1.
         11   -1    0    0    0    0 -0.00000000000E+00 -0.00000000000E+00 -0.45593999997E+02  0.45594000000E+02  0.51100000000E-03 0. -1.
    9900012    2    1    2    0    0 -0.12341817605E+02 -0.27226399228E+02  0.27560261958E+02  0.50528864300E+02  0.30000013526E+02 0.  0.
         12    1    1    2    0    0  0.12341817605E+02  0.27226399228E+02 -0.27560261958E+02  0.40659135700E+02  0.00000000000E+00 0. -1.
         11    1    3    3    0    0  0.76854825201E+00  0.13983031554E+01 -0.23206639939E+00  0.16123812220E+01  0.51100000000E-03 0. -1.
        -11    1    3    3    0    0  0.94871571098E+00  0.23096290988E+00 -0.37733316281E+01  0.38976194277E+01  0.51100000000E-03 0.  1.
        -12    1    3    3    0    0 -0.14059081568E+02 -0.28855665293E+02  0.31565659985E+02  0.45018863650E+02  0.00000000000E+00 0.  1.
</event>
<event>
 7    1  0.2838209E-011  0.5052889E+02  0.7816164E-02  0.1300439E+00
        -11   -1    0    0    0    0  0.00000000000E+00  0.00000000000E+00  0.45593999997E+02  0.45594000000E+02  0.51100000000E-03 0.  1.
         11   -1    0    0    0    0 -0.00000000000E+00 -0.00000000000E+00 -0.45593999997E+02  0.45594000000E+02  0.51100000000E-03 0. -1.
    9900012    2    1    2    0    0 -0.28796971792E+02  0.19283412786E+02  0.21261403461E+02  0.50528894376E+02  0.30000104944E+02 0.  0.
         12    1    1    2    0    0  0.28796971792E+02 -0.19283412786E+02 -0.21261403461E+02  0.40659105624E+02  0.00000000000E+00 0. -1.
         11    1    3    3    0    0  0.32654238636E+01 -0.21913795086E+01  0.14611323492E+01  0.41952407752E+01  0.51100000000E-03 0. -1.
        -11    1    3    3    0    0 -0.17654866218E+02  0.73395549249E+01  0.17675923637E+02  0.26038464708E+02  0.51100000000E-03 0.  1.
         12    1    3    3    0    0 -0.14407529437E+02  0.14135237370E+02  0.21243474748E+01  0.20295188892E+02  0.00000000000E+00 0. -1.
</event>
<event>
 7    1  0.2838209E-011  0.5052887E+02  0.7816164E-02  0.1300439E+00
        -11   -1    0    0    0    0  0.00000000000E+00  0.00000000000E+00  0.45593999997E+02  0.45594000000E+02  0.51100000000E-03 0.  1.
         11   -1    0    0    0    0 -0.00000000000E+00 -0.00000000000E+00 -0.45593999997E+02  0.45594000000E+02  0.51100000000E-03 0. -1.
    9900012    2    1    2    0    0 -0.31382576801E+02 -0.68226009633E+00  0.25842465177E+02  0.50528872956E+02  0.30000039837E+02 0.  0.
         12    1    1    2    0    0  0.31382576801E+02  0.68226009633E+00 -0.25842465177E+02  0.40659127044E+02  0.00000000000E+00 0. -1.
         11    1    3    3    0    0 -0.43947397625E+01  0.67648747279E+01  0.54486190640E+01  0.97347171315E+01  0.51100000000E-03 0. -1.
        -11    1    3    3    0    0 -0.23811703753E+01  0.45303545744E+01  0.10522830528E+02  0.11701454931E+02  0.51100000000E-03 0.  1.
         12    1    3    3    0    0 -0.24606666664E+02 -0.11977489399E+02  0.98710155857E+01  0.29092700894E+02  0.00000000000E+00 0. -1.
</event>
<event>
 7    1  0.2838209E-011  0.5052886E+02  0.7816164E-02  0.1300439E+00
        -11   -1    0    0    0    0  0.00000000000E+00  0.00000000000E+00  0.45593999997E+02  0.45594000000E+02  0.51100000000E-03 0. -1.
         11   -1    0    0    0    0 -0.00000000000E+00 -0.00000000000E+00 -0.45593999997E+02  0.45594000000E+02  0.51100000000E-03 0.  1.
    9900012    2    1    2    0    0  0.10949761130E+02 -0.33243822206E+02  0.20690983269E+02  0.50528858687E+02  0.29999996465E+02 0.  0.
         12    1    1    2    0    0 -0.10949761130E+02  0.33243822206E+02 -0.20690983269E+02  0.40659141313E+02  0.00000000000E+00 0. -1.
         11    1    3    3    0    0  0.10977677033E+02 -0.15342210473E+02  0.91606486191E+01  0.20971654647E+02  0.51100000000E-03 0. -1.
        -11    1    3    3    0    0  0.84116146997E+01 -0.16203360785E+02  0.55732121411E+01  0.19088343469E+02  0.51100000000E-03 0.  1.
         12    1    3    3    0    0 -0.84395306027E+01 -0.16982509488E+01  0.59571225085E+01  0.10468860571E+02  0.00000000000E+00 0. -1.
</event>
<event>
 7    1  0.2838209E-011  0.5052886E+02  0.7816164E-02  0.1300439E+00
        -11   -1    0    0    0    0  0.00000000000E+00  0.00000000000E+00  0.45593999997E+02  0.45594000000E+02  0.51100000000E-03 0.  1.
         11   -1    0    0    0    0 -0.00000000000E+00 -0.00000000000E+00 -0.45593999997E+02  0.45594000000E+02  0.51100000000E-03 0. -1.
    9900012    2    1    2    0    0 -0.12714754646E+02 -0.62024994535E+01  0.38118626740E+02  0.50528859703E+02  0.29999999552E+02 0.  0.
         12    1    1    2    0    0  0.12714754646E+02  0.62024994535E+01 -0.38118626740E+02  0.40659140297E+02  0.00000000000E+00 0. -1.
         11    1    3    3    0    0 -0.70359698634E+01 -0.75420956735E+01  0.84621977952E+01  0.13341546794E+02  0.51100000000E-03 0. -1.
        -11    1    3    3    0    0  0.24340415917E+01  0.69623804579E+01  0.25379898439E+02  0.26429879779E+02  0.51100000000E-03 0.  1.
         12    1    3    3    0    0 -0.81128263741E+01 -0.56227842380E+01  0.42765305058E+01  0.10757433129E+02  0.00000000000E+00 0. -1.
</event>
<event>
 7    1  0.2838209E-011  0.5052885E+02  0.7816164E-02  0.1300439E+00
        -11   -1    0    0    0    0  0.00000000000E+00  0.00000000000E+00  0.45593999997E+02  0.45594000000E+02  0.51100000000E-03 0.  1.
         11   -1    0    0    0    0 -0.00000000000E+00 -0.00000000000E+00 -0.45593999997E+02  0.45594000000E+02  0.51100000000E-03 0. -1.
    9900012    2    1    2    0    0 -0.38041559610E+02  0.11528105580E+02 -0.85503911090E+01  0.50528847722E+02  0.29999963136E+02 0.  0.
         12    1    1    2    0    0  0.38041559610E+02 -0.11528105580E+02  0.85503911090E+01  0.40659152278E+02  0.00000000000E+00 0. -1.
         11    1    3    3    0    0 -0.13153035216E+02  0.10593308535E+01  0.67911942406E+01  0.14840648123E+02  0.51100000000E-03 0. -1.
        -11    1    3    3    0    0 -0.25721187653E+02  0.93651643338E+01 -0.84330040049E+01  0.28642649216E+02  0.51100000000E-03 0.  1.
         12    1    3    3    0    0  0.83266325880E+00  0.11036103926E+01 -0.69085813447E+01  0.70455503829E+01  0.00000000000E+00 0. -1.
</event>
<event>
 7    1  0.2838209E-011  0.5052887E+02  0.7816164E-02  0.1300439E+00
        -11   -1    0    0    0    0  0.00000000000E+00  0.00000000000E+00  0.45593999997E+02  0.45594000000E+02  0.51100000000E-03 0.  1.
         11   -1    0    0    0    0 -0.00000000000E+00 -0.00000000000E+00 -0.45593999997E+02  0.45594000000E+02  0.51100000000E-03 0. -1.
    9900012    2    1    2    0    0  0.33769283894E+02  0.87031833670E+00  0.22628367193E+02  0.50528868301E+02  0.30000025687E+02 0.  0.
         12    1    1    2    0    0 -0.33769283894E+02 -0.87031833670E+00 -0.22628367193E+02  0.40659131699E+02  0.00000000000E+00 0. -1.
         11    1    3    3    0    0  0.30823468526E+01  0.85998079458E+00  0.14162828745E+02  0.14519853560E+02  0.51100000000E-03 0. -1.
        -11    1    3    3    0    0  0.36908440885E+01 -0.73713371906E+00  0.81763561397E+01  0.90010275074E+01  0.51100000000E-03 0.  1.
        -12    1    3    3    0    0  0.26996092953E+02  0.74747126117E+00  0.28918230904E+00  0.27007987233E+02  0.00000000000E+00 0.  1.
</event>
<event>
 7    1  0.2838209E-011  0.5052887E+02  0.7816164E-02  0.1300439E+00
        -11   -1    0    0    0    0  0.00000000000E+00  0.00000000000E+00  0.45593999997E+02  0.45594000000E+02  0.51100000000E-03 0. -1.
         11   -1    0    0    0    0 -0.00000000000E+00 -0.00000000000E+00 -0.45593999997E+02  0.45594000000E+02  0.51100000000E-03 0.  1.
    9900012    2    1    2    0    0  0.34290857260E+02 -0.19191108056E+02 -0.10440470974E+02  0.50528868748E+02  0.30000027046E+02 0.  0.
         12    1    1    2    0    0 -0.34290857260E+02  0.19191108056E+02  0.10440470974E+02  0.40659131252E+02  0.00000000000E+00 0. -1.
         11    1    3    3    0    0  0.12181082332E+02 -0.21124812974E+01 -0.11503737050E+02  0.16887193680E+02  0.51100000000E-03 0. -1.
        -11    1    3    3    0    0  0.25958452485E+01  0.29779673756E+01 -0.35131940490E+01  0.52867035978E+01  0.51100000000E-03 0.  1.
         12    1    3    3    0    0  0.19513929679E+02 -0.20056594134E+02  0.45764601255E+01  0.28354971470E+02  0.00000000000E+00 0. -1.
</event>
<event>
 7    1  0.2838209E-011  0.5052886E+02  0.7816164E-02  0.1300439E+00
        -11   -1    0    0    0    0  0.00000000000E+00  0.00000000000E+00  0.45593999997E+02  0.45594000000E+02  0.51100000000E-03 0.  1.
         11   -1    0    0    0    0 -0.00000000000E+00 -0.00000000000E+00 -0.45593999997E+02  0.45594000000E+02  0.51100000000E-03 0. -1.
    9900012    2    1    2    0    0 -0.12264686498E+01 -0.65592008859E+01  0.40107834819E+02  0.50528858894E+02  0.29999997096E+02 0.  0.
         12    1    1    2    0    0  0.12264686498E+01  0.65592008859E+01 -0.40107834819E+02  0.40659141106E+02  0.00000000000E+00 0. -1.
         11    1    3    3    0    0 -0.10238450766E+02 -0.74379496984E+00  0.12403699605E+02  0.16100648099E+02  0.51100000000E-03 0. -1.
        -11    1    3    3    0    0 -0.47001148637E+01 -0.10065088967E+01  0.12522106120E+02  0.13412952018E+02  0.51100000000E-03 0.  1.
        -12    1    3    3    0    0  0.13712096979E+02 -0.48088970193E+01  0.15182029093E+02  0.21015258778E+02  0.00000000000E+00 0.  1.
</event>
<event>
 7    1  0.2838209E-011  0.5052888E+02  0.7816164E-02  0.1300439E+00
        -11   -1    0    0    0    0  0.00000000000E+00  0.00000000000E+00  0.45593999997E+02  0.45594000000E+02  0.51100000000E-03 0.  1.
         11   -1    0    0    0    0 -0.00000000000E+00 -0.00000000000E+00 -0.45593999997E+02  0.45594000000E+02  0.51100000000E-03 0. -1.
    9900012    2    1    2    0    0 -0.22693827702E+02  0.20099526404E+02  0.27095446865E+02  0.50528880257E+02  0.30000062031E+02 0.  0.
         12    1    1    2    0    0  0.22693827702E+02 -0.20099526404E+02 -0.27095446865E+02  0.40659119743E+02  0.00000000000E+00 0. -1.
         11    1    3    3    0    0 -0.71502371839E+01  0.21475414943E+01 -0.46153480744E+00  0.74800294715E+01  0.51100000000E-03 0. -1.
        -11    1    3    3    0    0 -0.13269809280E+02  0.27465516977E+01  0.26939669278E+01  0.13816252844E+02  0.51100000000E-03 0.  1.
         12    1    3    3    0    0 -0.22737812378E+01  0.15205433212E+02  0.24863014744E+02  0.29232597942E+02  0.00000000000E+00 0. -1.
</event>
<event>
 7    1  0.2838209E-011  0.5052885E+02  0.7816164E-02  0.1300439E+00
        -11   -1    0    0    0    0  0.00000000000E+00  0.00000000000E+00  0.45593999997E+02  0.45594000000E+02  0.51100000000E-03 0.  1.
         11   -1    0    0    0    0 -0.00000000000E+00 -0.00000000000E+00 -0.45593999997E+02  0.45594000000E+02  0.51100000000E-03 0. -1.
    9900012    2    1    2    0    0 -0.21378689944E+02 -0.50979700803E+01  0.34207140442E+02  0.50528854167E+02  0.29999982726E+02 0.  0.
         12    1    1    2    0    0  0.21378689944E+02  0.50979700803E+01 -0.34207140442E+02  0.40659145833E+02  0.00000000000E+00 0. -1.
         11    1    3    3    0    0 -0.88173258880E+00 -0.38675432670E+01  0.16826693208E+02  0.17287942268E+02  0.51100000000E-03 0. -1.
        -11    1    3    3    0    0  0.33053229256E+01 -0.25920890064E+01  0.10093247716E+01  0.43200488209E+01  0.51100000000E-03 0.  1.
        -12    1    3    3    0    0 -0.23802280281E+02  0.13616621930E+01  0.16371122462E+02  0.28920863078E+02  0.00000000000E+00 0.  1.
</event>
<event>
 7    1  0.2838209E-011  0.5052886E+02  0.7816164E-02  0.1300439E+00
        -11   -1    0    0    0    0  0.00000000000E+00  0.00000000000E+00  0.45593999997E+02  0.45594000000E+02  0.51100000000E-03 0.  1.
         11   -1    0    0    0    0 -0.00000000000E+00 -0.00000000000E+00 -0.45593999997E+02  0.45594000000E+02  0.51100000000E-03 0. -1.
    9900012    2    1    2    0    0 -0.28558939800E+01 -0.26767640955E+02  0.30471349348E+02  0.50528857562E+02  0.29999993045E+02 0.  0.
         12    1    1    2    0    0  0.28558939800E+01  0.26767640955E+02 -0.30471349348E+02  0.40659142438E+02  0.00000000000E+00 0. -1.
         11    1    3    3    0    0 -0.10667562176E+01  0.23164213064E+01  0.71435654578E+01  0.75851370593E+01  0.51100000000E-03 0. -1.
        -11    1    3    3    0    0 -0.77251548142E+00  0.18284080919E+01 -0.21104912115E+01  0.28972451975E+01  0.51100000000E-03 0.  1.
        -12    1    3    3    0    0 -0.10166222810E+01 -0.30912470354E+02  0.25438275101E+02  0.40046475305E+02  0.00000000000E+00 0.  1.
</event>
<event>
 7    1  0.2838209E-011  0.5052886E+02  0.7816164E-02  0.1300439E+00
        -11   -1    0    0    0    0  0.00000000000E+00  0.00000000000E+00  0.45593999997E+02  0.45594000000E+02  0.51100000000E-03 0. -1.
         11   -1    0    0    0    0 -0.00000000000E+00 -0.00000000000E+00 -0.45593999997E+02  0.45594000000E+02  0.51100000000E-03 0.  1.
    9900012    2    1    2    0    0 -0.18428477372E+02 -0.28076658478E+02 -0.22918518948E+02  0.50528855391E+02  0.29999986448E+02 0.  0.
         12    1    1    2    0    0  0.18428477372E+02  0.28076658478E+02  0.22918518948E+02  0.40659144609E+02  0.00000000000E+00 0. -1.
         11    1    3    3    0    0 -0.12644612622E+02 -0.93941117175E+01 -0.31049916418E+01  0.16055420788E+02  0.51100000000E-03 0. -1.
        -11    1    3    3    0    0 -0.12570480586E+02 -0.10472578159E+02 -0.69607050693E+01  0.17780418746E+02  0.51100000000E-03 0.  1.
        -12    1    3    3    0    0  0.67866158369E+01 -0.82099686022E+01 -0.12852822236E+02  0.16693015857E+02  0.00000000000E+00 0.  1.
</event>
<event>
 7    1  0.2838209E-011  0.5052886E+02  0.7816164E-02  0.1300439E+00
        -11   -1    0    0    0    0  0.00000000000E+00  0.00000000000E+00  0.45593999997E+02  0.45594000000E+02  0.51100000000E-03 0.  1.
         11   -1    0    0    0    0 -0.00000000000E+00 -0.00000000000E+00 -0.45593999997E+02  0.45594000000E+02  0.51100000000E-03 0. -1.
    9900012    2    1    2    0    0 -0.15349873715E+02  0.29753314235E+02  0.23071358015E+02  0.50528857219E+02  0.29999992002E+02 0.  0.
         12    1    1    2    0    0  0.15349873715E+02 -0.29753314235E+02 -0.23071358015E+02  0.40659142781E+02  0.00000000000E+00 0. -1.
         11    1    3    3    0    0 -0.52867652759E+01  0.21464140924E+01 -0.75274659836E+00  0.57553113070E+01  0.51100000000E-03 0.  1.
        -11    1    3    3    0    0  0.37064491571E+01  0.18972021105E+00 -0.23940419076E+01  0.44164687284E+01  0.51100000000E-03 0. -1.
        -12    1    3    3    0    0 -0.13769557596E+02  0.27417179932E+02  0.26218146520E+02  0.40357077183E+02  0.00000000000E+00 0.  1.
</event>
<event>
 7    1  0.2838209E-011  0.5052886E+02  0.7816164E-02  0.1300439E+00
        -11   -1    0    0    0    0  0.00000000000E+00  0.00000000000E+00  0.45593999997E+02  0.45594000000E+02  0.51100000000E-03 0.  1.
         11   -1    0    0    0    0 -0.00000000000E+00 -0.00000000000E+00 -0.45593999997E+02  0.45594000000E+02  0.51100000000E-03 0. -1.
    9900012    2    1    2    0    0  0.14815771100E+02  0.21714131357E+02  0.31018628372E+02  0.50528857363E+02  0.29999992442E+02 0.  0.
         12    1    1    2    0    0 -0.14815771100E+02 -0.21714131357E+02 -0.31018628372E+02  0.40659142637E+02  0.00000000000E+00 0. -1.
         11    1    3    3    0    0  0.97970025265E+01 -0.30905149317E+01  0.63890046107E+01  0.12097599812E+02  0.51100000000E-03 0. -1.
        -11    1    3    3    0    0  0.47656371836E+01  0.14548512788E+02  0.46972319031E+01  0.16013572678E+02  0.51100000000E-03 0.  1.
        -12    1    3    3    0    0  0.25313139018E+00  0.10256133501E+02  0.19932391858E+02  0.22417684873E+02  0.00000000000E+00 0.  1.
</event>
<event>
 7    1  0.2838209E-011  0.5052886E+02  0.7816164E-02  0.1300439E+00
        -11   -1    0    0    0    0  0.00000000000E+00  0.00000000000E+00  0.45593999997E+02  0.45594000000E+02  0.51100000000E-03 0.  1.
         11   -1    0    0    0    0 -0.00000000000E+00 -0.00000000000E+00 -0.45593999997E+02  0.45594000000E+02  0.51100000000E-03 0. -1.
    9900012    2    1    2    0    0 -0.17329559709E+02 -0.22565322381E+02  0.29045790182E+02  0.50528863989E+02  0.30000012580E+02 0.  0.
         12    1    1    2    0    0  0.17329559709E+02  0.22565322381E+02 -0.29045790182E+02  0.40659136011E+02  0.00000000000E+00 0. -1.
         11    1    3    3    0    0 -0.82832453036E+01 -0.97180226171E+01  0.23935103039E+02  0.27128237578E+02  0.51100000000E-03 0. -1.
        -11    1    3    3    0    0  0.74052329927E+00 -0.66272291859E+01  0.89717110555E+01  0.11178557195E+02  0.51100000000E-03 0.  1.
         12    1    3    3    0    0 -0.97868377049E+01 -0.62200705783E+01 -0.38610239122E+01  0.12222069216E+02  0.00000000000E+00 0. -1.
</event>
<event>
 7    1  0.2838209E-011  0.5052886E+02  0.7816164E-02  0.1300439E+00
        -11   -1    0    0    0    0  0.00000000000E+00  0.00000000000E+00  0.45593999997E+02  0.45594000000E+02  0.51100000000E-03 0.  1.
         11   -1    0    0    0    0 -0.00000000000E+00 -0.00000000000E+00 -0.45593999997E+02  0.45594000000E+02  0.51100000000E-03 0. -1.
    9900012    2    1    2    0    0 -0.18510717877E+02 -0.15003131571E+02  0.32945793267E+02  0.50528856782E+02  0.29999990675E+02 0.  0.
         12    1    1    2    0    0  0.18510717877E+02  0.15003131571E+02 -0.32945793267E+02  0.40659143218E+02  0.00000000000E+00 0. -1.
         11    1    3    3    0    0 -0.25771422242E+01  0.53210078496E+01  0.15734274058E+02  0.16808395729E+02  0.51100000000E-03 0. -1.
        -11    1    3    3    0    0 -0.45191443385E+01 -0.36616950012E+01  0.11245348764E+02  0.12660511243E+02  0.51100000000E-03 0.  1.
         12    1    3    3    0    0 -0.11414431314E+02 -0.16662444419E+02  0.59661704441E+01  0.21059949811E+02  0.00000000000E+00 0. -1.
</event>
<event>
 7    1  0.2838209E-011  0.5052887E+02  0.7816164E-02  0.1300439E+00
        -11   -1    0    0    0    0  0.00000000000E+00  0.00000000000E+00  0.45593999997E+02  0.45594000000E+02  0.51100000000E-03 0.  1.
         11   -1    0    0    0    0 -0.00000000000E+00 -0.00000000000E+00 -0.45593999997E+02  0.45594000000E+02  0.51100000000E-03 0. -1.
    9900012    2    1    2    0    0  0.33179670165E+02 -0.18487962816E+02  0.14507572931E+02  0.50528868754E+02  0.30000027064E+02 0.  0.
         12    1    1    2    0    0 -0.33179670165E+02  0.18487962816E+02 -0.14507572931E+02  0.40659131246E+02  0.00000000000E+00 0. -1.
         11    1    3    3    0    0  0.10492482066E+02 -0.11181311089E+02 -0.24818883300E+01  0.15532986433E+02  0.51100000000E-03 0. -1.
        -11    1    3    3    0    0 -0.19443508473E+00 -0.44327538025E+01  0.99331572194E+01  0.10879095729E+02  0.51100000000E-03 0.  1.
        -12    1    3    3    0    0  0.22881623184E+02 -0.28738979240E+01  0.70563040420E+01  0.24116786592E+02  0.00000000000E+00 0.  1.
</event>
<event>
 7    1  0.2838209E-011  0.5052886E+02  0.7816164E-02  0.1300439E+00
        -11   -1    0    0    0    0  0.00000000000E+00  0.00000000000E+00  0.45593999997E+02  0.45594000000E+02  0.51100000000E-03 0. -1.
         11   -1    0    0    0    0 -0.00000000000E+00 -0.00000000000E+00 -0.45593999997E+02  0.45594000000E+02  0.51100000000E-03 0.  1.
    9900012    2    1    2    0    0  0.24688382381E+02  0.29427214429E+02 -0.13329970375E+02  0.50528864694E+02  0.30000014724E+02 0.  0.
         12    1    1    2    0    0 -0.24688382381E+02 -0.29427214429E+02  0.13329970375E+02  0.40659135306E+02  0.00000000000E+00 0. -1.
         11    1    3    3    0    0  0.23459897634E+02  0.13948712105E+02 -0.18883152840E+02  0.33188956414E+02  0.51100000000E-03 0.  1.
        -11    1    3    3    0    0 -0.48955956844E+00 -0.20291606315E+00  0.61058013025E+00  0.80848738785E+00  0.51100000000E-03 0. -1.
         12    1    3    3    0    0  0.17180443159E+01  0.15681418386E+02  0.49426023350E+01  0.16531420892E+02  0.00000000000E+00 0. -1.
</event>
<event>
 7    1  0.2838209E-011  0.5052885E+02  0.7816164E-02  0.1300439E+00
        -11   -1    0    0    0    0  0.00000000000E+00  0.00000000000E+00  0.45593999997E+02  0.45594000000E+02  0.51100000000E-03 0. -1.
         11   -1    0    0    0    0 -0.00000000000E+00 -0.00000000000E+00 -0.45593999997E+02  0.45594000000E+02  0.51100000000E-03 0.  1.
    9900012    2    1    2    0    0  0.73427127899E+01  0.38207835704E+02 -0.11807294802E+02  0.50528851572E+02  0.29999974839E+02 0.  0.
         12    1    1    2    0    0 -0.73427127899E+01 -0.38207835704E+02  0.11807294802E+02  0.40659148428E+02  0.00000000000E+00 0. -1.
         11    1    3    3    0    0 -0.51818960745E+01 -0.26915462258E+01 -0.52353769842E+00  0.58626410427E+01  0.51100000000E-03 0. -1.
        -11    1    3    3    0    0 -0.94270182180E-01  0.67201012885E+01 -0.89758169990E+00  0.67804351899E+01  0.51100000000E-03 0.  1.
         12    1    3    3    0    0  0.12618879047E+02  0.34179280642E+02 -0.10386175404E+02  0.37885775340E+02  0.00000000000E+00 0. -1.
</event>
<event>
 7    1  0.2838209E-011  0.5052886E+02  0.7816164E-02  0.1300439E+00
        -11   -1    0    0    0    0  0.00000000000E+00  0.00000000000E+00  0.45593999997E+02  0.45594000000E+02  0.51100000000E-03 0.  1.
         11   -1    0    0    0    0 -0.00000000000E+00 -0.00000000000E+00 -0.45593999997E+02  0.45594000000E+02  0.51100000000E-03 0. -1.
    9900012    2    1    2    0    0 -0.26423579435E+02  0.30888164517E+02  0.93900954910E+00  0.50528855933E+02  0.29999988092E+02 0.  0.
         12    1    1    2    0    0  0.26423579435E+02 -0.30888164517E+02 -0.93900954910E+00  0.40659144067E+02  0.00000000000E+00 0. -1.
         11    1    3    3    0    0 -0.16027188055E+01  0.45009875464E+01 -0.78098480642E+00  0.48412326934E+01  0.51100000000E-03 0. -1.
        -11    1    3    3    0    0 -0.25363017657E+02  0.88439554886E+01 -0.41522020940E+01  0.27179753417E+02  0.51100000000E-03 0.  1.
        -12    1    3    3    0    0  0.54215702722E+00  0.17543221482E+02  0.58721964495E+01  0.18507869822E+02  0.00000000000E+00 0.  1.
</event>
<event>
 7    1  0.2838209E-011  0.5052886E+02  0.7816164E-02  0.1300439E+00
        -11   -1    0    0    0    0  0.00000000000E+00  0.00000000000E+00  0.45593999997E+02  0.45594000000E+02  0.51100000000E-03 0. -1.
         11   -1    0    0    0    0 -0.00000000000E+00 -0.00000000000E+00 -0.45593999997E+02  0.45594000000E+02  0.51100000000E-03 0.  1.
    9900012    2    1    2    0    0  0.14390628761E+01  0.18446160245E+02 -0.36205440184E+02  0.50528860453E+02  0.30000001834E+02 0.  0.
         12    1    1    2    0    0 -0.14390628761E+01 -0.18446160245E+02  0.36205440184E+02  0.40659139547E+02  0.00000000000E+00 0. -1.
         11    1    3    3    0    0 -0.18687463556E+01 -0.42212739344E+01 -0.68444084402E+00  0.46668861247E+01  0.51100000000E-03 0. -1.
        -11    1    3    3    0    0  0.67451926545E+01  0.11413675826E+02 -0.30131869400E+02  0.32919586474E+02  0.51100000000E-03 0.  1.
        -12    1    3    3    0    0 -0.34373834229E+01  0.11253758353E+02 -0.53891299399E+01  0.12942387855E+02  0.00000000000E+00 0.  1.
</event>
<event>
 7    1  0.2838209E-011  0.5052886E+02  0.7816164E-02  0.1300439E+00
        -11   -1    0    0    0    0  0.00000000000E+00  0.00000000000E+00  0.45593999997E+02  0.45594000000E+02  0.51100000000E-03 0.  1.
         11   -1    0    0    0    0 -0.00000000000E+00 -0.00000000000E+00 -0.45593999997E+02  0.45594000000E+02  0.51100000000E-03 0. -1.
    9900012    2    1    2    0    0 -0.74236221073E+01 -0.21083011855E+02  0.33964134329E+02  0.50528856197E+02  0.29999988897E+02 0.  0.
         12    1    1    2    0    0  0.74236221073E+01  0.21083011855E+02 -0.33964134329E+02  0.40659143803E+02  0.00000000000E+00 0. -1.
         11    1    3    3    0    0  0.52616655263E+01  0.90609687267E+00  0.58368274789E+01  0.79104166093E+01  0.51100000000E-03 0. -1.
        -11    1    3    3    0    0  0.30817440295E+01 -0.44613686986E+00  0.96798357154E+01  0.10168353068E+02  0.51100000000E-03 0.  1.
        -12    1    3    3    0    0 -0.15767031663E+02 -0.21542971858E+02  0.18447471135E+02  0.32450086520E+02  0.00000000000E+00 0.  1.
</event>
<event>
 7    1  0.2838209E-011  0.5052887E+02  0.7816164E-02  0.1300439E+00
        -11   -1    0    0    0    0  0.00000000000E+00  0.00000000000E+00  0.45593999997E+02  0.45594000000E+02  0.51100000000E-03 0.  1.
         11   -1    0    0    0    0 -0.00000000000E+00 -0.00000000000E+00 -0.45593999997E+02  0.45594000000E+02  0.51100000000E-03 0. -1.
    9900012    2    1    2    0    0 -0.19670011054E+02  0.10765272940E+02  0.33917027516E+02  0.50528865824E+02  0.30000018160E+02 0.  0.
         12    1    1    2    0    0  0.19670011054E+02 -0.10765272940E+02 -0.33917027516E+02  0.40659134176E+02  0.00000000000E+00 0. -1.
         11    1    3    3    0    0 -0.17572372770E+02 -0.54950648819E+01  0.19363704202E+02  0.26719600736E+02  0.51100000000E-03 0.  1.
        -11    1    3    3    0    0  0.26931065493E+00 -0.26600043585E+00 -0.95211480904E+00  0.10246010596E+01  0.51100000000E-03 0. -1.
        -12    1    3    3    0    0 -0.23669489397E+01  0.16526338258E+02  0.15505438124E+02  0.22784664029E+02  0.00000000000E+00 0.  1.
</event>
<event>
 7    1  0.2838209E-011  0.5052886E+02  0.7816164E-02  0.1300439E+00
        -11   -1    0    0    0    0  0.00000000000E+00  0.00000000000E+00  0.45593999997E+02  0.45594000000E+02  0.51100000000E-03 0.  1.
         11   -1    0    0    0    0 -0.00000000000E+00 -0.00000000000E+00 -0.45593999997E+02  0.45594000000E+02  0.51100000000E-03 0. -1.
    9900012    2    1    2    0    0  0.20995569116E+02  0.28192511200E+02  0.20433654628E+02  0.50528857711E+02  0.29999993498E+02 0.  0.
         12    1    1    2    0    0 -0.20995569116E+02 -0.28192511200E+02 -0.20433654628E+02  0.40659142289E+02  0.00000000000E+00 0. -1.
         11    1    3    3    0    0  0.18380084718E+02  0.78762459420E+01  0.39546136005E+01  0.20383859629E+02  0.51100000000E-03 0.  1.
        -11    1    3    3    0    0  0.76816754743E+01  0.12814825276E+02  0.55127833357E+01  0.15925409424E+02  0.51100000000E-03 0. -1.
         12    1    3    3    0    0 -0.50661910770E+01  0.75014399815E+01  0.10966257692E+02  0.14219588658E+02  0.00000000000E+00 0. -1.
</event>
<event>
 7    1  0.2838209E-011  0.5052886E+02  0.7816164E-02  0.1300439E+00
        -11   -1    0    0    0    0  0.00000000000E+00  0.00000000000E+00  0.45593999997E+02  0.45594000000E+02  0.51100000000E-03 0.  1.
         11   -1    0    0    0    0 -0.00000000000E+00 -0.00000000000E+00 -0.45593999997E+02  0.45594000000E+02  0.51100000000E-03 0. -1.
    9900012    2    1    2    0    0  0.25196838612E+02  0.15025546371E+02  0.28151700007E+02  0.50528856710E+02  0.29999990455E+02 0.  0.
         12    1    1    2    0    0 -0.25196838612E+02 -0.15025546371E+02 -0.28151700007E+02  0.40659143290E+02  0.00000000000E+00 0. -1.
         11    1    3    3    0    0  0.18598567473E+02  0.56200681731E+01  0.47355397053E+01  0.19997930265E+02  0.51100000000E-03 0. -1.
        -11    1    3    3    0    0  0.26010572798E+01  0.46144988315E+00 -0.19861341552E+01  0.33050210455E+01  0.51100000000E-03 0.  1.
        -12    1    3    3    0    0  0.39972138594E+01  0.89440283151E+01  0.25402294457E+02  0.27225905399E+02  0.00000000000E+00 0.  1.
</event>
<event>
 7    1  0.2838209E-011  0.5052886E+02  0.7816164E-02  0.1300439E+00
        -11   -1    0    0    0    0  0.00000000000E+00  0.00000000000E+00  0.45593999997E+02  0.45594000000E+02  0.51100000000E-03 0. -1.
         11   -1    0    0    0    0 -0.00000000000E+00 -0.00000000000E+00 -0.45593999997E+02  0.45594000000E+02  0.51100000000E-03 0.  1.
    9900012    2    1    2    0    0  0.26977963714E+02  0.19088516146E+02 -0.23685088395E+02  0.50528863424E+02  0.30000010864E+02 0.  0.
         12    1    1    2    0    0 -0.26977963714E+02 -0.19088516146E+02  0.23685088395E+02  0.40659136576E+02  0.00000000000E+00 0. -1.
         11    1    3    3    0    0 -0.27952052457E+01  0.77665484827E+01 -0.79171503934E+00  0.82921203962E+01  0.51100000000E-03 0. -1.
        -11    1    3    3    0    0 -0.95698644118E+00 -0.10644894265E+01  0.66918888202E+00  0.15801186059E+01  0.51100000000E-03 0.  1.
        -12    1    3    3    0    0  0.30730155401E+02  0.12386457090E+02 -0.23562562237E+02  0.40656624422E+02  0.00000000000E+00 0.  1.
</event>
<event>
 7    1  0.2838209E-011  0.5052886E+02  0.7816164E-02  0.1300439E+00
        -11   -1    0    0    0    0  0.00000000000E+00  0.00000000000E+00  0.45593999997E+02  0.45594000000E+02  0.51100000000E-03 0.  1.
         11   -1    0    0    0    0 -0.00000000000E+00 -0.00000000000E+00 -0.45593999997E+02  0.45594000000E+02  0.51100000000E-03 0. -1.
    9900012    2    1    2    0    0  0.10987255841E+02 -0.37989220831E+02  0.94479932768E+01  0.50528864898E+02  0.30000015344E+02 0.  0.
         12    1    1    2    0    0 -0.10987255841E+02  0.37989220831E+02 -0.94479932768E+01  0.40659135102E+02  0.00000000000E+00 0. -1.
         11    1    3    3    0    0  0.86321899308E+01 -0.10016453376E+02 -0.32614574740E+01  0.13619146315E+02  0.51100000000E-03 0. -1.
        -11    1    3    3    0    0  0.10944008474E+02 -0.17493244787E+02  0.10596684483E+02  0.23196436299E+02  0.51100000000E-03 0.  1.
        -12    1    3    3    0    0 -0.85889425637E+01 -0.10479522668E+02  0.21127662682E+01  0.13713282284E+02  0.00000000000E+00 0.  1.
</event>
<event>
 7    1  0.2838209E-011  0.5052887E+02  0.7816164E-02  0.1300439E+00
        -11   -1    0    0    0    0  0.00000000000E+00  0.00000000000E+00  0.45593999997E+02  0.45594000000E+02  0.51100000000E-03 0. -1.
         11   -1    0    0    0    0 -0.00000000000E+00 -0.00000000000E+00 -0.45593999997E+02  0.45594000000E+02  0.51100000000E-03 0.  1.
    9900012    2    1    2    0    0 -0.29436303386E+02 -0.21636715541E+02  0.17847170351E+02  0.50528869341E+02  0.30000028848E+02 0.  0.
         12    1    1    2    0    0  0.29436303386E+02  0.21636715541E+02 -0.17847170351E+02  0.40659130659E+02  0.00000000000E+00 0. -1.
         11    1    3    3    0    0 -0.18403390417E+01  0.38383643284E+01  0.62515302629E+01  0.75631686081E+01  0.51100000000E-03 0. -1.
        -11    1    3    3    0    0 -0.17657572963E+02 -0.10226942308E+02  0.13796990913E+02  0.24632035856E+02  0.51100000000E-03 0.  1.
         12    1    3    3    0    0 -0.99383913814E+01 -0.15248137561E+02 -0.22013508255E+01  0.18333664876E+02  0.00000000000E+00 0. -1.
</event>
<event>
 7    1  0.2838209E-011  0.5052886E+02  0.7816164E-02  0.1300439E+00
        -11   -1    0    0    0    0  0.00000000000E+00  0.00000000000E+00  0.45593999997E+02  0.45594000000E+02  0.51100000000E-03 0.  1.
         11   -1    0    0    0    0 -0.00000000000E+00 -0.00000000000E+00 -0.45593999997E+02  0.45594000000E+02  0.51100000000E-03 0. -1.
    9900012    2    1    2    0    0 -0.33057674125E+02  0.21904023524E+02  0.89760793353E+01  0.50528855084E+02  0.29999985512E+02 0.  0.
         12    1    1    2    0    0  0.33057674125E+02 -0.21904023524E+02 -0.89760793353E+01  0.40659144916E+02  0.00000000000E+00 0. -1.
         11    1    3    3    0    0 -0.56741540028E+01  0.71276835635E+01 -0.50317024597E+01  0.10407589852E+02  0.51100000000E-03 0. -1.
        -11    1    3    3    0    0  0.10007083544E+01  0.56331675606E+01 -0.22606722233E+01  0.61517991790E+01  0.51100000000E-03 0.  1.
        -12    1    3    3    0    0 -0.28384228476E+02  0.91431724001E+01  0.16268454018E+02  0.33969466052E+02  0.00000000000E+00 0.  1.
</event>
<event>
 7    1  0.2838209E-011  0.5052886E+02  0.7816164E-02  0.1300439E+00
        -11   -1    0    0    0    0  0.00000000000E+00  0.00000000000E+00  0.45593999997E+02  0.45594000000E+02  0.51100000000E-03 0.  1.
         11   -1    0    0    0    0 -0.00000000000E+00 -0.00000000000E+00 -0.45593999997E+02  0.45594000000E+02  0.51100000000E-03 0. -1.
    9900012    2    1    2    0    0 -0.19252263747E+02  0.10991024222E+02  0.34083913531E+02  0.50528862842E+02  0.30000009095E+02 0.  0.
         12    1    1    2    0    0  0.19252263747E+02 -0.10991024222E+02 -0.34083913531E+02  0.40659137158E+02  0.00000000000E+00 0. -1.
         11    1    3    3    0    0 -0.33427651736E+01 -0.75257395024E+01  0.13825140826E+02  0.16091779056E+02  0.51100000000E-03 0. -1.
        -11    1    3    3    0    0 -0.70133379691E+01  0.42248100807E-01  0.75899231873E+01  0.10334197048E+02  0.51100000000E-03 0.  1.
        -12    1    3    3    0    0 -0.88961606045E+01  0.18474515624E+02  0.12668849518E+02  0.24102886739E+02  0.00000000000E+00 0.  1.
</event>
<event>
 7    1  0.2838209E-011  0.5052886E+02  0.7816164E-02  0.1300439E+00
        -11   -1    0    0    0    0  0.00000000000E+00  0.00000000000E+00  0.45593999997E+02  0.45594000000E+02  0.51100000000E-03 0.  1.
         11   -1    0    0    0    0 -0.00000000000E+00 -0.00000000000E+00 -0.45593999997E+02  0.45594000000E+02  0.51100000000E-03 0. -1.
    9900012    2    1    2    0    0  0.47502634374E+01  0.29580684439E+02  0.27487878688E+02  0.50528863642E+02  0.30000011526E+02 0.  0.
         12    1    1    2    0    0 -0.47502634374E+01 -0.29580684439E+02 -0.27487878688E+02  0.40659136358E+02  0.00000000000E+00 0. -1.
         11    1    3    3    0    0  0.62253169323E+01  0.11394400618E+02  0.49141479476E+01  0.13882931487E+02  0.51100000000E-03 0. -1.
        -11    1    3    3    0    0 -0.66778185279E+00  0.13326621370E+02 -0.20064976854E+00  0.13344850330E+02  0.51100000000E-03 0.  1.
         12    1    3    3    0    0 -0.80727164208E+00  0.48596624508E+01  0.22774380509E+02  0.23301081825E+02  0.00000000000E+00 0. -1.
</event>
<event>
 7    1  0.2838209E-011  0.5052888E+02  0.7816164E-02  0.1300439E+00
        -11   -1    0    0    0    0  0.00000000000E+00  0.00000000000E+00  0.45593999997E+02  0.45594000000E+02  0.51100000000E-03 0. -1.
         11   -1    0    0    0    0 -0.00000000000E+00 -0.00000000000E+00 -0.45593999997E+02  0.45594000000E+02  0.51100000000E-03 0.  1.
    9900012    2    1    2    0    0  0.83536620240E+01 -0.19253100488E+02 -0.34823822864E+02  0.50528878188E+02  0.30000055741E+02 0.  0.
         12    1    1    2    0    0 -0.83536620240E+01  0.19253100488E+02  0.34823822864E+02  0.40659121812E+02  0.00000000000E+00 0. -1.
         11    1    3    3    0    0  0.38494863143E+00 -0.78912075304E+01 -0.14833351111E+01  0.80386332824E+01  0.51100000000E-03 0. -1.
        -11    1    3    3    0    0  0.96466880704E+00 -0.42622864246E+01  0.26720729369E+01  0.51222695666E+01  0.51100000000E-03 0.  1.
        -12    1    3    3    0    0  0.70040445855E+01 -0.70996065335E+01 -0.36012560690E+02  0.37367975339E+02  0.00000000000E+00 0.  1.
</event>
<event>
 7    1  0.2838209E-011  0.5052886E+02  0.7816164E-02  0.1300439E+00
        -11   -1    0    0    0    0  0.00000000000E+00  0.00000000000E+00  0.45593999997E+02  0.45594000000E+02  0.51100000000E-03 0. -1.
         11   -1    0    0    0    0 -0.00000000000E+00 -0.00000000000E+00 -0.45593999997E+02  0.45594000000E+02  0.51100000000E-03 0.  1.
    9900012    2    1    2    0    0 -0.80881735273E+01  0.23656204677E+02 -0.32064485017E+02  0.50528858713E+02  0.29999996545E+02 0.  0.
         12    1    1    2    0    0  0.80881735273E+01 -0.23656204677E+02  0.32064485017E+02  0.40659141287E+02  0.00000000000E+00 0. -1.
         11    1    3    3    0    0 -0.14734204258E+02  0.20268164771E+02 -0.31540117798E+02  0.40282431770E+02  0.51100000000E-03 0. -1.
        -11    1    3    3    0    0 -0.81869323918E+00  0.19147724515E+01 -0.15125642908E+01  0.25738032473E+01  0.51100000000E-03 0.  1.
        -12    1    3    3    0    0  0.74647239697E+01  0.14732674545E+01  0.98819707127E+00  0.76726236965E+01  0.00000000000E+00 0.  1.
</event>
<event>
 7    1  0.2838209E-011  0.5052885E+02  0.7816164E-02  0.1300439E+00
        -11   -1    0    0    0    0  0.00000000000E+00  0.00000000000E+00  0.45593999997E+02  0.45594000000E+02  0.51100000000E-03 0.  1.
         11   -1    0    0    0    0 -0.00000000000E+00 -0.00000000000E+00 -0.45593999997E+02  0.45594000000E+02  0.51100000000E-03 0. -1.
    9900012    2    1    2    0    0  0.31737212731E+02  0.20092344019E+02  0.15563209770E+02  0.50528850249E+02  0.29999970818E+02 0.  0.
         12    1    1    2    0    0 -0.31737212731E+02 -0.20092344019E+02 -0.15563209770E+02  0.40659149751E+02  0.00000000000E+00 0. -1.
         11    1    3    3    0    0  0.14182565355E+02  0.94570894332E+01 -0.24502527215E+01  0.17221656112E+02  0.51100000000E-03 0.  1.
        -11    1    3    3    0    0  0.40469775799E+01  0.11652984144E+01 -0.39934214613E+01  0.58037369991E+01  0.51100000000E-03 0. -1.
         12    1    3    3    0    0  0.13507669796E+02  0.94699561715E+01  0.22006883953E+02  0.27503457138E+02  0.00000000000E+00 0. -1.
</event>
<event>
 7    1  0.2838209E-011  0.5052886E+02  0.7816164E-02  0.1300439E+00
        -11   -1    0    0    0    0  0.00000000000E+00  0.00000000000E+00  0.45593999997E+02  0.45594000000E+02  0.51100000000E-03 0.  1.
         11   -1    0    0    0    0 -0.00000000000E+00 -0.00000000000E+00 -0.45593999997E+02  0.45594000000E+02  0.51100000000E-03 0. -1.
    9900012    2    1    2    0    0  0.32361627865E+01 -0.39673107371E+02  0.82908075012E+01  0.50528859735E+02  0.29999999652E+02 0.  0.
         12    1    1    2    0    0 -0.32361627865E+01  0.39673107371E+02 -0.82908075012E+01  0.40659140265E+02  0.00000000000E+00 0. -1.
         11    1    3    3    0    0 -0.54908996836E+01 -0.22439179122E+02  0.40766950971E+01  0.23458179431E+02  0.51100000000E-03 0. -1.
        -11    1    3    3    0    0  0.16903561899E+01 -0.17580536113E+02 -0.18721764108E+01  0.17760563022E+02  0.51100000000E-03 0.  1.
        -12    1    3    3    0    0  0.70367062802E+01  0.34660786469E+00  0.60862888150E+01  0.93101172831E+01  0.00000000000E+00 0.  1.
</event>
<event>
 7    1  0.2838209E-011  0.5052885E+02  0.7816164E-02  0.1300439E+00
        -11   -1    0    0    0    0  0.00000000000E+00  0.00000000000E+00  0.45593999997E+02  0.45594000000E+02  0.51100000000E-03 0.  1.
         11   -1    0    0    0    0 -0.00000000000E+00 -0.00000000000E+00 -0.45593999997E+02  0.45594000000E+02  0.51100000000E-03 0. -1.
    9900012    2    1    2    0    0 -0.12963894599E+02 -0.19332106412E+01  0.38488521225E+02  0.50528854256E+02  0.29999982995E+02 0.  0.
         12    1    1    2    0    0  0.12963894599E+02  0.19332106412E+01 -0.38488521225E+02  0.40659145744E+02  0.00000000000E+00 0. -1.
         11    1    3    3    0    0 -0.10149097023E+02  0.37057601309E+01  0.15944681079E+02  0.19260573291E+02  0.51100000000E-03 0. -1.
        -11    1    3    3    0    0 -0.24183009854E+01  0.63753634270E+01  0.16415653790E+02  0.17775464216E+02  0.51100000000E-03 0.  1.
         12    1    3    3    0    0 -0.39649659052E+00 -0.12014334199E+02  0.61281863566E+01  0.13492816749E+02  0.00000000000E+00 0. -1.
</event>
<event>
 7    1  0.2838209E-011  0.5052886E+02  0.7816164E-02  0.1300439E+00
        -11   -1    0    0    0    0  0.00000000000E+00  0.00000000000E+00  0.45593999997E+02  0.45594000000E+02  0.51100000000E-03 0.  1.
         11   -1    0    0    0    0 -0.00000000000E+00 -0.00000000000E+00 -0.45593999997E+02  0.45594000000E+02  0.51100000000E-03 0. -1.
    9900012    2    1    2    0    0  0.14693759190E+02 -0.37498197569E+02  0.55807079600E+01  0.50528859805E+02  0.29999999863E+02 0.  0.
         12    1    1    2    0    0 -0.14693759190E+02  0.37498197569E+02 -0.55807079600E+01  0.40659140195E+02  0.00000000000E+00 0. -1.
         11    1    3    3    0    0  0.11944616386E+02 -0.92295260910E+01 -0.77251219547E+01  0.16956872411E+02  0.51100000000E-03 0.  1.
        -11    1    3    3    0    0  0.24634818572E+00 -0.56245399885E+01 -0.21667988951E+01  0.60325082034E+01  0.51100000000E-03 0. -1.
         12    1    3    3    0    0  0.25027946178E+01 -0.22644131490E+02  0.15472628810E+02  0.27539479191E+02  0.00000000000E+00 0. -1.
</event>
<event>
 7    1  0.2838209E-011  0.5052886E+02  0.7816164E-02  0.1300439E+00
        -11   -1    0    0    0    0  0.00000000000E+00  0.00000000000E+00  0.45593999997E+02  0.45594000000E+02  0.51100000000E-03 0. -1.
         11   -1    0    0    0    0 -0.00000000000E+00 -0.00000000000E+00 -0.45593999997E+02  0.45594000000E+02  0.51100000000E-03 0.  1.
    9900012    2    1    2    0    0  0.13370392540E+02  0.11165048000E+02 -0.36738806742E+02  0.50528860630E+02  0.30000002370E+02 0.  0.
         12    1    1    2    0    0 -0.13370392540E+02 -0.11165048000E+02  0.36738806742E+02  0.40659139370E+02  0.00000000000E+00 0. -1.
         11    1    3    3    0    0 -0.10294353075E+01 -0.44234595936E+01 -0.70002172758E+01  0.83444456975E+01  0.51100000000E-03 0. -1.
        -11    1    3    3    0    0  0.13457092607E+01  0.10126119450E+01 -0.20459573651E+02  0.20528771775E+02  0.51100000000E-03 0.  1.
        -12    1    3    3    0    0  0.13054118587E+02  0.14575895648E+02 -0.92790158154E+01  0.21655643157E+02  0.00000000000E+00 0.  1.
</event>
<event>
 7    1  0.2838209E-011  0.5052886E+02  0.7816164E-02  0.1300439E+00
        -11   -1    0    0    0    0  0.00000000000E+00  0.00000000000E+00  0.45593999997E+02  0.45594000000E+02  0.51100000000E-03 0.  1.
         11   -1    0    0    0    0 -0.00000000000E+00 -0.00000000000E+00 -0.45593999997E+02  0.45594000000E+02  0.51100000000E-03 0. -1.
    9900012    2    1    2    0    0 -0.28622270640E+02 -0.18524463454E+02  0.22153459368E+02  0.50528857304E+02  0.29999992260E+02 0.  0.
         12    1    1    2    0    0  0.28622270640E+02  0.18524463454E+02 -0.22153459368E+02  0.40659142696E+02  0.00000000000E+00 0. -1.
         11    1    3    3    0    0  0.13075668846E+01 -0.23248704127E+01  0.49269737340E+01  0.56026622270E+01  0.51100000000E-03 0. -1.
        -11    1    3    3    0    0 -0.11296437895E+02 -0.57880198284E+01  0.19703588453E+02  0.23438047718E+02  0.51100000000E-03 0.  1.
         12    1    3    3    0    0 -0.18633399629E+02 -0.10411573213E+02 -0.24771028194E+01  0.21488147358E+02  0.00000000000E+00 0. -1.
</event>
<event>
 7    1  0.2838209E-011  0.5052887E+02  0.7816164E-02  0.1300439E+00
        -11   -1    0    0    0    0  0.00000000000E+00  0.00000000000E+00  0.45593999997E+02  0.45594000000E+02  0.51100000000E-03 0.  1.
         11   -1    0    0    0    0 -0.00000000000E+00 -0.00000000000E+00 -0.45593999997E+02  0.45594000000E+02  0.51100000000E-03 0. -1.
    9900012    2    1    2    0    0  0.39176549697E+02 -0.84487758419E+01  0.68542900309E+01  0.50528866325E+02  0.30000019681E+02 0.  0.
         12    1    1    2    0    0 -0.39176549697E+02  0.84487758419E+01 -0.68542900309E+01  0.40659133675E+02  0.00000000000E+00 0. -1.
         11    1    3    3    0    0  0.62898840325E+01 -0.93576031063E+01 -0.11563728453E+01  0.11334221431E+02  0.51100000000E-03 0. -1.
        -11    1    3    3    0    0  0.83915598535E-01  0.50734159024E+01 -0.35575008588E+00  0.50865655536E+01  0.51100000000E-03 0.  1.
        -12    1    3    3    0    0  0.32802750066E+02 -0.41645886379E+01  0.83664129620E+01  0.34108079340E+02  0.00000000000E+00 0.  1.
</event>
<event>
 7    1  0.2838209E-011  0.5052887E+02  0.7816164E-02  0.1300439E+00
        -11   -1    0    0    0    0  0.00000000000E+00  0.00000000000E+00  0.45593999997E+02  0.45594000000E+02  0.51100000000E-03 0. -1.
         11   -1    0    0    0    0 -0.00000000000E+00 -0.00000000000E+00 -0.45593999997E+02  0.45594000000E+02  0.51100000000E-03 0.  1.
    9900012    2    1    2    0    0 -0.35332768652E+02  0.16368162747E+02 -0.11698009628E+02  0.50528871608E+02  0.30000035741E+02 0.  0.
         12    1    1    2    0    0  0.35332768652E+02 -0.16368162747E+02  0.11698009628E+02  0.40659128392E+02  0.00000000000E+00 0. -1.
         11    1    3    3    0    0 -0.68325458769E+01  0.69152245641E+01  0.10984371156E+01  0.97831783327E+01  0.51100000000E-03 0.  1.
        -11    1    3    3    0    0 -0.13987300348E+02  0.86480658766E+01  0.55346114610E+01  0.17351240265E+02  0.51100000000E-03 0. -1.
        -12    1    3    3    0    0 -0.14512922427E+02  0.80487230634E+00 -0.18331058204E+02  0.23394453011E+02  0.00000000000E+00 0.  1.
</event>
<event>
 7    1  0.2838209E-011  0.5052885E+02  0.7816164E-02  0.1300439E+00
        -11   -1    0    0    0    0  0.00000000000E+00  0.00000000000E+00  0.45593999997E+02  0.45594000000E+02  0.51100000000E-03 0. -1.
         11   -1    0    0    0    0 -0.00000000000E+00 -0.00000000000E+00 -0.45593999997E+02  0.45594000000E+02  0.51100000000E-03 0.  1.
    9900012    2    1    2    0    0 -0.21997914973E+02  0.33409399365E+02 -0.72849056051E+01  0.50528854918E+02  0.29999985010E+02 0.  0.
         12    1    1    2    0    0  0.21997914973E+02 -0.33409399365E+02  0.72849056051E+01  0.40659145082E+02  0.00000000000E+00 0. -1.
         11    1    3    3    0    0 -0.79322424152E+01  0.98476430105E+01  0.58789429083E+01  0.13944838205E+02  0.51100000000E-03 0. -1.
        -11    1    3    3    0    0 -0.15275805285E+02  0.20101773634E+02 -0.25746462891E+01  0.25378343802E+02  0.51100000000E-03 0.  1.
         12    1    3    3    0    0  0.12101327275E+01  0.34599827208E+01 -0.10589202224E+02  0.11205672911E+02  0.00000000000E+00 0. -1.
</event>
<event>
 7    1  0.2838209E-011  0.5052886E+02  0.7816164E-02  0.1300439E+00
        -11   -1    0    0    0    0  0.00000000000E+00  0.00000000000E+00  0.45593999997E+02  0.45594000000E+02  0.51100000000E-03 0. -1.
         11   -1    0    0    0    0 -0.00000000000E+00 -0.00000000000E+00 -0.45593999997E+02  0.45594000000E+02  0.51100000000E-03 0.  1.
    9900012    2    1    2    0    0  0.36866440787E+02 -0.95489615325E+01 -0.14242496913E+02  0.50528857842E+02  0.29999993897E+02 0.  0.
         12    1    1    2    0    0 -0.36866440787E+02  0.95489615325E+01  0.14242496913E+02  0.40659142158E+02  0.00000000000E+00 0. -1.
         11    1    3    3    0    0 -0.24868097369E+01 -0.74321867124E+00 -0.29273102913E+01  0.39122554190E+01  0.51100000000E-03 0. -1.
        -11    1    3    3    0    0  0.25052174853E+02  0.47263304184E+01 -0.73536673126E+01  0.26533489920E+02  0.51100000000E-03 0.  1.
         12    1    3    3    0    0  0.14301075671E+02 -0.13532073280E+02 -0.39615193091E+01  0.20083112504E+02  0.00000000000E+00 0. -1.
</event>
<event>
 7    1  0.2838209E-011  0.5052882E+02  0.7816164E-02  0.1300439E+00
        -11   -1    0    0    0    0  0.00000000000E+00  0.00000000000E+00  0.45593999997E+02  0.45594000000E+02  0.51100000000E-03 0. -1.
         11   -1    0    0    0    0 -0.00000000000E+00 -0.00000000000E+00 -0.45593999997E+02  0.45594000000E+02  0.51100000000E-03 0.  1.
    9900012    2    1    2    0    0  0.44682241817E+01  0.40316601083E+02 -0.27884669522E+01  0.50528820247E+02  0.29999879623E+02 0.  0.
         12    1    1    2    0    0 -0.44682241817E+01 -0.40316601083E+02  0.27884669522E+01  0.40659179753E+02  0.00000000000E+00 0. -1.
         11    1    3    3    0    0  0.88743305444E+01  0.13495928858E+02  0.47433419955E+01  0.16834284419E+02  0.51100000000E-03 0. -1.
        -11    1    3    3    0    0 -0.19554362255E+01  0.29222493080E+02 -0.76168016929E+01  0.30262080248E+02  0.51100000000E-03 0.  1.
         12    1    3    3    0    0 -0.24506701372E+01 -0.24018208553E+01  0.84992745146E-01  0.34324555801E+01  0.00000000000E+00 0. -1.
</event>
<event>
 7    1  0.2838209E-011  0.5052886E+02  0.7816164E-02  0.1300439E+00
        -11   -1    0    0    0    0  0.00000000000E+00  0.00000000000E+00  0.45593999997E+02  0.45594000000E+02  0.51100000000E-03 0. -1.
         11   -1    0    0    0    0 -0.00000000000E+00 -0.00000000000E+00 -0.45593999997E+02  0.45594000000E+02  0.51100000000E-03 0.  1.
    9900012    2    1    2    0    0 -0.23923584741E+02 -0.28886554996E+02 -0.15696959531E+02  0.50528861975E+02  0.30000006460E+02 0.  0.
         12    1    1    2    0    0  0.23923584741E+02  0.28886554996E+02  0.15696959531E+02  0.40659138025E+02  0.00000000000E+00 0. -1.
         11    1    3    3    0    0 -0.86563057568E+01 -0.19503329480E+01 -0.27218638807E+01  0.92813776569E+01  0.51100000000E-03 0. -1.
        -11    1    3    3    0    0 -0.18535469310E+02 -0.17425514796E+02 -0.16801295047E+02  0.30487631984E+02  0.51100000000E-03 0.  1.
         12    1    3    3    0    0  0.32681903264E+01 -0.95107072517E+01  0.38261993967E+01  0.10759852334E+02  0.00000000000E+00 0. -1.
</event>
<event>
 7    1  0.2838209E-011  0.5052885E+02  0.7816164E-02  0.1300439E+00
        -11   -1    0    0    0    0  0.00000000000E+00  0.00000000000E+00  0.45593999997E+02  0.45594000000E+02  0.51100000000E-03 0. -1.
         11   -1    0    0    0    0 -0.00000000000E+00 -0.00000000000E+00 -0.45593999997E+02  0.45594000000E+02  0.51100000000E-03 0.  1.
    9900012    2    1    2    0    0 -0.28634991348E+02 -0.28772534816E+02 -0.23118363460E+01  0.50528854946E+02  0.29999985094E+02 0.  0.
         12    1    1    2    0    0  0.28634991348E+02  0.28772534816E+02  0.23118363460E+01  0.40659145054E+02  0.00000000000E+00 0. -1.
         11    1    3    3    0    0 -0.84803221773E+01 -0.75116426984E+00  0.22106283163E+01  0.87958507153E+01  0.51100000000E-03 0. -1.
        -11    1    3    3    0    0 -0.20433651980E+02 -0.89917292601E+01 -0.78841075806E+00  0.22338462796E+02  0.51100000000E-03 0.  1.
        -12    1    3    3    0    0  0.27898280943E+00 -0.19029641286E+02 -0.37340539043E+01  0.19394541434E+02  0.00000000000E+00 0.  1.
</event>
<event>
 7    1  0.2838209E-011  0.5052887E+02  0.7816164E-02  0.1300439E+00
        -11   -1    0    0    0    0  0.00000000000E+00  0.00000000000E+00  0.45593999997E+02  0.45594000000E+02  0.51100000000E-03 0.  1.
         11   -1    0    0    0    0 -0.00000000000E+00 -0.00000000000E+00 -0.45593999997E+02  0.45594000000E+02  0.51100000000E-03 0. -1.
    9900012    2    1    2    0    0 -0.30549145946E+01 -0.75821110815E+01  0.39828938219E+02  0.50528865340E+02  0.30000016689E+02 0.  0.
         12    1    1    2    0    0  0.30549145946E+01  0.75821110815E+01 -0.39828938219E+02  0.40659134660E+02  0.00000000000E+00 0. -1.
         11    1    3    3    0    0 -0.80722686651E+01  0.33444944988E+01  0.59200102038E+01  0.10554320723E+02  0.51100000000E-03 0. -1.
        -11    1    3    3    0    0 -0.12570859687E+01  0.43424187958E+01  0.55204752667E+01  0.71353005237E+01  0.51100000000E-03 0.  1.
        -12    1    3    3    0    0  0.62744400392E+01 -0.15269024376E+02  0.28388452748E+02  0.32839244094E+02  0.00000000000E+00 0.  1.
</event>
<event>
 7    1  0.2838209E-011  0.5052885E+02  0.7816164E-02  0.1300439E+00
        -11   -1    0    0    0    0  0.00000000000E+00  0.00000000000E+00  0.45593999997E+02  0.45594000000E+02  0.51100000000E-03 0.  1.
         11   -1    0    0    0    0 -0.00000000000E+00 -0.00000000000E+00 -0.45593999997E+02  0.45594000000E+02  0.51100000000E-03 0. -1.
    9900012    2    1    2    0    0  0.23528532733E+02 -0.12385282391E+02  0.30760023593E+02  0.50528854363E+02  0.29999983323E+02 0.  0.
         12    1    1    2    0    0 -0.23528532733E+02  0.12385282391E+02 -0.30760023593E+02  0.40659145637E+02  0.00000000000E+00 0. -1.
         11    1    3    3    0    0  0.71249780448E+01 -0.56824398337E+01  0.26141867839E+01  0.94810024472E+01  0.51100000000E-03 0. -1.
        -11    1    3    3    0    0  0.79127761141E+01 -0.14478820550E+02  0.92368827091E+01  0.18909475741E+02  0.51100000000E-03 0.  1.
         12    1    3    3    0    0  0.84907785741E+01  0.77759779928E+01  0.18908954100E+02  0.22138376175E+02  0.00000000000E+00 0. -1.
</event>
<event>
 7    1  0.2838209E-011  0.5052886E+02  0.7816164E-02  0.1300439E+00
        -11   -1    0    0    0    0  0.00000000000E+00  0.00000000000E+00  0.45593999997E+02  0.45594000000E+02  0.51100000000E-03 0.  1.
         11   -1    0    0    0    0 -0.00000000000E+00 -0.00000000000E+00 -0.45593999997E+02  0.45594000000E+02  0.51100000000E-03 0. -1.
    9900012    2    1    2    0    0 -0.28893253967E+02 -0.42320860373E-01  0.28606711040E+02  0.50528857949E+02  0.29999994221E+02 0.  0.
         12    1    1    2    0    0  0.28893253967E+02  0.42320860373E-01 -0.28606711040E+02  0.40659142051E+02  0.00000000000E+00 0. -1.
         11    1    3    3    0    0  0.26831588481E+01  0.25656716929E+01  0.31975195278E+01  0.48996065181E+01  0.51100000000E-03 0. -1.
        -11    1    3    3    0    0 -0.18823233697E+01  0.33533514607E+01 -0.23825672934E+01  0.45237964649E+01  0.51100000000E-03 0.  1.
        -12    1    3    3    0    0 -0.29694089445E+02 -0.59613440140E+01  0.27791758805E+02  0.41105454966E+02  0.00000000000E+00 0.  1.
</event>
<event>
 7    1  0.2838209E-011  0.5052886E+02  0.7816164E-02  0.1300439E+00
        -11   -1    0    0    0    0  0.00000000000E+00  0.00000000000E+00  0.45593999997E+02  0.45594000000E+02  0.51100000000E-03 0.  1.
         11   -1    0    0    0    0 -0.00000000000E+00 -0.00000000000E+00 -0.45593999997E+02  0.45594000000E+02  0.51100000000E-03 0. -1.
    9900012    2    1    2    0    0 -0.88957196716E+01  0.22594512527E+02 -0.32611653741E+02  0.50528858537E+02  0.29999996008E+02 0.  0.
         12    1    1    2    0    0  0.88957196716E+01 -0.22594512527E+02  0.32611653741E+02  0.40659141463E+02  0.00000000000E+00 0. -1.
         11    1    3    3    0    0  0.69726658730E+00 -0.21945161481E+00 -0.11734101418E+02  0.11756848049E+02  0.51100000000E-03 0. -1.
        -11    1    3    3    0    0  0.48875890495E+00 -0.35960710399E+01 -0.55051226554E+01  0.65937082058E+01  0.51100000000E-03 0.  1.
        -12    1    3    3    0    0 -0.10081745164E+02  0.26410035182E+02 -0.15372429668E+02  0.32178302282E+02  0.00000000000E+00 0.  1.
</event>
<event>
 7    1  0.2838209E-011  0.5052886E+02  0.7816164E-02  0.1300439E+00
        -11   -1    0    0    0    0  0.00000000000E+00  0.00000000000E+00  0.45593999997E+02  0.45594000000E+02  0.51100000000E-03 0. -1.
         11   -1    0    0    0    0 -0.00000000000E+00 -0.00000000000E+00 -0.45593999997E+02  0.45594000000E+02  0.51100000000E-03 0.  1.
    9900012    2    1    2    0    0 -0.17694788245E+02  0.20416857747E+02 -0.30384407983E+02  0.50528857612E+02  0.29999993196E+02 0.  0.
         12    1    1    2    0    0  0.17694788245E+02 -0.20416857747E+02  0.30384407983E+02  0.40659142388E+02  0.00000000000E+00 0. -1.
         11    1    3    3    0    0 -0.18131069513E+02  0.13951893202E+02 -0.13819838226E+02  0.26727868124E+02  0.51100000000E-03 0. -1.
        -11    1    3    3    0    0  0.15075783730E+00 -0.30120368244E+01  0.15233780542E+01  0.33787238293E+01  0.51100000000E-03 0.  1.
        -12    1    3    3    0    0  0.28552343077E+00  0.94770013693E+01 -0.18087947812E+02  0.20422265658E+02  0.00000000000E+00 0.  1.
</event>
<event>
 7    1  0.2838209E-011  0.5052886E+02  0.7816164E-02  0.1300439E+00
        -11   -1    0    0    0    0  0.00000000000E+00  0.00000000000E+00  0.45593999997E+02  0.45594000000E+02  0.51100000000E-03 0.  1.
         11   -1    0    0    0    0 -0.00000000000E+00 -0.00000000000E+00 -0.45593999997E+02  0.45594000000E+02  0.51100000000E-03 0. -1.
    9900012    2    1    2    0    0 -0.13412503414E+02 -0.25207546561E+02  0.28945640219E+02  0.50528859094E+02  0.29999997703E+02 0.  0.
         12    1    1    2    0    0  0.13412503414E+02  0.25207546561E+02 -0.28945640219E+02  0.40659140906E+02  0.00000000000E+00 0. -1.
         11    1    3    3    0    0  0.10205009620E+01 -0.63197676542E+01 -0.21381059853E+01  0.67492505422E+01  0.51100000000E-03 0. -1.
        -11    1    3    3    0    0 -0.50755998893E+00 -0.13681211803E+02  0.67512276835E+01  0.15264738748E+02  0.51100000000E-03 0.  1.
        -12    1    3    3    0    0 -0.13925444387E+02 -0.52065671044E+01  0.24332518521E+02  0.28514869805E+02  0.00000000000E+00 0.  1.
</event>
<event>
 7    1  0.2838209E-011  0.5052886E+02  0.7816164E-02  0.1300439E+00
        -11   -1    0    0    0    0  0.00000000000E+00  0.00000000000E+00  0.45593999997E+02  0.45594000000E+02  0.51100000000E-03 0. -1.
         11   -1    0    0    0    0 -0.00000000000E+00 -0.00000000000E+00 -0.45593999997E+02  0.45594000000E+02  0.51100000000E-03 0.  1.
    9900012    2    1    2    0    0 -0.11646518151E+02  0.11546893699E+02 -0.37204755506E+02  0.50528856239E+02  0.29999989023E+02 0.  0.
         12    1    1    2    0    0  0.11646518151E+02 -0.11546893699E+02  0.37204755506E+02  0.40659143761E+02  0.00000000000E+00 0. -1.
         11    1    3    3    0    0  0.27065150171E+01 -0.32292400139E+00  0.30368134104E+01  0.40806542857E+01  0.51100000000E-03 0. -1.
        -11    1    3    3    0    0 -0.10408417574E+02  0.21428332969E+01 -0.10627543233E+02  0.15029024132E+02  0.51100000000E-03 0.  1.
        -12    1    3    3    0    0 -0.39446155950E+01  0.97269844035E+01 -0.29614025683E+02  0.31419177821E+02  0.00000000000E+00 0.  1.
</event>
<event>
 7    1  0.2838209E-011  0.5052888E+02  0.7816164E-02  0.1300439E+00
        -11   -1    0    0    0    0  0.00000000000E+00  0.00000000000E+00  0.45593999997E+02  0.45594000000E+02  0.51100000000E-03 0.  1.
         11   -1    0    0    0    0 -0.00000000000E+00 -0.00000000000E+00 -0.45593999997E+02  0.45594000000E+02  0.51100000000E-03 0. -1.
    9900012    2    1    2    0    0 -0.35545801891E+02  0.10453766226E+02 -0.16744518231E+02  0.50528878622E+02  0.30000057061E+02 0.  0.
         12    1    1    2    0    0  0.35545801891E+02 -0.10453766226E+02  0.16744518231E+02  0.40659121378E+02  0.00000000000E+00 0. -1.
         11    1    3    3    0    0 -0.88837490619E+01  0.12592106871E+02 -0.15131377040E+02  0.21597238811E+02  0.51100000000E-03 0. -1.
        -11    1    3    3    0    0 -0.54361378028E+01  0.51596118442E+00 -0.48419492225E+01  0.72981013071E+01  0.51100000000E-03 0.  1.
        -12    1    3    3    0    0 -0.21225915027E+02 -0.26543018296E+01  0.32288080320E+01  0.21633538505E+02  0.00000000000E+00 0.  1.
</event>
<event>
 7    1  0.2838209E-011  0.5052885E+02  0.7816164E-02  0.1300439E+00
        -11   -1    0    0    0    0  0.00000000000E+00  0.00000000000E+00  0.45593999997E+02  0.45594000000E+02  0.51100000000E-03 0.  1.
         11   -1    0    0    0    0 -0.00000000000E+00 -0.00000000000E+00 -0.45593999997E+02  0.45594000000E+02  0.51100000000E-03 0. -1.
    9900012    2    1    2    0    0 -0.18606105886E+02 -0.35300233709E+02  0.78020971542E+01  0.50528851016E+02  0.29999973147E+02 0.  0.
         12    1    1    2    0    0  0.18606105886E+02  0.35300233709E+02 -0.78020971542E+01  0.40659148984E+02  0.00000000000E+00 0. -1.
         11    1    3    3    0    0 -0.54310580373E+01 -0.12142430187E+02 -0.17348219611E+01  0.13414343434E+02  0.51100000000E-03 0. -1.
        -11    1    3    3    0    0 -0.13424640348E+02 -0.15502408762E+02  0.16836919454E+02  0.26533516595E+02  0.51100000000E-03 0.  1.
         12    1    3    3    0    0  0.24959250012E+00 -0.76553947590E+01 -0.73000003385E+01  0.10580990987E+02  0.00000000000E+00 0. -1.
</event>
<event>
 7    1  0.2838209E-011  0.5052886E+02  0.7816164E-02  0.1300439E+00
        -11   -1    0    0    0    0  0.00000000000E+00  0.00000000000E+00  0.45593999997E+02  0.45594000000E+02  0.51100000000E-03 0.  1.
         11   -1    0    0    0    0 -0.00000000000E+00 -0.00000000000E+00 -0.45593999997E+02  0.45594000000E+02  0.51100000000E-03 0. -1.
    9900012    2    1    2    0    0  0.11807034588E+02  0.22982371256E+02  0.31393791774E+02  0.50528860606E+02  0.30000002297E+02 0.  0.
         12    1    1    2    0    0 -0.11807034588E+02 -0.22982371256E+02 -0.31393791774E+02  0.40659139394E+02  0.00000000000E+00 0. -1.
         11    1    3    3    0    0  0.69424382011E+00 -0.13517001311E+01  0.11565446703E+02  0.11664845709E+02  0.51100000000E-03 0. -1.
        -11    1    3    3    0    0  0.12577752970E+02  0.17157804675E+02  0.22595357315E+02  0.31034501825E+02  0.51100000000E-03 0.  1.
        -12    1    3    3    0    0 -0.14649622019E+01  0.71762667124E+01 -0.27670122442E+01  0.78295130718E+01  0.00000000000E+00 0.  1.
</event>
<event>
 7    1  0.2838209E-011  0.5052886E+02  0.7816164E-02  0.1300439E+00
        -11   -1    0    0    0    0  0.00000000000E+00  0.00000000000E+00  0.45593999997E+02  0.45594000000E+02  0.51100000000E-03 0.  1.
         11   -1    0    0    0    0 -0.00000000000E+00 -0.00000000000E+00 -0.45593999997E+02  0.45594000000E+02  0.51100000000E-03 0. -1.
    9900012    2    1    2    0    0  0.34588328520E+02 -0.31650152695E+01  0.21137552284E+02  0.50528857018E+02  0.29999991391E+02 0.  0.
         12    1    1    2    0    0 -0.34588328520E+02  0.31650152695E+01 -0.21137552284E+02  0.40659142982E+02  0.00000000000E+00 0. -1.
         11    1    3    3    0    0  0.39432386125E+01  0.15937310937E+01 -0.18535607474E+01  0.46394824345E+01  0.51100000000E-03 0. -1.
        -11    1    3    3    0    0  0.20980914161E+01 -0.73245232684E+01 -0.19834331093E+01  0.78730321897E+01  0.51100000000E-03 0.  1.
        -12    1    3    3    0    0  0.28546998492E+02  0.25657769053E+01  0.24974546141E+02  0.38016342393E+02  0.00000000000E+00 0.  1.
</event>
<event>
 7    1  0.2838209E-011  0.5052885E+02  0.7816164E-02  0.1300439E+00
        -11   -1    0    0    0    0  0.00000000000E+00  0.00000000000E+00  0.45593999997E+02  0.45594000000E+02  0.51100000000E-03 0. -1.
         11   -1    0    0    0    0 -0.00000000000E+00 -0.00000000000E+00 -0.45593999997E+02  0.45594000000E+02  0.51100000000E-03 0.  1.
    9900012    2    1    2    0    0  0.42472172313E+01 -0.19156549874E+02 -0.35611148949E+02  0.50528853590E+02  0.29999980972E+02 0.  0.
         12    1    1    2    0    0 -0.42472172313E+01  0.19156549874E+02  0.35611148949E+02  0.40659146410E+02  0.00000000000E+00 0. -1.
         11    1    3    3    0    0  0.84139432656E+01 -0.20922946427E+01 -0.19388752502E+02  0.21239017444E+02  0.51100000000E-03 0. -1.
        -11    1    3    3    0    0  0.47001735088E+01 -0.82280544568E+01 -0.13476047504E+02  0.16474112048E+02  0.51100000000E-03 0.  1.
         12    1    3    3    0    0 -0.88668995430E+01 -0.88362007748E+01 -0.27463489428E+01  0.12815724098E+02  0.00000000000E+00 0. -1.
</event>
<event>
 7    1  0.2838209E-011  0.5052885E+02  0.7816164E-02  0.1300439E+00
        -11   -1    0    0    0    0  0.00000000000E+00  0.00000000000E+00  0.45593999997E+02  0.45594000000E+02  0.51100000000E-03 0. -1.
         11   -1    0    0    0    0 -0.00000000000E+00 -0.00000000000E+00 -0.45593999997E+02  0.45594000000E+02  0.51100000000E-03 0.  1.
    9900012    2    1    2    0    0 -0.36336702288E+02 -0.18233376430E+02 -0.59556110223E+00  0.50528847989E+02  0.29999963948E+02 0.  0.
         12    1    1    2    0    0  0.36336702288E+02  0.18233376430E+02  0.59556110223E+00  0.40659152011E+02  0.00000000000E+00 0. -1.
         11    1    3    3    0    0 -0.28073532169E+02 -0.89135658720E+01  0.73540888489E+01  0.30358812362E+02  0.51100000000E-03 0. -1.
        -11    1    3    3    0    0 -0.11712696569E+02 -0.45163174932E+01 -0.45737577307E+01  0.13360525613E+02  0.51100000000E-03 0.  1.
        -12    1    3    3    0    0  0.34495264497E+01 -0.48034930647E+01 -0.33758922205E+01  0.68095100142E+01  0.00000000000E+00 0.  1.
</event>
<event>
 7    1  0.2838209E-011  0.5052886E+02  0.7816164E-02  0.1300439E+00
        -11   -1    0    0    0    0  0.00000000000E+00  0.00000000000E+00  0.45593999997E+02  0.45594000000E+02  0.51100000000E-03 0.  1.
         11   -1    0    0    0    0 -0.00000000000E+00 -0.00000000000E+00 -0.45593999997E+02  0.45594000000E+02  0.51100000000E-03 0. -1.
    9900012    2    1    2    0    0 -0.14621310670E+02  0.97096511297E+01  0.36675684926E+02  0.50528856925E+02  0.29999991110E+02 0.  0.
         12    1    1    2    0    0  0.14621310670E+02 -0.97096511297E+01 -0.36675684926E+02  0.40659143075E+02  0.00000000000E+00 0. -1.
         11    1    3    3    0    0 -0.12022067874E+02 -0.60034700391E+00  0.33431937471E+01  0.12492696954E+02  0.51100000000E-03 0. -1.
        -11    1    3    3    0    0 -0.78434856262E+01  0.19148432267E+01  0.11359045538E+02  0.13936097271E+02  0.51100000000E-03 0.  1.
         12    1    3    3    0    0  0.52442428310E+01  0.83951549069E+01  0.21973445641E+02  0.24100062700E+02  0.00000000000E+00 0. -1.
</event>
<event>
 7    1  0.2838209E-011  0.5052888E+02  0.7816164E-02  0.1300439E+00
        -11   -1    0    0    0    0  0.00000000000E+00  0.00000000000E+00  0.45593999997E+02  0.45594000000E+02  0.51100000000E-03 0.  1.
         11   -1    0    0    0    0 -0.00000000000E+00 -0.00000000000E+00 -0.45593999997E+02  0.45594000000E+02  0.51100000000E-03 0. -1.
    9900012    2    1    2    0    0 -0.29807461840E+02 -0.20710064754E+02  0.18324089357E+02  0.50528882766E+02  0.30000069656E+02 0.  0.
         12    1    1    2    0    0  0.29807461840E+02  0.20710064754E+02 -0.18324089357E+02  0.40659117234E+02  0.00000000000E+00 0. -1.
         11    1    3    3    0    0 -0.27735112327E+01  0.62420836290E+01  0.18354390954E+01  0.70728218925E+01  0.51100000000E-03 0. -1.
        -11    1    3    3    0    0  0.13406839063E+01 -0.20656440572E+01  0.91166081338E+00  0.26259178219E+01  0.51100000000E-03 0.  1.
        -12    1    3    3    0    0 -0.28374634514E+02 -0.24886504326E+02  0.15576989448E+02  0.40830143052E+02  0.00000000000E+00 0.  1.
</event>
<event>
 7    1  0.2838209E-011  0.5052885E+02  0.7816164E-02  0.1300439E+00
        -11   -1    0    0    0    0  0.00000000000E+00  0.00000000000E+00  0.45593999997E+02  0.45594000000E+02  0.51100000000E-03 0.  1.
         11   -1    0    0    0    0 -0.00000000000E+00 -0.00000000000E+00 -0.45593999997E+02  0.45594000000E+02  0.51100000000E-03 0. -1.
    9900012    2    1    2    0    0 -0.24701752372E+02 -0.42790616742E+01  0.32010610361E+02  0.50528854476E+02  0.29999983665E+02 0.  0.
         12    1    1    2    0    0  0.24701752372E+02  0.42790616742E+01 -0.32010610361E+02  0.40659145524E+02  0.00000000000E+00 0. -1.
         11    1    3    3    0    0 -0.14057670960E+02 -0.45053414050E+00  0.17737795509E+02  0.22637369185E+02  0.51100000000E-03 0. -1.
        -11    1    3    3    0    0 -0.68289914024E+01 -0.12388750116E+02  0.11152723673E+02  0.18013869617E+02  0.51100000000E-03 0.  1.
         12    1    3    3    0    0 -0.38150900096E+01  0.85602225819E+01  0.31200911785E+01  0.98776156736E+01  0.00000000000E+00 0. -1.
</event>
<event>
 7    1  0.2838209E-011  0.5052885E+02  0.7816164E-02  0.1300439E+00
        -11   -1    0    0    0    0  0.00000000000E+00  0.00000000000E+00  0.45593999997E+02  0.45594000000E+02  0.51100000000E-03 0. -1.
         11   -1    0    0    0    0 -0.00000000000E+00 -0.00000000000E+00 -0.45593999997E+02  0.45594000000E+02  0.51100000000E-03 0.  1.
    9900012    2    1    2    0    0 -0.23041483829E+02  0.21506176793E+02 -0.25685416945E+02  0.50528852679E+02  0.29999978203E+02 0.  0.
         12    1    1    2    0    0  0.23041483829E+02 -0.21506176793E+02  0.25685416945E+02  0.40659147321E+02  0.00000000000E+00 0. -1.
         11    1    3    3    0    0 -0.72627768383E+01  0.55915761543E+01 -0.10323001079E+01  0.92238438335E+01  0.51100000000E-03 0. -1.
        -11    1    3    3    0    0 -0.72785582286E+01  0.64513322759E+01  0.35597889800E+01  0.10357084332E+02  0.51100000000E-03 0.  1.
        -12    1    3    3    0    0 -0.85001487616E+01  0.94632683624E+01 -0.28212905817E+02  0.30947924513E+02  0.00000000000E+00 0.  1.
</event>
<event>
 7    1  0.2838209E-011  0.5052886E+02  0.7816164E-02  0.1300439E+00
        -11   -1    0    0    0    0  0.00000000000E+00  0.00000000000E+00  0.45593999997E+02  0.45594000000E+02  0.51100000000E-03 0.  1.
         11   -1    0    0    0    0 -0.00000000000E+00 -0.00000000000E+00 -0.45593999997E+02  0.45594000000E+02  0.51100000000E-03 0. -1.
    9900012    2    1    2    0    0 -0.70895767680E+01 -0.40035700831E+02  0.21525155698E+00  0.50528858679E+02  0.29999996440E+02 0.  0.
         12    1    1    2    0    0  0.70895767680E+01  0.40035700831E+02 -0.21525155698E+00  0.40659141321E+02  0.00000000000E+00 0. -1.
         11    1    3    3    0    0  0.26544672430E+01 -0.26289225411E+02 -0.48777861895E+01  0.26869357406E+02  0.51100000000E-03 0. -1.
        -11    1    3    3    0    0 -0.25937171718E+01 -0.78603318090E+01 -0.52298412311E+01  0.97909869001E+01  0.51100000000E-03 0.  1.
        -12    1    3    3    0    0 -0.71503268391E+01 -0.58861436104E+01  0.10322878978E+02  0.13868514372E+02  0.00000000000E+00 0.  1.
</event>
<event>
 7    1  0.2838209E-011  0.5052886E+02  0.7816164E-02  0.1300439E+00
        -11   -1    0    0    0    0  0.00000000000E+00  0.00000000000E+00  0.45593999997E+02  0.45594000000E+02  0.51100000000E-03 0.  1.
         11   -1    0    0    0    0 -0.00000000000E+00 -0.00000000000E+00 -0.45593999997E+02  0.45594000000E+02  0.51100000000E-03 0. -1.
    9900012    2    1    2    0    0  0.98989577076E+01  0.60213720717E+01  0.38973312257E+02  0.50528863836E+02  0.30000012115E+02 0.  0.
         12    1    1    2    0    0 -0.98989577076E+01 -0.60213720717E+01 -0.38973312257E+02  0.40659136164E+02  0.00000000000E+00 0. -1.
         11    1    3    3    0    0  0.16992043374E+01 -0.43943582149E+01  0.16037884927E+02  0.16715604467E+02  0.51100000000E-03 0. -1.
        -11    1    3    3    0    0  0.80228545710E+01  0.91961860364E-01  0.22033244634E+02  0.23448635820E+02  0.51100000000E-03 0.  1.
        -12    1    3    3    0    0  0.17689879931E+00  0.10323768426E+02  0.90218269673E+00  0.10364623550E+02  0.00000000000E+00 0.  1.
</event>
<event>
 7    1  0.2838209E-011  0.5052885E+02  0.7816164E-02  0.1300439E+00
        -11   -1    0    0    0    0  0.00000000000E+00  0.00000000000E+00  0.45593999997E+02  0.45594000000E+02  0.51100000000E-03 0.  1.
         11   -1    0    0    0    0 -0.00000000000E+00 -0.00000000000E+00 -0.45593999997E+02  0.45594000000E+02  0.51100000000E-03 0. -1.
    9900012    2    1    2    0    0  0.17713013567E+02  0.19908901944E+02  0.30709145092E+02  0.50528845821E+02  0.29999957359E+02 0.  0.
         12    1    1    2    0    0 -0.17713013567E+02 -0.19908901944E+02 -0.30709145092E+02  0.40659154179E+02  0.00000000000E+00 0. -1.
         11    1    3    3    0    0 -0.14559972187E+01 -0.13522687095E+01  0.73141468199E+01  0.75792679414E+01  0.51100000000E-03 0. -1.
        -11    1    3    3    0    0  0.42635316531E+01  0.50171101746E+00  0.15675594511E+02  0.16252805285E+02  0.51100000000E-03 0.  1.
        -12    1    3    3    0    0  0.14905479133E+02  0.20759459636E+02  0.77194037608E+01  0.26696772595E+02  0.00000000000E+00 0.  1.
</event>
<event>
 7    1  0.2838209E-011  0.5052877E+02  0.7816164E-02  0.1300439E+00
        -11   -1    0    0    0    0  0.00000000000E+00  0.00000000000E+00  0.45593999997E+02  0.45594000000E+02  0.51100000000E-03 0. -1.
         11   -1    0    0    0    0 -0.00000000000E+00 -0.00000000000E+00 -0.45593999997E+02  0.45594000000E+02  0.51100000000E-03 0.  1.
    9900012    2    1    2    0    0 -0.19993835970E+01  0.34533099434E+02 -0.21369144648E+02  0.50528771844E+02  0.29999732495E+02 0.  0.
         12    1    1    2    0    0  0.19993835970E+01 -0.34533099434E+02  0.21369144648E+02  0.40659228156E+02  0.00000000000E+00 0. -1.
         11    1    3    3    0    0  0.22100027712E+01  0.34164844082E+01 -0.82162135170E+01  0.91685681967E+01  0.51100000000E-03 0. -1.
        -11    1    3    3    0    0  0.97808703055E+01  0.14364043539E+02 -0.53864536496E+01  0.18193544292E+02  0.51100000000E-03 0.  1.
        -12    1    3    3    0    0 -0.13990256674E+02  0.16752571486E+02 -0.77664774815E+01  0.23166659355E+02  0.00000000000E+00 0.  1.
</event>
<event>
 7    1  0.2838209E-011  0.5052886E+02  0.7816164E-02  0.1300439E+00
        -11   -1    0    0    0    0  0.00000000000E+00  0.00000000000E+00  0.45593999997E+02  0.45594000000E+02  0.51100000000E-03 0. -1.
         11   -1    0    0    0    0 -0.00000000000E+00 -0.00000000000E+00 -0.45593999997E+02  0.45594000000E+02  0.51100000000E-03 0.  1.
    9900012    2    1    2    0    0 -0.55564391156E+01  0.10750385452E+02 -0.38816503163E+02  0.50528859320E+02  0.29999998389E+02 0.  0.
         12    1    1    2    0    0  0.55564391156E+01 -0.10750385452E+02  0.38816503163E+02  0.40659140680E+02  0.00000000000E+00 0. -1.
         11    1    3    3    0    0 -0.10207456497E+02  0.10100134548E+02 -0.21281981162E+02  0.25673480646E+02  0.51100000000E-03 0. -1.
        -11    1    3    3    0    0 -0.40958793206E+01  0.22431988240E+01 -0.14851791107E+02  0.15568682273E+02  0.51100000000E-03 0.  1.
         12    1    3    3    0    0  0.87468967021E+01 -0.15929479204E+01 -0.26827308944E+01  0.92866964011E+01  0.00000000000E+00 0. -1.
</event>
<event>
 7    1  0.2838209E-011  0.5052882E+02  0.7816164E-02  0.1300439E+00
        -11   -1    0    0    0    0  0.00000000000E+00  0.00000000000E+00  0.45593999997E+02  0.45594000000E+02  0.51100000000E-03 0.  1.
         11   -1    0    0    0    0 -0.00000000000E+00 -0.00000000000E+00 -0.45593999997E+02  0.45594000000E+02  0.51100000000E-03 0. -1.
    9900012    2    1    2    0    0  0.15166021060E+02  0.35651990835E+01  0.37555956755E+02  0.50528822352E+02  0.29999886020E+02 0.  0.
         12    1    1    2    0    0 -0.15166021060E+02 -0.35651990835E+01 -0.37555956755E+02  0.40659177648E+02  0.00000000000E+00 0. -1.
         11    1    3    3    0    0  0.11584839705E+02  0.78730945371E+01  0.24965607263E+01  0.14227682324E+02  0.51100000000E-03 0. -1.
        -11    1    3    3    0    0 -0.15850945664E+01  0.11035519860E+01  0.70647933089E+01  0.73240464587E+01  0.51100000000E-03 0.  1.
        -12    1    3    3    0    0  0.51662759209E+01 -0.54114474397E+01  0.27994602719E+02  0.28977093569E+02  0.00000000000E+00 0.  1.
</event>
<event>
 7    1  0.2838209E-011  0.5052884E+02  0.7816164E-02  0.1300439E+00
        -11   -1    0    0    0    0  0.00000000000E+00  0.00000000000E+00  0.45593999997E+02  0.45594000000E+02  0.51100000000E-03 0. -1.
         11   -1    0    0    0    0 -0.00000000000E+00 -0.00000000000E+00 -0.45593999997E+02  0.45594000000E+02  0.51100000000E-03 0.  1.
    9900012    2    1    2    0    0 -0.56256766810E+01  0.30933284116E+02 -0.25780832905E+02  0.50528835602E+02  0.29999926295E+02 0.  0.
         12    1    1    2    0    0  0.56256766810E+01 -0.30933284116E+02  0.25780832905E+02  0.40659164398E+02  0.00000000000E+00 0. -1.
         11    1    3    3    0    0 -0.70135252676E+01  0.76274687100E+01 -0.39005988900E+01  0.11071697592E+02  0.51100000000E-03 0. -1.
        -11    1    3    3    0    0 -0.64640789542E+01  0.20687033487E+02 -0.22393408815E+02  0.31164120874E+02  0.51100000000E-03 0.  1.
         12    1    3    3    0    0  0.78519275407E+01  0.26187819190E+01  0.51317480057E+00  0.82930171362E+01  0.00000000000E+00 0. -1.
</event>
<event>
 7    1  0.2838209E-011  0.5052886E+02  0.7816164E-02  0.1300439E+00
        -11   -1    0    0    0    0  0.00000000000E+00  0.00000000000E+00  0.45593999997E+02  0.45594000000E+02  0.51100000000E-03 0.  1.
         11   -1    0    0    0    0 -0.00000000000E+00 -0.00000000000E+00 -0.45593999997E+02  0.45594000000E+02  0.51100000000E-03 0. -1.
    9900012    2    1    2    0    0  0.11412861986E+02  0.30956558844E+02  0.23761398430E+02  0.50528855770E+02  0.29999987599E+02 0.  0.
         12    1    1    2    0    0 -0.11412861986E+02 -0.30956558844E+02 -0.23761398430E+02  0.40659144230E+02  0.00000000000E+00 0. -1.
         11    1    3    3    0    0  0.42116654439E+01  0.21508871967E+02  0.20618448369E+02  0.30091362756E+02  0.51100000000E-03 0.  1.
        -11    1    3    3    0    0  0.62362732990E+01  0.46657350457E+01  0.95890450727E+01  0.12353540944E+02  0.51100000000E-03 0. -1.
        -12    1    3    3    0    0  0.96492324269E+00  0.47819518304E+01 -0.64460950116E+01  0.80839520701E+01  0.00000000000E+00 0.  1.
</event>
<event>
 7    1  0.2838209E-011  0.5052887E+02  0.7816164E-02  0.1300439E+00
        -11   -1    0    0    0    0  0.00000000000E+00  0.00000000000E+00  0.45593999997E+02  0.45594000000E+02  0.51100000000E-03 0.  1.
         11   -1    0    0    0    0 -0.00000000000E+00 -0.00000000000E+00 -0.45593999997E+02  0.45594000000E+02  0.51100000000E-03 0. -1.
    9900012    2    1    2    0    0  0.16707152638E+02 -0.20979173204E+02  0.30559943523E+02  0.50528870574E+02  0.30000032595E+02 0.  0.
         12    1    1    2    0    0 -0.16707152638E+02  0.20979173204E+02 -0.30559943523E+02  0.40659129426E+02  0.00000000000E+00 0. -1.
         11    1    3    3    0    0  0.14196340257E+01 -0.75391204828E+00  0.62774667927E+01  0.64799948872E+01  0.51100000000E-03 0.  1.
        -11    1    3    3    0    0  0.11131101619E+02 -0.36721281723E+01  0.24302998831E+02  0.26981877270E+02  0.51100000000E-03 0. -1.
         12    1    3    3    0    0  0.41564169932E+01 -0.16553132983E+02 -0.20522101137E-01  0.17066998416E+02  0.00000000000E+00 0. -1.
</event>
<event>
 7    1  0.2838209E-011  0.5052886E+02  0.7816164E-02  0.1300439E+00
        -11   -1    0    0    0    0  0.00000000000E+00  0.00000000000E+00  0.45593999997E+02  0.45594000000E+02  0.51100000000E-03 0.  1.
         11   -1    0    0    0    0 -0.00000000000E+00 -0.00000000000E+00 -0.45593999997E+02  0.45594000000E+02  0.51100000000E-03 0. -1.
    9900012    2    1    2    0    0 -0.29885890052E+02 -0.22407658131E+02  0.16059138551E+02  0.50528862059E+02  0.30000006713E+02 0.  0.
         12    1    1    2    0    0  0.29885890052E+02  0.22407658131E+02 -0.16059138551E+02  0.40659137941E+02  0.00000000000E+00 0. -1.
         11    1    3    3    0    0 -0.21285103981E+02 -0.91901289352E+01  0.38268720456E+01  0.23498065266E+02  0.51100000000E-03 0. -1.
        -11    1    3    3    0    0 -0.13257535698E+02 -0.81777577697E+01  0.35712035012E+01  0.15980972112E+02  0.51100000000E-03 0.  1.
         12    1    3    3    0    0  0.46567496269E+01 -0.50397714266E+01  0.86610630037E+01  0.11049824681E+02  0.00000000000E+00 0. -1.
</event>
<event>
 7    1  0.2838209E-011  0.5052885E+02  0.7816164E-02  0.1300439E+00
        -11   -1    0    0    0    0  0.00000000000E+00  0.00000000000E+00  0.45593999997E+02  0.45594000000E+02  0.51100000000E-03 0.  1.
         11   -1    0    0    0    0 -0.00000000000E+00 -0.00000000000E+00 -0.45593999997E+02  0.45594000000E+02  0.51100000000E-03 0. -1.
    9900012    2    1    2    0    0  0.22883399276E+02  0.13130377851E+02  0.30937190185E+02  0.50528849474E+02  0.29999968461E+02 0.  0.
         12    1    1    2    0    0 -0.22883399276E+02 -0.13130377851E+02 -0.30937190185E+02  0.40659150526E+02  0.00000000000E+00 0. -1.
         11    1    3    3    0    0  0.29713231349E+01 -0.68250655200E+01  0.38901307762E+01  0.83990117420E+01  0.51100000000E-03 0. -1.
        -11    1    3    3    0    0 -0.32735858084E-01  0.16194827694E+00  0.84100018913E+01  0.84116247511E+01  0.51100000000E-03 0.  1.
        -12    1    3    3    0    0  0.19944811999E+02  0.19793495094E+02  0.18637057518E+02  0.33718212981E+02  0.00000000000E+00 0.  1.
</event>
<event>
 7    1  0.2838209E-011  0.5052886E+02  0.7816164E-02  0.1300439E+00
        -11   -1    0    0    0    0  0.00000000000E+00  0.00000000000E+00  0.45593999997E+02  0.45594000000E+02  0.51100000000E-03 0.  1.
         11   -1    0    0    0    0 -0.00000000000E+00 -0.00000000000E+00 -0.45593999997E+02  0.45594000000E+02  0.51100000000E-03 0. -1.
    9900012    2    1    2    0    0 -0.11013376311E+02 -0.30341867466E+02  0.24723320658E+02  0.50528856337E+02  0.29999989321E+02 0.  0.
         12    1    1    2    0    0  0.11013376311E+02  0.30341867466E+02 -0.24723320658E+02  0.40659143663E+02  0.00000000000E+00 0. -1.
         11    1    3    3    0    0  0.22399516649E+01 -0.18741913248E+01  0.25072418671E+01  0.38491867484E+01  0.51100000000E-03 0.  1.
        -11    1    3    3    0    0  0.14840208050E+01 -0.26034014312E+02  0.15121056597E+02  0.30143300613E+02  0.51100000000E-03 0. -1.
        -12    1    3    3    0    0 -0.14737348781E+02 -0.24336618295E+01  0.70950221932E+01  0.16536368976E+02  0.00000000000E+00 0.  1.
</event>
<event>
 7    1  0.2838209E-011  0.5052886E+02  0.7816164E-02  0.1300439E+00
        -11   -1    0    0    0    0  0.00000000000E+00  0.00000000000E+00  0.45593999997E+02  0.45594000000E+02  0.51100000000E-03 0.  1.
         11   -1    0    0    0    0 -0.00000000000E+00 -0.00000000000E+00 -0.45593999997E+02  0.45594000000E+02  0.51100000000E-03 0. -1.
    9900012    2    1    2    0    0  0.11343520105E+02 -0.28830265189E+01  0.38938139853E+02  0.50528855573E+02  0.29999987000E+02 0.  0.
         12    1    1    2    0    0 -0.11343520105E+02  0.28830265189E+01 -0.38938139853E+02  0.40659144427E+02  0.00000000000E+00 0. -1.
         11    1    3    3    0    0 -0.22659602861E+01 -0.69106827648E-01  0.15025986920E+02  0.15196040107E+02  0.51100000000E-03 0. -1.
        -11    1    3    3    0    0  0.67205668592E+01  0.55504670037E+01  0.22836632423E+02  0.24443516186E+02  0.51100000000E-03 0.  1.
         12    1    3    3    0    0  0.68889135323E+01 -0.83643866949E+01  0.10755205109E+01  0.10889299280E+02  0.00000000000E+00 0. -1.
</event>
<event>
 7    1  0.2838209E-011  0.5052873E+02  0.7816164E-02  0.1300439E+00
        -11   -1    0    0    0    0  0.00000000000E+00  0.00000000000E+00  0.45593999997E+02  0.45594000000E+02  0.51100000000E-03 0. -1.
         11   -1    0    0    0    0 -0.00000000000E+00 -0.00000000000E+00 -0.45593999997E+02  0.45594000000E+02  0.51100000000E-03 0.  1.
    9900012    2    1    2    0    0 -0.45402378705E+01  0.36050299599E+02 -0.18246602178E+02  0.50528728583E+02  0.29999600998E+02 0.  0.
         12    1    1    2    0    0  0.45402378705E+01 -0.36050299599E+02  0.18246602178E+02  0.40659271417E+02  0.00000000000E+00 0. -1.
         11    1    3    3    0    0 -0.77836824595E+01  0.40810401575E+01 -0.41827050653E+00  0.87986107924E+01  0.51100000000E-03 0. -1.
        -11    1    3    3    0    0  0.13520673813E+01  0.23298797468E+02 -0.17978203694E+01  0.23407140107E+02  0.51100000000E-03 0.  1.
        -12    1    3    3    0    0  0.18913772077E+01  0.86704619738E+01 -0.16030511302E+02  0.18322977684E+02  0.00000000000E+00 0.  1.
</event>
<event>
 7    1  0.2838209E-011  0.5052887E+02  0.7816164E-02  0.1300439E+00
        -11   -1    0    0    0    0  0.00000000000E+00  0.00000000000E+00  0.45593999997E+02  0.45594000000E+02  0.51100000000E-03 0. -1.
         11   -1    0    0    0    0 -0.00000000000E+00 -0.00000000000E+00 -0.45593999997E+02  0.45594000000E+02  0.51100000000E-03 0.  1.
    9900012    2    1    2    0    0  0.24143497462E+02 -0.18543356437E+02 -0.26951820562E+02  0.50528866104E+02  0.30000019008E+02 0.  0.
         12    1    1    2    0    0 -0.24143497462E+02  0.18543356437E+02  0.26951820562E+02  0.40659133896E+02  0.00000000000E+00 0. -1.
         11    1    3    3    0    0  0.22291391719E+00 -0.13341102641E+01 -0.13789713074E+02  0.13855891445E+02  0.51100000000E-03 0. -1.
        -11    1    3    3    0    0  0.10330877003E+02 -0.64637303038E+01 -0.14914276189E+02  0.19259866656E+02  0.51100000000E-03 0.  1.
         12    1    3    3    0    0  0.13589706541E+02 -0.10745515869E+02  0.17521687011E+01  0.17413108003E+02  0.00000000000E+00 0. -1.
</event>
<event>
 7    1  0.2838209E-011  0.5052887E+02  0.7816164E-02  0.1300439E+00
        -11   -1    0    0    0    0  0.00000000000E+00  0.00000000000E+00  0.45593999997E+02  0.45594000000E+02  0.51100000000E-03 0.  1.
         11   -1    0    0    0    0 -0.00000000000E+00 -0.00000000000E+00 -0.45593999997E+02  0.45594000000E+02  0.51100000000E-03 0. -1.
    9900012    2    1    2    0    0  0.34942880810E+02  0.19366720856E+02  0.75557833020E+01  0.50528872399E+02  0.30000038143E+02 0.  0.
         12    1    1    2    0    0 -0.34942880810E+02 -0.19366720856E+02 -0.75557833020E+01  0.40659127601E+02  0.00000000000E+00 0. -1.
         11    1    3    3    0    0  0.83477887651E+01  0.92712193576E+01  0.14687212469E+01  0.12561776467E+02  0.51100000000E-03 0. -1.
        -11    1    3    3    0    0  0.67142241916E+01  0.10939803982E+02 -0.65340520187E+01  0.14403261912E+02  0.51100000000E-03 0.  1.
         12    1    3    3    0    0  0.19880867853E+02 -0.84430248302E+00  0.12621114074E+02  0.23563834020E+02  0.00000000000E+00 0. -1.
</event>
<event>
 7    1  0.2838209E-011  0.5052885E+02  0.7816164E-02  0.1300439E+00
        -11   -1    0    0    0    0  0.00000000000E+00  0.00000000000E+00  0.45593999997E+02  0.45594000000E+02  0.51100000000E-03 0.  1.
         11   -1    0    0    0    0 -0.00000000000E+00 -0.00000000000E+00 -0.45593999997E+02  0.45594000000E+02  0.51100000000E-03 0. -1.
    9900012    2    1    2    0    0  0.26288977235E+02  0.16883191244E+02  0.26019493533E+02  0.50528849562E+02  0.29999968727E+02 0.  0.
         12    1    1    2    0    0 -0.26288977235E+02 -0.16883191244E+02 -0.26019493533E+02  0.40659150438E+02  0.00000000000E+00 0. -1.
         11    1    3    3    0    0  0.69761784522E+01  0.95011869937E+01 -0.10053409004E+01  0.11830060468E+02  0.51100000000E-03 0. -1.
        -11    1    3    3    0    0 -0.33652865674E+01  0.31418440296E+01  0.51160419793E+01  0.68826029511E+01  0.51100000000E-03 0.  1.
        -12    1    3    3    0    0  0.22678085351E+02  0.42401602209E+01  0.21908792454E+02  0.31816186143E+02  0.00000000000E+00 0.  1.
</event>
<event>
 7    1  0.2838209E-011  0.5052885E+02  0.7816164E-02  0.1300439E+00
        -11   -1    0    0    0    0  0.00000000000E+00  0.00000000000E+00  0.45593999997E+02  0.45594000000E+02  0.51100000000E-03 0. -1.
         11   -1    0    0    0    0 -0.00000000000E+00 -0.00000000000E+00 -0.45593999997E+02  0.45594000000E+02  0.51100000000E-03 0.  1.
    9900012    2    1    2    0    0 -0.52679616745E+01 -0.13070375974E+02 -0.38138958421E+02  0.50528852226E+02  0.29999976825E+02 0.  0.
         12    1    1    2    0    0  0.52679616745E+01  0.13070375974E+02  0.38138958421E+02  0.40659147774E+02  0.00000000000E+00 0. -1.
         11    1    3    3    0    0  0.58315868884E+01 -0.12131020075E+02 -0.12584156516E+02  0.18426341177E+02  0.51100000000E-03 0. -1.
        -11    1    3    3    0    0 -0.64518891633E+01 -0.29263931910E+01 -0.11469532329E+01  0.71767787247E+01  0.51100000000E-03 0.  1.
        -12    1    3    3    0    0 -0.46476593995E+01  0.19870372915E+01 -0.24407848672E+02  0.24925732324E+02  0.00000000000E+00 0.  1.
</event>
<event>
 7    1  0.2838209E-011  0.5052889E+02  0.7816164E-02  0.1300439E+00
        -11   -1    0    0    0    0  0.00000000000E+00  0.00000000000E+00  0.45593999997E+02  0.45594000000E+02  0.51100000000E-03 0. -1.
         11   -1    0    0    0    0 -0.00000000000E+00 -0.00000000000E+00 -0.45593999997E+02  0.45594000000E+02  0.51100000000E-03 0.  1.
    9900012    2    1    2    0    0 -0.14318834667E+02  0.37057222478E+02 -0.86542668161E+01  0.50528891572E+02  0.30000096424E+02 0.  0.
         12    1    1    2    0    0  0.14318834667E+02 -0.37057222478E+02  0.86542668161E+01  0.40659108428E+02  0.00000000000E+00 0. -1.
         11    1    3    3    0    0  0.90397179256E+00  0.26836600099E+02 -0.70376993024E+01  0.27758773057E+02  0.51100000000E-03 0. -1.
        -11    1    3    3    0    0 -0.86902897247E+01  0.11288384370E+02 -0.52941248389E+01  0.15197911543E+02  0.51100000000E-03 0.  1.
         12    1    3    3    0    0 -0.65325167346E+01 -0.10677619917E+01  0.36775573252E+01  0.75722069728E+01  0.00000000000E+00 0. -1.
</event>
<event>
 7    1  0.2838209E-011  0.5052886E+02  0.7816164E-02  0.1300439E+00
        -11   -1    0    0    0    0  0.00000000000E+00  0.00000000000E+00  0.45593999997E+02  0.45594000000E+02  0.51100000000E-03 0.  1.
         11   -1    0    0    0    0 -0.00000000000E+00 -0.00000000000E+00 -0.45593999997E+02  0.45594000000E+02  0.51100000000E-03 0. -1.
    9900012    2    1    2    0    0  0.35244117334E+02  0.17894810762E+02 -0.95285694803E+01  0.50528859635E+02  0.29999999347E+02 0.  0.
         12    1    1    2    0    0 -0.35244117334E+02 -0.17894810762E+02  0.95285694803E+01  0.40659140365E+02  0.00000000000E+00 0. -1.
         11    1    3    3    0    0  0.77609864657E+01  0.46088713064E+01 -0.39819385411E+01  0.98656191111E+01  0.51100000000E-03 0.  1.
        -11    1    3    3    0    0  0.14533154302E+02  0.81902092011E+01 -0.16110545512E+02  0.23191416035E+02  0.51100000000E-03 0. -1.
         12    1    3    3    0    0  0.12949976566E+02  0.50957302544E+01  0.10563914573E+02  0.17471824489E+02  0.00000000000E+00 0. -1.
</event>
<event>
 7    1  0.2838209E-011  0.5052886E+02  0.7816164E-02  0.1300439E+00
        -11   -1    0    0    0    0  0.00000000000E+00  0.00000000000E+00  0.45593999997E+02  0.45594000000E+02  0.51100000000E-03 0.  1.
         11   -1    0    0    0    0 -0.00000000000E+00 -0.00000000000E+00 -0.45593999997E+02  0.45594000000E+02  0.51100000000E-03 0. -1.
    9900012    2    1    2    0    0  0.12530452041E+02 -0.16674078521E+02  0.34901702007E+02  0.50528856799E+02  0.29999990725E+02 0.  0.
         12    1    1    2    0    0 -0.12530452041E+02  0.16674078521E+02 -0.34901702007E+02  0.40659143201E+02  0.00000000000E+00 0. -1.
         11    1    3    3    0    0  0.48913789737E+01 -0.18588248683E+01  0.20360386133E+02  0.21022039433E+02  0.51100000000E-03 0. -1.
        -11    1    3    3    0    0  0.25318821256E+01 -0.18911255806E+02  0.11601325241E+02  0.22330176239E+02  0.51100000000E-03 0.  1.
         12    1    3    3    0    0  0.51071909415E+01  0.40960021527E+01  0.29399906332E+01  0.71766411274E+01  0.00000000000E+00 0. -1.
</event>
<event>
 7    1  0.2838209E-011  0.5052887E+02  0.7816164E-02  0.1300439E+00
        -11   -1    0    0    0    0  0.00000000000E+00  0.00000000000E+00  0.45593999997E+02  0.45594000000E+02  0.51100000000E-03 0. -1.
         11   -1    0    0    0    0 -0.00000000000E+00 -0.00000000000E+00 -0.45593999997E+02  0.45594000000E+02  0.51100000000E-03 0.  1.
    9900012    2    1    2    0    0  0.24267818156E+02  0.20650359188E+02 -0.25254718756E+02  0.50528866314E+02  0.30000019648E+02 0.  0.
         12    1    1    2    0    0 -0.24267818156E+02 -0.20650359188E+02  0.25254718756E+02  0.40659133686E+02  0.00000000000E+00 0. -1.
         11    1    3    3    0    0  0.54938826435E+01  0.27705748978E+01  0.22417325822E+01  0.65486026751E+01  0.51100000000E-03 0. -1.
        -11    1    3    3    0    0  0.17114699058E+02  0.14011487923E+02 -0.72135299523E+01  0.23265204326E+02  0.51100000000E-03 0.  1.
        -12    1    3    3    0    0  0.16592364541E+01  0.38682963667E+01 -0.20282921386E+02  0.20715059313E+02  0.00000000000E+00 0.  1.
</event>
<event>
 7    1  0.2838209E-011  0.5052886E+02  0.7816164E-02  0.1300439E+00
        -11   -1    0    0    0    0  0.00000000000E+00  0.00000000000E+00  0.45593999997E+02  0.45594000000E+02  0.51100000000E-03 0. -1.
         11   -1    0    0    0    0 -0.00000000000E+00 -0.00000000000E+00 -0.45593999997E+02  0.45594000000E+02  0.51100000000E-03 0.  1.
    9900012    2    1    2    0    0  0.13116017130E+02 -0.27768175070E+02  0.26647022970E+02  0.50528864677E+02  0.30000014671E+02 0.  0.
         12    1    1    2    0    0 -0.13116017130E+02  0.27768175070E+02 -0.26647022970E+02  0.40659135323E+02  0.00000000000E+00 0. -1.
         11    1    3    3    0    0  0.26978211655E+01 -0.18851375511E+02  0.76499447741E+01  0.20522530375E+02  0.51100000000E-03 0. -1.
        -11    1    3    3    0    0  0.80052406732E+00 -0.10704767320E+01 -0.38115196747E+01  0.40391139756E+01  0.51100000000E-03 0.  1.
         12    1    3    3    0    0  0.96176718969E+01 -0.78463228279E+01  0.22808597871E+02  0.25967220326E+02  0.00000000000E+00 0. -1.
</event>
<event>
 7    1  0.2838209E-011  0.5052887E+02  0.7816164E-02  0.1300439E+00
        -11   -1    0    0    0    0  0.00000000000E+00  0.00000000000E+00  0.45593999997E+02  0.45594000000E+02  0.51100000000E-03 0. -1.
         11   -1    0    0    0    0 -0.00000000000E+00 -0.00000000000E+00 -0.45593999997E+02  0.45594000000E+02  0.51100000000E-03 0.  1.
    9900012    2    1    2    0    0 -0.32400867784E+02  0.16829967847E+02 -0.17891368225E+02  0.50528866859E+02  0.30000021304E+02 0.  0.
         12    1    1    2    0    0  0.32400867784E+02 -0.16829967847E+02  0.17891368225E+02  0.40659133141E+02  0.00000000000E+00 0. -1.
         11    1    3    3    0    0 -0.16722810159E+02  0.29027890557E+00 -0.63706866668E+01  0.17897549842E+02  0.51100000000E-03 0. -1.
        -11    1    3    3    0    0 -0.19396347427E+02  0.76398539071E+01 -0.86268756073E+01  0.22561219919E+02  0.51100000000E-03 0.  1.
         12    1    3    3    0    0  0.37182898026E+01  0.88998350338E+01 -0.28938059505E+01  0.10070097098E+02  0.00000000000E+00 0. -1.
</event>
<event>
 7    1  0.2838209E-011  0.5052887E+02  0.7816164E-02  0.1300439E+00
        -11   -1    0    0    0    0  0.00000000000E+00  0.00000000000E+00  0.45593999997E+02  0.45594000000E+02  0.51100000000E-03 0.  1.
         11   -1    0    0    0    0 -0.00000000000E+00 -0.00000000000E+00 -0.45593999997E+02  0.45594000000E+02  0.51100000000E-03 0. -1.
    9900012    2    1    2    0    0  0.25460201572E+02 -0.30263868472E+02  0.94361885809E+01  0.50528865062E+02  0.30000015843E+02 0.  0.
         12    1    1    2    0    0 -0.25460201572E+02  0.30263868472E+02 -0.94361885809E+01  0.40659134938E+02  0.00000000000E+00 0. -1.
         11    1    3    3    0    0  0.11402869279E+02 -0.19308064062E+01  0.10755444614E+02  0.15793448968E+02  0.51100000000E-03 0. -1.
        -11    1    3    3    0    0  0.42550399366E+01 -0.53823459566E+00  0.25812362659E+01  0.50057808845E+01  0.51100000000E-03 0.  1.
        -12    1    3    3    0    0  0.98022923557E+01 -0.27794827470E+02 -0.39004922995E+01  0.29729635210E+02  0.00000000000E+00 0.  1.
</event>
<event>
 7    1  0.2838209E-011  0.5052886E+02  0.7816164E-02  0.1300439E+00
        -11   -1    0    0    0    0  0.00000000000E+00  0.00000000000E+00  0.45593999997E+02  0.45594000000E+02  0.51100000000E-03 0. -1.
         11   -1    0    0    0    0 -0.00000000000E+00 -0.00000000000E+00 -0.45593999997E+02  0.45594000000E+02  0.51100000000E-03 0.  1.
    9900012    2    1    2    0    0  0.53499255674E+01  0.19685721903E+02 -0.35171245034E+02  0.50528858006E+02  0.29999994397E+02 0.  0.
         12    1    1    2    0    0 -0.53499255674E+01 -0.19685721903E+02  0.35171245034E+02  0.40659141994E+02  0.00000000000E+00 0. -1.
         11    1    3    3    0    0  0.25846611306E+01  0.12375873974E+02 -0.10320144496E+02  0.16320175013E+02  0.51100000000E-03 0. -1.
        -11    1    3    3    0    0 -0.12089440516E+00  0.87379637245E+01  0.40494662556E+00  0.87481773838E+01  0.51100000000E-03 0.  1.
        -12    1    3    3    0    0  0.28861588419E+01 -0.14281157950E+01 -0.25256047164E+02  0.25460505610E+02  0.00000000000E+00 0.  1.
</event>
<event>
 7    1  0.2838209E-011  0.5052886E+02  0.7816164E-02  0.1300439E+00
        -11   -1    0    0    0    0  0.00000000000E+00  0.00000000000E+00  0.45593999997E+02  0.45594000000E+02  0.51100000000E-03 0.  1.
         11   -1    0    0    0    0 -0.00000000000E+00 -0.00000000000E+00 -0.45593999997E+02  0.45594000000E+02  0.51100000000E-03 0. -1.
    9900012    2    1    2    0    0  0.18284123492E+02 -0.29325891206E+02  0.21420749164E+02  0.50528861277E+02  0.30000004338E+02 0.  0.
         12    1    1    2    0    0 -0.18284123492E+02  0.29325891206E+02 -0.21420749164E+02  0.40659138723E+02  0.00000000000E+00 0. -1.
         11    1    3    3    0    0  0.60272600808E+01 -0.80632459164E+01  0.34836014987E+01  0.10652665322E+02  0.51100000000E-03 0.  1.
        -11    1    3    3    0    0  0.36617415401E+01 -0.24862565649E+02  0.82885064264E+01  0.26462329088E+02  0.51100000000E-03 0. -1.
        -12    1    3    3    0    0  0.85951218712E+01  0.35999203586E+01  0.96486412392E+01  0.13413866867E+02  0.00000000000E+00 0.  1.
</event>
<event>
 7    1  0.2838209E-011  0.5052886E+02  0.7816164E-02  0.1300439E+00
        -11   -1    0    0    0    0  0.00000000000E+00  0.00000000000E+00  0.45593999997E+02  0.45594000000E+02  0.51100000000E-03 0. -1.
         11   -1    0    0    0    0 -0.00000000000E+00 -0.00000000000E+00 -0.45593999997E+02  0.45594000000E+02  0.51100000000E-03 0.  1.
    9900012    2    1    2    0    0 -0.33384589944E+02  0.12296704506E+02 -0.19683127854E+02  0.50528864378E+02  0.30000013764E+02 0.  0.
         12    1    1    2    0    0  0.33384589944E+02 -0.12296704506E+02  0.19683127854E+02  0.40659135622E+02  0.00000000000E+00 0. -1.
         11    1    3    3    0    0 -0.60278893294E+01 -0.25734968513E+01  0.17291838864E+01  0.67785258711E+01  0.51100000000E-03 0. -1.
        -11    1    3    3    0    0 -0.15280976001E+02  0.12907625719E+02 -0.24002729036E+02  0.31244936081E+02  0.51100000000E-03 0.  1.
         12    1    3    3    0    0 -0.12075724613E+02  0.19625756381E+01  0.25904172961E+01  0.12505402426E+02  0.00000000000E+00 0. -1.
</event>
<event>
 7    1  0.2838209E-011  0.5052886E+02  0.7816164E-02  0.1300439E+00
        -11   -1    0    0    0    0  0.00000000000E+00  0.00000000000E+00  0.45593999997E+02  0.45594000000E+02  0.51100000000E-03 0.  1.
         11   -1    0    0    0    0 -0.00000000000E+00 -0.00000000000E+00 -0.45593999997E+02  0.45594000000E+02  0.51100000000E-03 0. -1.
    9900012    2    1    2    0    0 -0.35330727889E+02 -0.13812241797E+02  0.14633093970E+02  0.50528858399E+02  0.29999995588E+02 0.  0.
         12    1    1    2    0    0  0.35330727889E+02  0.13812241797E+02 -0.14633093970E+02  0.40659141601E+02  0.00000000000E+00 0. -1.
         11    1    3    3    0    0 -0.21564036434E+01 -0.28813209807E+01 -0.72335453326E+01  0.80793728473E+01  0.51100000000E-03 0. -1.
        -11    1    3    3    0    0 -0.21132718863E+01 -0.21950645958E+01  0.54576250859E+01  0.62505918507E+01  0.51100000000E-03 0.  1.
        -12    1    3    3    0    0 -0.31061052359E+02 -0.87358562206E+01  0.16409014217E+02  0.36198893700E+02  0.00000000000E+00 0.  1.
</event>
<event>
 7    1  0.2838209E-011  0.5052886E+02  0.7816164E-02  0.1300439E+00
        -11   -1    0    0    0    0  0.00000000000E+00  0.00000000000E+00  0.45593999997E+02  0.45594000000E+02  0.51100000000E-03 0.  1.
         11   -1    0    0    0    0 -0.00000000000E+00 -0.00000000000E+00 -0.45593999997E+02  0.45594000000E+02  0.51100000000E-03 0. -1.
    9900012    2    1    2    0    0 -0.92316317689E+01 -0.33653757317E+02  0.20865459033E+02  0.50528858503E+02  0.29999995904E+02 0.  0.
         12    1    1    2    0    0  0.92316317689E+01  0.33653757317E+02 -0.20865459033E+02  0.40659141497E+02  0.00000000000E+00 0. -1.
         11    1    3    3    0    0  0.45852108511E+01 -0.71156997577E+01  0.14509197611E+02  0.16798040277E+02  0.51100000000E-03 0. -1.
        -11    1    3    3    0    0 -0.33830397427E+01 -0.44353238770E+01  0.73998675386E+01  0.92668816570E+01  0.51100000000E-03 0.  1.
        -12    1    3    3    0    0 -0.10433802877E+02 -0.22102733682E+02 -0.10436061158E+01  0.24463936568E+02  0.00000000000E+00 0.  1.
</event>
<event>
 7    1  0.2838209E-011  0.5052885E+02  0.7816164E-02  0.1300439E+00
        -11   -1    0    0    0    0  0.00000000000E+00  0.00000000000E+00  0.45593999997E+02  0.45594000000E+02  0.51100000000E-03 0. -1.
         11   -1    0    0    0    0 -0.00000000000E+00 -0.00000000000E+00 -0.45593999997E+02  0.45594000000E+02  0.51100000000E-03 0.  1.
    9900012    2    1    2    0    0  0.67622875300E+01  0.39585996230E+02  0.63550543038E+01  0.50528851640E+02  0.29999975044E+02 0.  0.
         12    1    1    2    0    0 -0.67622875300E+01 -0.39585996230E+02 -0.63550543038E+01  0.40659148360E+02  0.00000000000E+00 0. -1.
         11    1    3    3    0    0  0.42286828021E+01  0.26559678344E+02 -0.19654730223E+01  0.26965929549E+02  0.51100000000E-03 0.  1.
        -11    1    3    3    0    0  0.60545611645E+01  0.14226073946E+02  0.11728988698E+01  0.15505308215E+02  0.51100000000E-03 0. -1.
         12    1    3    3    0    0 -0.35209564366E+01 -0.11997560593E+01  0.71476284563E+01  0.80576138763E+01  0.00000000000E+00 0. -1.
</event>
<event>
 7    1  0.2838209E-011  0.5052885E+02  0.7816164E-02  0.1300439E+00
        -11   -1    0    0    0    0  0.00000000000E+00  0.00000000000E+00  0.45593999997E+02  0.45594000000E+02  0.51100000000E-03 0.  1.
         11   -1    0    0    0    0 -0.00000000000E+00 -0.00000000000E+00 -0.45593999997E+02  0.45594000000E+02  0.51100000000E-03 0. -1.
    9900012    2    1    2    0    0  0.23877043986E+02  0.27343883321E+02 -0.18312987826E+02  0.50528847184E+02  0.29999961502E+02 0.  0.
         12    1    1    2    0    0 -0.23877043986E+02 -0.27343883321E+02  0.18312987826E+02  0.40659152816E+02  0.00000000000E+00 0. -1.
         11    1    3    3    0    0  0.15072594274E+02  0.29870740512E+02 -0.47304663713E+01  0.33790850082E+02  0.51100000000E-03 0.  1.
        -11    1    3    3    0    0  0.21960242152E+01  0.57612756369E+00 -0.18931879915E+01  0.29561133869E+01  0.51100000000E-03 0. -1.
        -12    1    3    3    0    0  0.66084254974E+01 -0.31029847554E+01 -0.11689333463E+02  0.13781883716E+02  0.00000000000E+00 0.  1.
</event>
<event>
 7    1  0.2838209E-011  0.5052886E+02  0.7816164E-02  0.1300439E+00
        -11   -1    0    0    0    0  0.00000000000E+00  0.00000000000E+00  0.45593999997E+02  0.45594000000E+02  0.51100000000E-03 0.  1.
         11   -1    0    0    0    0 -0.00000000000E+00 -0.00000000000E+00 -0.45593999997E+02  0.45594000000E+02  0.51100000000E-03 0. -1.
    9900012    2    1    2    0    0 -0.37894162763E+02 -0.12882003161E+02 -0.71590747174E+01  0.50528856775E+02  0.29999990654E+02 0.  0.
         12    1    1    2    0    0  0.37894162763E+02  0.12882003161E+02  0.71590747174E+01  0.40659143225E+02  0.00000000000E+00 0. -1.
         11    1    3    3    0    0 -0.12763581345E+02 -0.78449689834E+01 -0.71092883438E+01  0.16582958968E+02  0.51100000000E-03 0. -1.
        -11    1    3    3    0    0 -0.26304970272E+02  0.10286453809E+01  0.39007753236E+01  0.26612508726E+02  0.51100000000E-03 0.  1.
         12    1    3    3    0    0  0.11743888540E+01 -0.60656795588E+01 -0.39505616972E+01  0.73333890810E+01  0.00000000000E+00 0. -1.
</event>
<event>
 7    1  0.2838209E-011  0.5052886E+02  0.7816164E-02  0.1300439E+00
        -11   -1    0    0    0    0  0.00000000000E+00  0.00000000000E+00  0.45593999997E+02  0.45594000000E+02  0.51100000000E-03 0.  1.
         11   -1    0    0    0    0 -0.00000000000E+00 -0.00000000000E+00 -0.45593999997E+02  0.45594000000E+02  0.51100000000E-03 0. -1.
    9900012    2    1    2    0    0  0.11157174284E+02 -0.84807123085E+01  0.38167537211E+02  0.50528856920E+02  0.29999991094E+02 0.  0.
         12    1    1    2    0    0 -0.11157174284E+02  0.84807123085E+01 -0.38167537211E+02  0.40659143080E+02  0.00000000000E+00 0. -1.
         11    1    3    3    0    0  0.10101944301E+02 -0.10217083594E+02  0.22248101163E+02  0.26484261014E+02  0.51100000000E-03 0. -1.
        -11    1    3    3    0    0  0.63548646828E+01 -0.57879684785E+01  0.95699030829E+01  0.12863433815E+02  0.51100000000E-03 0.  1.
        -12    1    3    3    0    0 -0.52996346997E+01  0.75243397638E+01  0.63495329651E+01  0.11181162091E+02  0.00000000000E+00 0.  1.
</event>
<event>
 7    1  0.2838209E-011  0.5052889E+02  0.7816164E-02  0.1300439E+00
        -11   -1    0    0    0    0  0.00000000000E+00  0.00000000000E+00  0.45593999997E+02  0.45594000000E+02  0.51100000000E-03 0.  1.
         11   -1    0    0    0    0 -0.00000000000E+00 -0.00000000000E+00 -0.45593999997E+02  0.45594000000E+02  0.51100000000E-03 0. -1.
    9900012    2    1    2    0    0  0.29422143129E+02 -0.27407495719E+02  0.60274127380E+01  0.50528892383E+02  0.30000098887E+02 0.  0.
         12    1    1    2    0    0 -0.29422143129E+02  0.27407495719E+02 -0.60274127380E+01  0.40659107617E+02  0.00000000000E+00 0. -1.
         11    1    3    3    0    0 -0.30016485316E+01  0.16028825651E+01  0.28555681167E+01  0.44422287148E+01  0.51100000000E-03 0. -1.
        -11    1    3    3    0    0  0.10938966131E+02 -0.94492293647E+01 -0.59513954693E+01  0.15632275071E+02  0.51100000000E-03 0.  1.
         12    1    3    3    0    0  0.21484825529E+02 -0.19561148920E+02  0.91232400906E+01  0.30454388597E+02  0.00000000000E+00 0. -1.
</event>
<event>
 7    1  0.2838209E-011  0.5052887E+02  0.7816164E-02  0.1300439E+00
        -11   -1    0    0    0    0  0.00000000000E+00  0.00000000000E+00  0.45593999997E+02  0.45594000000E+02  0.51100000000E-03 0. -1.
         11   -1    0    0    0    0 -0.00000000000E+00 -0.00000000000E+00 -0.45593999997E+02  0.45594000000E+02  0.51100000000E-03 0.  1.
    9900012    2    1    2    0    0  0.25161790193E+01  0.39046164398E+02 -0.11055813751E+02  0.50528866601E+02  0.30000020520E+02 0.  0.
         12    1    1    2    0    0 -0.25161790193E+01 -0.39046164398E+02  0.11055813751E+02  0.40659133399E+02  0.00000000000E+00 0. -1.
         11    1    3    3    0    0 -0.33850190247E+01 -0.56272529472E+00 -0.62969016703E+01  0.71711912861E+01  0.51100000000E-03 0. -1.
        -11    1    3    3    0    0 -0.95608821649E+00  0.13588093038E+01 -0.41749441736E+01  0.44933981034E+01  0.51100000000E-03 0.  1.
         12    1    3    3    0    0  0.68572862605E+01  0.38250080389E+02 -0.58396790724E+00  0.38864277211E+02  0.00000000000E+00 0. -1.
</event>
<event>
 7    1  0.2838209E-011  0.5052886E+02  0.7816164E-02  0.1300439E+00
        -11   -1    0    0    0    0  0.00000000000E+00  0.00000000000E+00  0.45593999997E+02  0.45594000000E+02  0.51100000000E-03 0.  1.
         11   -1    0    0    0    0 -0.00000000000E+00 -0.00000000000E+00 -0.45593999997E+02  0.45594000000E+02  0.51100000000E-03 0. -1.
    9900012    2    1    2    0    0  0.11948108927E+02  0.20560902912E+02  0.32979655203E+02  0.50528859665E+02  0.29999999436E+02 0.  0.
         12    1    1    2    0    0 -0.11948108927E+02 -0.20560902912E+02 -0.32979655203E+02  0.40659140335E+02  0.00000000000E+00 0. -1.
         11    1    3    3    0    0  0.28750248321E+01 -0.11723757160E+01  0.10223745303E+02  0.10684811691E+02  0.51100000000E-03 0. -1.
        -11    1    3    3    0    0 -0.11576642665E+01  0.22063381041E+02  0.18265358398E+02  0.28666291828E+02  0.51100000000E-03 0.  1.
         12    1    3    3    0    0  0.10230748361E+02 -0.33010241339E+00  0.44905515030E+01  0.11177756145E+02  0.00000000000E+00 0. -1.
</event>
<event>
 7    1  0.2838209E-011  0.5052886E+02  0.7816164E-02  0.1300439E+00
        -11   -1    0    0    0    0  0.00000000000E+00  0.00000000000E+00  0.45593999997E+02  0.45594000000E+02  0.51100000000E-03 0.  1.
         11   -1    0    0    0    0 -0.00000000000E+00 -0.00000000000E+00 -0.45593999997E+02  0.45594000000E+02  0.51100000000E-03 0. -1.
    9900012    2    1    2    0    0  0.18160028717E+02  0.15584775972E+02  0.32870862361E+02  0.50528862313E+02  0.30000007486E+02 0.  0.
         12    1    1    2    0    0 -0.18160028717E+02 -0.15584775972E+02 -0.32870862361E+02  0.40659137687E+02  0.00000000000E+00 0. -1.
         11    1    3    3    0    0  0.12159371530E+02  0.13794901177E+02  0.83784048672E+01  0.20207604580E+02  0.51100000000E-03 0. -1.
        -11    1    3    3    0    0  0.85593181227E+01  0.76499581995E+01  0.15623640606E+02  0.19387674776E+02  0.51100000000E-03 0.  1.
         12    1    3    3    0    0 -0.25586609359E+01 -0.58600834038E+01  0.88688168879E+01  0.10933582957E+02  0.00000000000E+00 0. -1.
</event>
<event>
 7    1  0.2838209E-011  0.5052888E+02  0.7816164E-02  0.1300439E+00
        -11   -1    0    0    0    0  0.00000000000E+00  0.00000000000E+00  0.45593999997E+02  0.45594000000E+02  0.51100000000E-03 0. -1.
         11   -1    0    0    0    0 -0.00000000000E+00 -0.00000000000E+00 -0.45593999997E+02  0.45594000000E+02  0.51100000000E-03 0.  1.
    9900012    2    1    2    0    0  0.41387691285E+01  0.23159641048E+02 -0.33161206382E+02  0.50528880579E+02  0.30000063008E+02 0.  0.
         12    1    1    2    0    0 -0.41387691285E+01 -0.23159641048E+02  0.33161206382E+02  0.40659119421E+02  0.00000000000E+00 0. -1.
         11    1    3    3    0    0  0.47156628130E+01  0.13402658201E+01 -0.20666179885E+00  0.49067807771E+01  0.51100000000E-03 0. -1.
        -11    1    3    3    0    0 -0.89077924112E+01  0.80600709779E+00 -0.91949936491E+01  0.12827561013E+02  0.51100000000E-03 0.  1.
        -12    1    3    3    0    0  0.83308987266E+01  0.21013368130E+02 -0.23759550934E+02  0.32794538789E+02  0.00000000000E+00 0.  1.
</event>
<event>
 7    1  0.2838209E-011  0.5052887E+02  0.7816164E-02  0.1300439E+00
        -11   -1    0    0    0    0  0.00000000000E+00  0.00000000000E+00  0.45593999997E+02  0.45594000000E+02  0.51100000000E-03 0.  1.
         11   -1    0    0    0    0 -0.00000000000E+00 -0.00000000000E+00 -0.45593999997E+02  0.45594000000E+02  0.51100000000E-03 0. -1.
    9900012    2    1    2    0    0  0.15216642320E+02 -0.13932659549E+02  0.35035695529E+02  0.50528866133E+02  0.30000019097E+02 0.  0.
         12    1    1    2    0    0 -0.15216642320E+02  0.13932659549E+02 -0.35035695529E+02  0.40659133867E+02  0.00000000000E+00 0. -1.
         11    1    3    3    0    0 -0.12977571386E+01 -0.46115675963E+00  0.33175716401E+01  0.35920914515E+01  0.51100000000E-03 0. -1.
        -11    1    3    3    0    0 -0.12576792549E+01 -0.56320985216E+01  0.26079899557E+02  0.26710736644E+02  0.51100000000E-03 0.  1.
         12    1    3    3    0    0  0.17772078714E+02 -0.78394042682E+01  0.56382243318E+01  0.20226038038E+02  0.00000000000E+00 0. -1.
</event>
<event>
 7    1  0.2838209E-011  0.5052886E+02  0.7816164E-02  0.1300439E+00
        -11   -1    0    0    0    0  0.00000000000E+00  0.00000000000E+00  0.45593999997E+02  0.45594000000E+02  0.51100000000E-03 0.  1.
         11   -1    0    0    0    0 -0.00000000000E+00 -0.00000000000E+00 -0.45593999997E+02  0.45594000000E+02  0.51100000000E-03 0. -1.
    9900012    2    1    2    0    0 -0.25284869902E+02 -0.20081185636E+02  0.24710055538E+02  0.50528861948E+02  0.30000006376E+02 0.  0.
         12    1    1    2    0    0  0.25284869902E+02  0.20081185636E+02 -0.24710055538E+02  0.40659138052E+02  0.00000000000E+00 0. -1.
         11    1    3    3    0    0 -0.11226360828E+02 -0.15522424373E+01  0.14377249173E+01  0.11423996114E+02  0.51100000000E-03 0. -1.
        -11    1    3    3    0    0 -0.14457361415E+02 -0.21460411596E+02  0.14102064592E+02  0.29469183751E+02  0.51100000000E-03 0.  1.
        -12    1    3    3    0    0  0.39885234115E+00  0.29314683968E+01  0.91702660289E+01  0.96356820823E+01  0.00000000000E+00 0.  1.
</event>
<event>
 7    1  0.2838209E-011  0.5052886E+02  0.7816164E-02  0.1300439E+00
        -11   -1    0    0    0    0  0.00000000000E+00  0.00000000000E+00  0.45593999997E+02  0.45594000000E+02  0.51100000000E-03 0.  1.
         11   -1    0    0    0    0 -0.00000000000E+00 -0.00000000000E+00 -0.45593999997E+02  0.45594000000E+02  0.51100000000E-03 0. -1.
    9900012    2    1    2    0    0  0.20938029990E+02  0.28179458781E+02  0.20510552418E+02  0.50528858869E+02  0.29999997019E+02 0.  0.
         12    1    1    2    0    0 -0.20938029990E+02 -0.28179458781E+02 -0.20510552418E+02  0.40659141131E+02  0.00000000000E+00 0. -1.
         11    1    3    3    0    0  0.44325432650E+01  0.94150025328E+01  0.94711460421E+01  0.14070974383E+02  0.51100000000E-03 0. -1.
        -11    1    3    3    0    0  0.20776997090E+00  0.17446164943E+02  0.99160826100E+01  0.20068396402E+02  0.51100000000E-03 0.  1.
         12    1    3    3    0    0  0.16297716754E+02  0.13182913053E+01  0.11233237655E+01  0.16389488083E+02  0.00000000000E+00 0. -1.
</event>
<event>
 7    1  0.2838209E-011  0.5052887E+02  0.7816164E-02  0.1300439E+00
        -11   -1    0    0    0    0  0.00000000000E+00  0.00000000000E+00  0.45593999997E+02  0.45594000000E+02  0.51100000000E-03 0.  1.
         11   -1    0    0    0    0 -0.00000000000E+00 -0.00000000000E+00 -0.45593999997E+02  0.45594000000E+02  0.51100000000E-03 0. -1.
    9900012    2    1    2    0    0  0.80021794668E+01  0.30727502446E+02  0.25395882762E+02  0.50528866413E+02  0.30000019949E+02 0.  0.
         12    1    1    2    0    0 -0.80021794668E+01 -0.30727502446E+02 -0.25395882762E+02  0.40659133587E+02  0.00000000000E+00 0. -1.
         11    1    3    3    0    0 -0.37352823165E+01  0.67665106063E+01 -0.19952813846E+01  0.79824274399E+01  0.51100000000E-03 0. -1.
        -11    1    3    3    0    0  0.42289860323E+01 -0.17914839183E+01  0.87450241486E+01  0.98777115321E+01  0.51100000000E-03 0.  1.
        -12    1    3    3    0    0  0.75084757510E+01  0.25752475758E+02  0.18646139998E+02  0.32668727441E+02  0.00000000000E+00 0.  1.
</event>
<event>
 7    1  0.2838209E-011  0.5052885E+02  0.7816164E-02  0.1300439E+00
        -11   -1    0    0    0    0  0.00000000000E+00  0.00000000000E+00  0.45593999997E+02  0.45594000000E+02  0.51100000000E-03 0.  1.
         11   -1    0    0    0    0 -0.00000000000E+00 -0.00000000000E+00 -0.45593999997E+02  0.45594000000E+02  0.51100000000E-03 0. -1.
    9900012    2    1    2    0    0 -0.25218793619E+02 -0.28273389169E+02  0.14757859497E+02  0.50528849694E+02  0.29999969129E+02 0.  0.
         12    1    1    2    0    0  0.25218793619E+02  0.28273389169E+02 -0.14757859497E+02  0.40659150306E+02  0.00000000000E+00 0. -1.
         11    1    3    3    0    0  0.49252355459E+01 -0.73067958414E+01  0.45590485706E+01  0.99212970312E+01  0.51100000000E-03 0. -1.
        -11    1    3    3    0    0  0.12912758571E+01 -0.22630961419E+01  0.15084717475E+01  0.30107282775E+01  0.51100000000E-03 0.  1.
        -12    1    3    3    0    0 -0.31435305022E+02 -0.18703497186E+02  0.86903391793E+01  0.37596824385E+02  0.00000000000E+00 0.  1.
</event>
<event>
 7    1  0.2838209E-011  0.5052886E+02  0.7816164E-02  0.1300439E+00
        -11   -1    0    0    0    0  0.00000000000E+00  0.00000000000E+00  0.45593999997E+02  0.45594000000E+02  0.51100000000E-03 0.  1.
         11   -1    0    0    0    0 -0.00000000000E+00 -0.00000000000E+00 -0.45593999997E+02  0.45594000000E+02  0.51100000000E-03 0. -1.
    9900012    2    1    2    0    0 -0.14939039608E+02 -0.14477108853E+02  0.34934281364E+02  0.50528860811E+02  0.30000002921E+02 0.  0.
         12    1    1    2    0    0  0.14939039608E+02  0.14477108853E+02 -0.34934281364E+02  0.40659139189E+02  0.00000000000E+00 0. -1.
         11    1    3    3    0    0 -0.68087126748E+01 -0.16857692022E+02  0.89498789899E+01  0.20264271090E+02  0.51100000000E-03 0.  1.
        -11    1    3    3    0    0 -0.11819795717E+01  0.65489948370E+01  0.71853974632E+01  0.97936890929E+01  0.51100000000E-03 0. -1.
        -12    1    3    3    0    0 -0.69483473612E+01 -0.41684116682E+01  0.18799004911E+02  0.20470900628E+02  0.00000000000E+00 0.  1.
</event>
<event>
 7    1  0.2838209E-011  0.5052883E+02  0.7816164E-02  0.1300439E+00
        -11   -1    0    0    0    0  0.00000000000E+00  0.00000000000E+00  0.45593999997E+02  0.45594000000E+02  0.51100000000E-03 0.  1.
         11   -1    0    0    0    0 -0.00000000000E+00 -0.00000000000E+00 -0.45593999997E+02  0.45594000000E+02  0.51100000000E-03 0. -1.
    9900012    2    1    2    0    0 -0.84701880910E+01  0.30026815701E+02  0.26073253527E+02  0.50528827641E+02  0.29999902097E+02 0.  0.
         12    1    1    2    0    0  0.84701880910E+01 -0.30026815701E+02 -0.26073253527E+02  0.40659172359E+02  0.00000000000E+00 0. -1.
         11    1    3    3    0    0 -0.12973473415E+02  0.13041145717E+02  0.21078864103E+02  0.27976794066E+02  0.51100000000E-03 0. -1.
        -11    1    3    3    0    0  0.16641555921E+00  0.17505875234E+02  0.30479314935E+01  0.17770009805E+02  0.51100000000E-03 0.  1.
         12    1    3    3    0    0  0.43368697651E+01 -0.52020524923E+00  0.19464579306E+01  0.47820237699E+01  0.00000000000E+00 0. -1.
</event>
<event>
 7    1  0.2838209E-011  0.5052886E+02  0.7816164E-02  0.1300439E+00
        -11   -1    0    0    0    0  0.00000000000E+00  0.00000000000E+00  0.45593999997E+02  0.45594000000E+02  0.51100000000E-03 0.  1.
         11   -1    0    0    0    0 -0.00000000000E+00 -0.00000000000E+00 -0.45593999997E+02  0.45594000000E+02  0.51100000000E-03 0. -1.
    9900012    2    1    2    0    0 -0.36752508306E+02  0.10115846641E+02 -0.14145268033E+02  0.50528858005E+02  0.29999994392E+02 0.  0.
         12    1    1    2    0    0  0.36752508306E+02 -0.10115846641E+02  0.14145268033E+02  0.40659141995E+02  0.00000000000E+00 0. -1.
         11    1    3    3    0    0 -0.73097579654E+01  0.72732009986E+01  0.33732382800E+01  0.10849458559E+02  0.51100000000E-03 0. -1.
        -11    1    3    3    0    0  0.16901455791E+01  0.38040225246E+01 -0.51937712596E+00  0.41948697603E+01  0.51100000000E-03 0.  1.
        -12    1    3    3    0    0 -0.31132895920E+02 -0.96137688204E+00 -0.16999129187E+02  0.35484529685E+02  0.00000000000E+00 0.  1.
</event>
<event>
 7    1  0.2838209E-011  0.5052887E+02  0.7816164E-02  0.1300439E+00
        -11   -1    0    0    0    0  0.00000000000E+00  0.00000000000E+00  0.45593999997E+02  0.45594000000E+02  0.51100000000E-03 0.  1.
         11   -1    0    0    0    0 -0.00000000000E+00 -0.00000000000E+00 -0.45593999997E+02  0.45594000000E+02  0.51100000000E-03 0. -1.
    9900012    2    1    2    0    0  0.40603025763E+02 -0.19163665948E+01  0.94151808451E+00  0.50528872877E+02  0.30000039598E+02 0.  0.
         12    1    1    2    0    0 -0.40603025763E+02  0.19163665948E+01 -0.94151808451E+00  0.40659127123E+02  0.00000000000E+00 0. -1.
         11    1    3    3    0    0  0.10353260786E+02 -0.30416602685E+01 -0.75158647266E+01  0.13150282466E+02  0.51100000000E-03 0. -1.
        -11    1    3    3    0    0  0.14488692922E+02 -0.83450867137E+01  0.89892938361E+01  0.18983416415E+02  0.51100000000E-03 0.  1.
         12    1    3    3    0    0  0.15761072056E+02  0.94703803874E+01 -0.53191102500E+00  0.18395173997E+02  0.00000000000E+00 0. -1.
</event>
<event>
 7    1  0.2930735E-011  0.5052888E+02  0.7816164E-02  0.1300439E+00
        -11   -1    0    0    0    0  0.00000000000E+00  0.00000000000E+00  0.45593999997E+02  0.45594000000E+02  0.51100000000E-03 0.  1.
         11   -1    0    0    0    0 -0.00000000000E+00 -0.00000000000E+00 -0.45593999997E+02  0.45594000000E+02  0.51100000000E-03 0. -1.
    9900012    2    1    2    0    0  0.26569564804E+02 -0.20547841455E+02  0.22913070977E+02  0.50528875760E+02  0.30000048361E+02 0.  0.
         12    1    1    2    0    0 -0.26569564804E+02  0.20547841455E+02 -0.22913070977E+02  0.40659124240E+02  0.00000000000E+00 0. -1.
         11    1    3    3    0    0 -0.20266899037E+00 -0.59302323847E+01 -0.95184117211E+00  0.60095534554E+01  0.51100000000E-03 0. -1.
        -11    1    3    3    0    0 -0.23556666317E+01 -0.38023103203E+01  0.90545606453E+01  0.10099098860E+02  0.51100000000E-03 0.  1.
        -12    1    3    3    0    0  0.29127900426E+02 -0.10815298750E+02  0.14810351504E+02  0.34420223444E+02  0.00000000000E+00 0.  1.
</event>
<event>
 7    1  0.2838209E-011  0.5052884E+02  0.7816164E-02  0.1300439E+00
        -11   -1    0    0    0    0  0.00000000000E+00  0.00000000000E+00  0.45593999997E+02  0.45594000000E+02  0.51100000000E-03 0.  1.
         11   -1    0    0    0    0 -0.00000000000E+00 -0.00000000000E+00 -0.45593999997E+02  0.45594000000E+02  0.51100000000E-03 0. -1.
    9900012    2    1    2    0    0 -0.14711575399E+02 -0.15400857832E+02  0.34634523084E+02  0.50528842829E+02  0.29999948262E+02 0.  0.
         12    1    1    2    0    0  0.14711575399E+02  0.15400857832E+02 -0.34634523084E+02  0.40659157171E+02  0.00000000000E+00 0. -1.
         11    1    3    3    0    0 -0.54996155345E+01  0.17481001276E+01  0.40458846100E+01  0.70477519552E+01  0.51100000000E-03 0. -1.
        -11    1    3    3    0    0 -0.28469872199E+01  0.60762371437E+01  0.52090033078E+01  0.84946871501E+01  0.51100000000E-03 0.  1.
        -12    1    3    3    0    0 -0.63649726443E+01 -0.23225195103E+02  0.25379635166E+02  0.34986403723E+02  0.00000000000E+00 0.  1.
</event>
<event>
 7    1  0.2838209E-011  0.5052884E+02  0.7816164E-02  0.1300439E+00
        -11   -1    0    0    0    0  0.00000000000E+00  0.00000000000E+00  0.45593999997E+02  0.45594000000E+02  0.51100000000E-03 0.  1.
         11   -1    0    0    0    0 -0.00000000000E+00 -0.00000000000E+00 -0.45593999997E+02  0.45594000000E+02  0.51100000000E-03 0. -1.
    9900012    2    1    2    0    0  0.40281255236E+02  0.45700008278E+01  0.31148871483E+01  0.50528844169E+02  0.29999952335E+02 0.  0.
         12    1    1    2    0    0 -0.40281255236E+02 -0.45700008278E+01 -0.31148871483E+01  0.40659155831E+02  0.00000000000E+00 0. -1.
         11    1    3    3    0    0  0.68557630978E+01  0.44129866141E+01 -0.60709877821E+00  0.81758490505E+01  0.51100000000E-03 0. -1.
        -11    1    3    3    0    0 -0.22061564046E+00  0.76527660512E+01 -0.20775125201E+00  0.76587636299E+01  0.51100000000E-03 0.  1.
         12    1    3    3    0    0  0.33646107779E+02 -0.74957518374E+01  0.39297371785E+01  0.34694231488E+02  0.00000000000E+00 0. -1.
</event>
<event>
 7    1  0.2838209E-011  0.5052886E+02  0.7816164E-02  0.1300439E+00
        -11   -1    0    0    0    0  0.00000000000E+00  0.00000000000E+00  0.45593999997E+02  0.45594000000E+02  0.51100000000E-03 0. -1.
         11   -1    0    0    0    0 -0.00000000000E+00 -0.00000000000E+00 -0.45593999997E+02  0.45594000000E+02  0.51100000000E-03 0.  1.
    9900012    2    1    2    0    0  0.67746612278E+01  0.69842336200E+01 -0.39477713344E+02  0.50528863206E+02  0.30000010199E+02 0.  0.
         12    1    1    2    0    0 -0.67746612278E+01 -0.69842336200E+01  0.39477713344E+02  0.40659136794E+02  0.00000000000E+00 0. -1.
         11    1    3    3    0    0  0.29119309876E+01  0.17476837386E+01  0.88586979766E+00  0.35097729394E+01  0.51100000000E-03 0. -1.
        -11    1    3    3    0    0  0.10146779142E+02 -0.36316256960E+01 -0.97488528959E+01  0.14532238823E+02  0.51100000000E-03 0.  1.
        -12    1    3    3    0    0 -0.62840489021E+01  0.88681755774E+01 -0.30614730246E+02  0.32486851443E+02  0.00000000000E+00 0.  1.
</event>
<event>
 7    1  0.2838209E-011  0.5052887E+02  0.7816164E-02  0.1300439E+00
        -11   -1    0    0    0    0  0.00000000000E+00  0.00000000000E+00  0.45593999997E+02  0.45594000000E+02  0.51100000000E-03 0.  1.
         11   -1    0    0    0    0 -0.00000000000E+00 -0.00000000000E+00 -0.45593999997E+02  0.45594000000E+02  0.51100000000E-03 0. -1.
    9900012    2    1    2    0    0  0.99597798608E+01 -0.36988820440E+02  0.13630660318E+02  0.50528868761E+02  0.30000027086E+02 0.  0.
         12    1    1    2    0    0 -0.99597798608E+01  0.36988820440E+02 -0.13630660318E+02  0.40659131239E+02  0.00000000000E+00 0. -1.
         11    1    3    3    0    0  0.95973926438E+00 -0.27912382654E+02  0.29792036200E+01  0.28087325600E+02  0.51100000000E-03 0.  1.
        -11    1    3    3    0    0  0.11914750513E+01 -0.49227780539E+01 -0.32116411753E+01  0.59973323958E+01  0.51100000000E-03 0. -1.
        -12    1    3    3    0    0  0.78085655451E+01 -0.41536597321E+01  0.13863097874E+02  0.16444210766E+02  0.00000000000E+00 0.  1.
</event>
<event>
 7    1  0.2838209E-011  0.5052888E+02  0.7816164E-02  0.1300439E+00
        -11   -1    0    0    0    0  0.00000000000E+00  0.00000000000E+00  0.45593999997E+02  0.45594000000E+02  0.51100000000E-03 0.  1.
         11   -1    0    0    0    0 -0.00000000000E+00 -0.00000000000E+00 -0.45593999997E+02  0.45594000000E+02  0.51100000000E-03 0. -1.
    9900012    2    1    2    0    0 -0.15863430849E+02 -0.36251957416E+02  0.93440589769E+01  0.50528876879E+02  0.30000051763E+02 0.  0.
         12    1    1    2    0    0  0.15863430849E+02  0.36251957416E+02 -0.93440589769E+01  0.40659123121E+02  0.00000000000E+00 0. -1.
         11    1    3    3    0    0 -0.38599215734E+01 -0.53771063980E+01 -0.44279213401E+01  0.79635893555E+01  0.51100000000E-03 0. -1.
        -11    1    3    3    0    0 -0.21385439957E+01  0.34679532689E+01 -0.46720130644E+00  0.41010178760E+01  0.51100000000E-03 0.  1.
        -12    1    3    3    0    0 -0.98649652794E+01 -0.34342804287E+02  0.14239181623E+02  0.38464269648E+02  0.00000000000E+00 0.  1.
</event>
<event>
 7    1  0.2838209E-011  0.5052890E+02  0.7816164E-02  0.1300439E+00
        -11   -1    0    0    0    0  0.00000000000E+00  0.00000000000E+00  0.45593999997E+02  0.45594000000E+02  0.51100000000E-03 0.  1.
         11   -1    0    0    0    0 -0.00000000000E+00 -0.00000000000E+00 -0.45593999997E+02  0.45594000000E+02  0.51100000000E-03 0. -1.
    9900012    2    1    2    0    0  0.20950586148E+02 -0.33111011293E+02  0.10858015733E+02  0.50528897274E+02  0.30000113755E+02 0.  0.
         12    1    1    2    0    0 -0.20950586148E+02  0.33111011293E+02 -0.10858015733E+02  0.40659102726E+02  0.00000000000E+00 0. -1.
         11    1    3    3    0    0 -0.28741367351E+01 -0.27525080973E+01 -0.32018519735E+01  0.51077215193E+01  0.51100000000E-03 0. -1.
        -11    1    3    3    0    0  0.11209650231E+02 -0.60562785551E+01 -0.30926120074E+01  0.13111026562E+02  0.51100000000E-03 0.  1.
        -12    1    3    3    0    0  0.12615072652E+02 -0.24302224641E+02  0.17152479714E+02  0.32310149193E+02  0.00000000000E+00 0.  1.
</event>
<event>
 7    1  0.2838209E-011  0.5052888E+02  0.7816164E-02  0.1300439E+00
        -11   -1    0    0    0    0  0.00000000000E+00  0.00000000000E+00  0.45593999997E+02  0.45594000000E+02  0.51100000000E-03 0. -1.
         11   -1    0    0    0    0 -0.00000000000E+00 -0.00000000000E+00 -0.45593999997E+02  0.45594000000E+02  0.51100000000E-03 0.  1.
    9900012    2    1    2    0    0 -0.16030242304E+02  0.33800786989E+02  0.15928032433E+02  0.50528879417E+02  0.30000059476E+02 0.  0.
         12    1    1    2    0    0  0.16030242304E+02 -0.33800786989E+02 -0.15928032433E+02  0.40659120583E+02  0.00000000000E+00 0. -1.
         11    1    3    3    0    0 -0.11937123602E+02  0.15880214981E+02  0.12637552575E+02  0.23545357995E+02  0.51100000000E-03 0. -1.
        -11    1    3    3    0    0 -0.95455528863E+01  0.11497953102E+02 -0.43981056858E+01  0.15577671178E+02  0.51100000000E-03 0.  1.
        -12    1    3    3    0    0  0.54524341842E+01  0.64226189053E+01  0.76885855437E+01  0.11405850244E+02  0.00000000000E+00 0.  1.
</event>
<event>
 7    1  0.2838209E-011  0.5052887E+02  0.7816164E-02  0.1300439E+00
        -11   -1    0    0    0    0  0.00000000000E+00  0.00000000000E+00  0.45593999997E+02  0.45594000000E+02  0.51100000000E-03 0.  1.
         11   -1    0    0    0    0 -0.00000000000E+00 -0.00000000000E+00 -0.45593999997E+02  0.45594000000E+02  0.51100000000E-03 0. -1.
    9900012    2    1    2    0    0 -0.16731800365E+02 -0.86797546153E+01  0.36026013096E+02  0.50528869374E+02  0.30000028951E+02 0.  0.
         12    1    1    2    0    0  0.16731800365E+02  0.86797546153E+01 -0.36026013096E+02  0.40659130626E+02  0.00000000000E+00 0. -1.
         11    1    3    3    0    0 -0.10942470535E+02 -0.64367811236E+01  0.36115137421E+01  0.13198971340E+02  0.51100000000E-03 0. -1.
        -11    1    3    3    0    0  0.30741581435E+01 -0.63585294717E+01  0.63647103169E+01  0.95074120039E+01  0.51100000000E-03 0.  1.
        -12    1    3    3    0    0 -0.88634879728E+01  0.41155559800E+01  0.26049789037E+02  0.27822486031E+02  0.00000000000E+00 0.  1.
</event>
<event>
 7    1  0.2838209E-011  0.5052887E+02  0.7816164E-02  0.1300439E+00
        -11   -1    0    0    0    0  0.00000000000E+00  0.00000000000E+00  0.45593999997E+02  0.45594000000E+02  0.51100000000E-03 0.  1.
         11   -1    0    0    0    0 -0.00000000000E+00 -0.00000000000E+00 -0.45593999997E+02  0.45594000000E+02  0.51100000000E-03 0. -1.
    9900012    2    1    2    0    0  0.83039328306E+01  0.39800975581E+02 -0.30368722641E+00  0.50528865927E+02  0.30000018472E+02 0.  0.
         12    1    1    2    0    0 -0.83039328306E+01 -0.39800975581E+02  0.30368722641E+00  0.40659134073E+02  0.00000000000E+00 0. -1.
         11    1    3    3    0    0 -0.17228079833E+01  0.44025599327E+01 -0.10518495821E+02  0.11532101106E+02  0.51100000000E-03 0. -1.
        -11    1    3    3    0    0 -0.11580440768E+01  0.13686060443E+01  0.21006970941E+00  0.18050701184E+01  0.51100000000E-03 0.  1.
        -12    1    3    3    0    0  0.11184784891E+02  0.34029809604E+02  0.10004738885E+02  0.37191694703E+02  0.00000000000E+00 0.  1.
</event>
<event>
 7    1  0.2838209E-011  0.5052885E+02  0.7816164E-02  0.1300439E+00
        -11   -1    0    0    0    0  0.00000000000E+00  0.00000000000E+00  0.45593999997E+02  0.45594000000E+02  0.51100000000E-03 0. -1.
         11   -1    0    0    0    0 -0.00000000000E+00 -0.00000000000E+00 -0.45593999997E+02  0.45594000000E+02  0.51100000000E-03 0.  1.
    9900012    2    1    2    0    0 -0.32205399720E+02  0.80101270491E+01 -0.23490782184E+02  0.50528846614E+02  0.29999959767E+02 0.  0.
         12    1    1    2    0    0  0.32205399720E+02 -0.80101270491E+01  0.23490782184E+02  0.40659153386E+02  0.00000000000E+00 0. -1.
         11    1    3    3    0    0 -0.71368181568E+01  0.71431077704E+01 -0.10593145606E+02  0.14634647113E+02  0.51100000000E-03 0. -1.
        -11    1    3    3    0    0 -0.22357844390E+02  0.55736360090E+01 -0.12894212412E+01  0.23078154855E+02  0.51100000000E-03 0.  1.
        -12    1    3    3    0    0 -0.27107371737E+01 -0.47066167303E+01 -0.11608215336E+02  0.12816044646E+02  0.00000000000E+00 0.  1.
</event>
<event>
 7    1  0.2838209E-011  0.5052880E+02  0.7816164E-02  0.1300439E+00
        -11   -1    0    0    0    0  0.00000000000E+00  0.00000000000E+00  0.45593999997E+02  0.45594000000E+02  0.51100000000E-03 0.  1.
         11   -1    0    0    0    0 -0.00000000000E+00 -0.00000000000E+00 -0.45593999997E+02  0.45594000000E+02  0.51100000000E-03 0. -1.
    9900012    2    1    2    0    0 -0.33452250756E+01  0.27536341566E+01  0.40427683737E+02  0.50528798775E+02  0.29999814357E+02 0.  0.
         12    1    1    2    0    0  0.33452250756E+01 -0.27536341566E+01 -0.40427683737E+02  0.40659201225E+02  0.00000000000E+00 0. -1.
         11    1    3    3    0    0 -0.55685381324E+01 -0.16264407778E+01  0.10764067668E+01  0.59002184980E+01  0.51100000000E-03 0. -1.
        -11    1    3    3    0    0  0.90531886042E+01 -0.41967178016E+01  0.16489700836E+02  0.19273891619E+02  0.51100000000E-03 0.  1.
         12    1    3    3    0    0 -0.68298755475E+01  0.85767927360E+01  0.22861576134E+02  0.25354688659E+02  0.00000000000E+00 0. -1.
</event>
<event>
 7    1  0.2838209E-011  0.5052886E+02  0.7816164E-02  0.1300439E+00
        -11   -1    0    0    0    0  0.00000000000E+00  0.00000000000E+00  0.45593999997E+02  0.45594000000E+02  0.51100000000E-03 0.  1.
         11   -1    0    0    0    0 -0.00000000000E+00 -0.00000000000E+00 -0.45593999997E+02  0.45594000000E+02  0.51100000000E-03 0. -1.
    9900012    2    1    2    0    0 -0.11058750060E+01 -0.29699664033E+02  0.27746582401E+02  0.50528857877E+02  0.29999994004E+02 0.  0.
         12    1    1    2    0    0  0.11058750060E+01  0.29699664033E+02 -0.27746582401E+02  0.40659142123E+02  0.00000000000E+00 0. -1.
         11    1    3    3    0    0  0.68992083061E+01 -0.12528783323E+02  0.43155058426E+01  0.14939647846E+02  0.51100000000E-03 0. -1.
        -11    1    3    3    0    0 -0.29414201755E+01 -0.29832492122E+01 -0.30095242160E+01  0.51583878081E+01  0.51100000000E-03 0.  1.
        -12    1    3    3    0    0 -0.50636631367E+01 -0.14187631498E+02  0.26440600775E+02  0.30430822224E+02  0.00000000000E+00 0.  1.
</event>
<event>
 7    1  0.2838209E-011  0.5052886E+02  0.7816164E-02  0.1300439E+00
        -11   -1    0    0    0    0  0.00000000000E+00  0.00000000000E+00  0.45593999997E+02  0.45594000000E+02  0.51100000000E-03 0.  1.
         11   -1    0    0    0    0 -0.00000000000E+00 -0.00000000000E+00 -0.45593999997E+02  0.45594000000E+02  0.51100000000E-03 0. -1.
    9900012    2    1    2    0    0 -0.15961982590E+02 -0.17335368985E+02  0.33134054290E+02  0.50528862531E+02  0.30000008148E+02 0.  0.
         12    1    1    2    0    0  0.15961982590E+02  0.17335368985E+02 -0.33134054290E+02  0.40659137469E+02  0.00000000000E+00 0. -1.
         11    1    3    3    0    0 -0.98361953167E+01  0.38880954700E+01  0.30442100249E+01  0.11006145539E+02  0.51100000000E-03 0. -1.
        -11    1    3    3    0    0 -0.30831698909E+01 -0.13107579653E+02  0.76946788754E+01  0.15508793125E+02  0.51100000000E-03 0.  1.
        -12    1    3    3    0    0 -0.30426173829E+01 -0.81158848026E+01  0.22395165390E+02  0.24013923867E+02  0.00000000000E+00 0.  1.
</event>
<event>
 7    1  0.2838209E-011  0.5052887E+02  0.7816164E-02  0.1300439E+00
        -11   -1    0    0    0    0  0.00000000000E+00  0.00000000000E+00  0.45593999997E+02  0.45594000000E+02  0.51100000000E-03 0. -1.
         11   -1    0    0    0    0 -0.00000000000E+00 -0.00000000000E+00 -0.45593999997E+02  0.45594000000E+02  0.51100000000E-03 0.  1.
    9900012    2    1    2    0    0 -0.28565239812E+01 -0.75288164522E+01 -0.39853755842E+02  0.50528872351E+02  0.30000037999E+02 0.  0.
         12    1    1    2    0    0  0.28565239812E+01  0.75288164522E+01  0.39853755842E+02  0.40659127649E+02  0.00000000000E+00 0. -1.
         11    1    3    3    0    0 -0.59781204688E+01  0.44632846220E+01 -0.14806533625E+02  0.16579875518E+02  0.51100000000E-03 0.  1.
        -11    1    3    3    0    0 -0.60131582875E+01 -0.46205502455E+01 -0.19585601342E+02  0.21002460269E+02  0.51100000000E-03 0. -1.
         12    1    3    3    0    0  0.91347547751E+01 -0.73715508287E+01 -0.54616208751E+01  0.12946536564E+02  0.00000000000E+00 0. -1.
</event>
<event>
 7    1  0.2838209E-011  0.5052887E+02  0.7816164E-02  0.1300439E+00
        -11   -1    0    0    0    0  0.00000000000E+00  0.00000000000E+00  0.45593999997E+02  0.45594000000E+02  0.51100000000E-03 0.  1.
         11   -1    0    0    0    0 -0.00000000000E+00 -0.00000000000E+00 -0.45593999997E+02  0.45594000000E+02  0.51100000000E-03 0. -1.
    9900012    2    1    2    0    0  0.32762623445E+01  0.39013383464E+02  0.10972099683E+02  0.50528868729E+02  0.30000026990E+02 0.  0.
         12    1    1    2    0    0 -0.32762623445E+01 -0.39013383464E+02 -0.10972099683E+02  0.40659131271E+02  0.00000000000E+00 0. -1.
         11    1    3    3    0    0  0.11902950123E+01  0.20158552155E+02 -0.90365073170E+01  0.22123347214E+02  0.51100000000E-03 0. -1.
        -11    1    3    3    0    0 -0.40314083594E+00  0.10128832192E+01  0.45144573679E+01  0.46442201215E+01  0.51100000000E-03 0.  1.
        -12    1    3    3    0    0  0.24891081681E+01  0.17841948089E+02  0.15494149632E+02  0.23761301393E+02  0.00000000000E+00 0.  1.
</event>
<event>
 7    1  0.2838209E-011  0.5052887E+02  0.7816164E-02  0.1300439E+00
        -11   -1    0    0    0    0  0.00000000000E+00  0.00000000000E+00  0.45593999997E+02  0.45594000000E+02  0.51100000000E-03 0. -1.
         11   -1    0    0    0    0 -0.00000000000E+00 -0.00000000000E+00 -0.45593999997E+02  0.45594000000E+02  0.51100000000E-03 0.  1.
    9900012    2    1    2    0    0  0.87609591880E+01  0.39549793788E+02  0.34963147897E+01  0.50528870500E+02  0.30000032371E+02 0.  0.
         12    1    1    2    0    0 -0.87609591880E+01 -0.39549793788E+02 -0.34963147897E+01  0.40659129500E+02  0.00000000000E+00 0. -1.
         11    1    3    3    0    0  0.12105939853E+01  0.65896936883E+01 -0.13620434454E+01  0.68370142102E+01  0.51100000000E-03 0. -1.
        -11    1    3    3    0    0  0.18239101155E+01  0.64312332961E+01 -0.10545100003E+02  0.12485453302E+02  0.51100000000E-03 0.  1.
         12    1    3    3    0    0  0.57264550872E+01  0.26528866804E+02  0.15403458238E+02  0.31206402988E+02  0.00000000000E+00 0. -1.
</event>
<event>
 7    1  0.2838209E-011  0.5052887E+02  0.7816164E-02  0.1300439E+00
        -11   -1    0    0    0    0  0.00000000000E+00  0.00000000000E+00  0.45593999997E+02  0.45594000000E+02  0.51100000000E-03 0.  1.
         11   -1    0    0    0    0 -0.00000000000E+00 -0.00000000000E+00 -0.45593999997E+02  0.45594000000E+02  0.51100000000E-03 0. -1.
    9900012    2    1    2    0    0 -0.28747598053E+02  0.27881426989E+02  0.70261467755E+01  0.50528866915E+02  0.30000021474E+02 0.  0.
         12    1    1    2    0    0  0.28747598053E+02 -0.27881426989E+02 -0.70261467755E+01  0.40659133085E+02  0.00000000000E+00 0. -1.
         11    1    3    3    0    0 -0.15787378047E+01  0.98501080885E+00 -0.37083246895E+01  0.41490157403E+01  0.51100000000E-03 0. -1.
        -11    1    3    3    0    0 -0.74142891535E+01  0.19334190264E+02 -0.33372520051E+01  0.20974266328E+02  0.51100000000E-03 0.  1.
         12    1    3    3    0    0 -0.19754571095E+02  0.75622259162E+01  0.14071723470E+02  0.25405584846E+02  0.00000000000E+00 0. -1.
</event>
<event>
 7    1  0.2838209E-011  0.5052891E+02  0.7816164E-02  0.1300439E+00
        -11   -1    0    0    0    0  0.00000000000E+00  0.00000000000E+00  0.45593999997E+02  0.45594000000E+02  0.51100000000E-03 0.  1.
         11   -1    0    0    0    0 -0.00000000000E+00 -0.00000000000E+00 -0.45593999997E+02  0.45594000000E+02  0.51100000000E-03 0. -1.
    9900012    2    1    2    0    0 -0.11812267452E+02 -0.12890701672E+02  0.36707786155E+02  0.50528912254E+02  0.30000159287E+02 0.  0.
         12    1    1    2    0    0  0.11812267452E+02  0.12890701672E+02 -0.36707786155E+02  0.40659087746E+02  0.00000000000E+00 0. -1.
         11    1    3    3    0    0  0.45393454297E+00  0.10037461905E+01  0.13065560484E+01  0.17089915018E+01  0.51100000000E-03 0. -1.
        -11    1    3    3    0    0 -0.18236159462E+02 -0.45342076722E+01  0.32171775711E+02  0.37257746897E+02  0.51100000000E-03 0.  1.
        -12    1    3    3    0    0  0.59699574668E+01 -0.93602401906E+01  0.32294543949E+01  0.11562173856E+02  0.00000000000E+00 0.  1.
</event>
<event>
 7    1  0.2838209E-011  0.5052885E+02  0.7816164E-02  0.1300439E+00
        -11   -1    0    0    0    0  0.00000000000E+00  0.00000000000E+00  0.45593999997E+02  0.45594000000E+02  0.51100000000E-03 0. -1.
         11   -1    0    0    0    0 -0.00000000000E+00 -0.00000000000E+00 -0.45593999997E+02  0.45594000000E+02  0.51100000000E-03 0.  1.
    9900012    2    1    2    0    0  0.11221498207E+02 -0.38310649787E+02 -0.77161062382E+01  0.50528853371E+02  0.29999980308E+02 0.  0.
         12    1    1    2    0    0 -0.11221498207E+02  0.38310649787E+02  0.77161062382E+01  0.40659146629E+02  0.00000000000E+00 0. -1.
         11    1    3    3    0    0  0.67674734101E+00 -0.19514321645E+02  0.11714976819E+01  0.19561164160E+02  0.51100000000E-03 0.  1.
        -11    1    3    3    0    0 -0.35637315082E+01 -0.63182437646E+01 -0.97034511048E+01  0.12115170248E+02  0.51100000000E-03 0. -1.
        -12    1    3    3    0    0  0.14108482374E+02 -0.12478084377E+02  0.81584718473E+00  0.18852518963E+02  0.00000000000E+00 0.  1.
</event>
<event>
 7    1  0.2838209E-011  0.5052886E+02  0.7816164E-02  0.1300439E+00
        -11   -1    0    0    0    0  0.00000000000E+00  0.00000000000E+00  0.45593999997E+02  0.45594000000E+02  0.51100000000E-03 0.  1.
         11   -1    0    0    0    0 -0.00000000000E+00 -0.00000000000E+00 -0.45593999997E+02  0.45594000000E+02  0.51100000000E-03 0. -1.
    9900012    2    1    2    0    0  0.54835989553E+01  0.16464065542E+02  0.36769966761E+02  0.50528858748E+02  0.29999996652E+02 0.  0.
         12    1    1    2    0    0 -0.54835989553E+01 -0.16464065542E+02 -0.36769966761E+02  0.40659141252E+02  0.00000000000E+00 0. -1.
         11    1    3    3    0    0 -0.63829645374E+01  0.63245923859E+01  0.20529155235E+02  0.22409572063E+02  0.51100000000E-03 0. -1.
        -11    1    3    3    0    0  0.37183662830E+01 -0.46137533010E+01  0.27579461976E+01  0.65359953203E+01  0.51100000000E-03 0.  1.
        -12    1    3    3    0    0  0.81481972098E+01  0.14753226457E+02  0.13482865329E+02  0.21583291365E+02  0.00000000000E+00 0.  1.
</event>
<event>
 7    1  0.2838209E-011  0.5052886E+02  0.7816164E-02  0.1300439E+00
        -11   -1    0    0    0    0  0.00000000000E+00  0.00000000000E+00  0.45593999997E+02  0.45594000000E+02  0.51100000000E-03 0. -1.
         11   -1    0    0    0    0 -0.00000000000E+00 -0.00000000000E+00 -0.45593999997E+02  0.45594000000E+02  0.51100000000E-03 0.  1.
    9900012    2    1    2    0    0  0.87033689705E+01 -0.81272957033E+01 -0.38876267044E+02  0.50528859500E+02  0.29999998937E+02 0.  0.
         12    1    1    2    0    0 -0.87033689705E+01  0.81272957033E+01  0.38876267044E+02  0.40659140500E+02  0.00000000000E+00 0. -1.
         11    1    3    3    0    0  0.87165526314E+01  0.16710311024E+01 -0.10061457392E+02  0.13416540532E+02  0.51100000000E-03 0. -1.
        -11    1    3    3    0    0  0.96545890989E+01 -0.71025899752E-01 -0.11164796347E+02  0.14760379842E+02  0.51100000000E-03 0.  1.
         12    1    3    3    0    0 -0.96677727597E+01 -0.97273009059E+01 -0.17650013305E+02  0.22351939127E+02  0.00000000000E+00 0. -1.
</event>
<event>
 7    1  0.2838209E-011  0.5052887E+02  0.7816164E-02  0.1300439E+00
        -11   -1    0    0    0    0  0.00000000000E+00  0.00000000000E+00  0.45593999997E+02  0.45594000000E+02  0.51100000000E-03 0.  1.
         11   -1    0    0    0    0 -0.00000000000E+00 -0.00000000000E+00 -0.45593999997E+02  0.45594000000E+02  0.51100000000E-03 0. -1.
    9900012    2    1    2    0    0 -0.10370030480E+02 -0.38217811405E+02  0.92209874467E+01  0.50528865107E+02  0.30000015980E+02 0.  0.
         12    1    1    2    0    0  0.10370030480E+02  0.38217811405E+02 -0.92209874467E+01  0.40659134893E+02  0.00000000000E+00 0. -1.
         11    1    3    3    0    0 -0.38134209940E+01 -0.60561201737E+01 -0.59612164581E+01  0.93142296062E+01  0.51100000000E-03 0. -1.
        -11    1    3    3    0    0 -0.11424047943E+02 -0.21541395328E+02  0.33942869428E+01  0.24618321799E+02  0.51100000000E-03 0.  1.
        -12    1    3    3    0    0  0.48674384569E+01 -0.10620295903E+02  0.11787916962E+02  0.16596313702E+02  0.00000000000E+00 0.  1.
</event>
<event>
 7    1  0.2838209E-011  0.5052886E+02  0.7816164E-02  0.1300439E+00
        -11   -1    0    0    0    0  0.00000000000E+00  0.00000000000E+00  0.45593999997E+02  0.45594000000E+02  0.51100000000E-03 0. -1.
         11   -1    0    0    0    0 -0.00000000000E+00 -0.00000000000E+00 -0.45593999997E+02  0.45594000000E+02  0.51100000000E-03 0.  1.
    9900012    2    1    2    0    0 -0.42821619174E+01 -0.38914357126E+02  0.10977307724E+02  0.50528863437E+02  0.30000010903E+02 0.  0.
         12    1    1    2    0    0  0.42821619174E+01  0.38914357126E+02 -0.10977307724E+02  0.40659136563E+02  0.00000000000E+00 0. -1.
         11    1    3    3    0    0  0.55189010937E+00 -0.72094258009E+01  0.34129130078E+01  0.79955224052E+01  0.51100000000E-03 0. -1.
        -11    1    3    3    0    0  0.15591804519E+01 -0.25340914407E+02  0.16141708054E+02  0.30085673099E+02  0.51100000000E-03 0.  1.
         12    1    3    3    0    0 -0.63932324786E+01 -0.63640169177E+01 -0.85773133381E+01  0.12447667932E+02  0.00000000000E+00 0. -1.
</event>
<event>
 7    1  0.2838209E-011  0.5052885E+02  0.7816164E-02  0.1300439E+00
        -11   -1    0    0    0    0  0.00000000000E+00  0.00000000000E+00  0.45593999997E+02  0.45594000000E+02  0.51100000000E-03 0. -1.
         11   -1    0    0    0    0 -0.00000000000E+00 -0.00000000000E+00 -0.45593999997E+02  0.45594000000E+02  0.51100000000E-03 0.  1.
    9900012    2    1    2    0    0 -0.73829738001E+01  0.37499303669E+02 -0.13872995513E+02  0.50528854875E+02  0.29999984879E+02 0.  0.
         12    1    1    2    0    0  0.73829738001E+01 -0.37499303669E+02  0.13872995513E+02  0.40659145125E+02  0.00000000000E+00 0. -1.
         11    1    3    3    0    0 -0.20440023322E+01 -0.99141877631E+00 -0.51600638796E+01  0.56380064053E+01  0.51100000000E-03 0. -1.
        -11    1    3    3    0    0 -0.13302192612E+01 -0.17173589848E+01  0.21420726818E+01  0.30507836371E+01  0.51100000000E-03 0.  1.
        -12    1    3    3    0    0 -0.40087522067E+01  0.40208081430E+02 -0.10855004316E+02  0.41840064833E+02  0.00000000000E+00 0.  1.
</event>
<event>
 7    1  0.2838209E-011  0.5052885E+02  0.7816164E-02  0.1300439E+00
        -11   -1    0    0    0    0  0.00000000000E+00  0.00000000000E+00  0.45593999997E+02  0.45594000000E+02  0.51100000000E-03 0.  1.
         11   -1    0    0    0    0 -0.00000000000E+00 -0.00000000000E+00 -0.45593999997E+02  0.45594000000E+02  0.51100000000E-03 0. -1.
    9900012    2    1    2    0    0  0.24092549673E+02 -0.30159512202E+02  0.12771826457E+02  0.50528847561E+02  0.29999962646E+02 0.  0.
         12    1    1    2    0    0 -0.24092549673E+02  0.30159512202E+02 -0.12771826457E+02  0.40659152439E+02  0.00000000000E+00 0. -1.
         11    1    3    3    0    0 -0.40934590843E+01 -0.71025696097E+01  0.26969144375E+01  0.86299623452E+01  0.51100000000E-03 0.  1.
        -11    1    3    3    0    0  0.17378877307E+01 -0.17434970289E+01  0.74319975135E+01  0.78290882582E+01  0.51100000000E-03 0. -1.
        -12    1    3    3    0    0  0.26448121027E+02 -0.21313445564E+02  0.26429145058E+01  0.34069796957E+02  0.00000000000E+00 0.  1.
</event>
<event>
 7    1  0.2838209E-011  0.5052886E+02  0.7816164E-02  0.1300439E+00
        -11   -1    0    0    0    0  0.00000000000E+00  0.00000000000E+00  0.45593999997E+02  0.45594000000E+02  0.51100000000E-03 0.  1.
         11   -1    0    0    0    0 -0.00000000000E+00 -0.00000000000E+00 -0.45593999997E+02  0.45594000000E+02  0.51100000000E-03 0. -1.
    9900012    2    1    2    0    0  0.20356501016E+02 -0.23327908792E+02  0.26355028267E+02  0.50528856168E+02  0.29999988808E+02 0.  0.
         12    1    1    2    0    0 -0.20356501016E+02  0.23327908792E+02 -0.26355028267E+02  0.40659143832E+02  0.00000000000E+00 0. -1.
         11    1    3    3    0    0  0.55504838206E+00 -0.82572057817E+01 -0.92014684570E+00  0.83268359241E+01  0.51100000000E-03 0. -1.
        -11    1    3    3    0    0  0.23668443719E+01 -0.38119346407E+01 -0.30713084507E+01  0.54374381694E+01  0.51100000000E-03 0.  1.
        -12    1    3    3    0    0  0.17434608262E+02 -0.11258768370E+02  0.30346483563E+02  0.36764582074E+02  0.00000000000E+00 0.  1.
</event>
<event>
 7    1  0.2838209E-011  0.5052885E+02  0.7816164E-02  0.1300439E+00
        -11   -1    0    0    0    0  0.00000000000E+00  0.00000000000E+00  0.45593999997E+02  0.45594000000E+02  0.51100000000E-03 0.  1.
         11   -1    0    0    0    0 -0.00000000000E+00 -0.00000000000E+00 -0.45593999997E+02  0.45594000000E+02  0.51100000000E-03 0. -1.
    9900012    2    1    2    0    0  0.45092420288E+01 -0.37519201838E+02  0.15004747317E+02  0.50528853277E+02  0.29999980021E+02 0.  0.
         12    1    1    2    0    0 -0.45092420288E+01  0.37519201838E+02 -0.15004747317E+02  0.40659146723E+02  0.00000000000E+00 0. -1.
         11    1    3    3    0    0  0.42361162662E+01 -0.25556866982E+02  0.15689062878E+02  0.30286050010E+02  0.51100000000E-03 0. -1.
        -11    1    3    3    0    0 -0.13358562978E+01 -0.14005183223E+02  0.42231682197E+01  0.14688935265E+02  0.51100000000E-03 0.  1.
         12    1    3    3    0    0  0.16089820604E+01  0.20428483675E+01 -0.49074837807E+01  0.55538680017E+01  0.00000000000E+00 0. -1.
</event>
<event>
 7    1  0.2838209E-011  0.5052886E+02  0.7816164E-02  0.1300439E+00
        -11   -1    0    0    0    0  0.00000000000E+00  0.00000000000E+00  0.45593999997E+02  0.45594000000E+02  0.51100000000E-03 0.  1.
         11   -1    0    0    0    0 -0.00000000000E+00 -0.00000000000E+00 -0.45593999997E+02  0.45594000000E+02  0.51100000000E-03 0. -1.
    9900012    2    1    2    0    0 -0.13987409376E+02 -0.11826515277E+02  0.36299465570E+02  0.50528864676E+02  0.30000014669E+02 0.  0.
         12    1    1    2    0    0  0.13987409376E+02  0.11826515277E+02 -0.36299465570E+02  0.40659135324E+02  0.00000000000E+00 0. -1.
         11    1    3    3    0    0  0.47807497527E+01  0.70839372443E+00  0.23073442668E+02  0.23574162694E+02  0.51100000000E-03 0. -1.
        -11    1    3    3    0    0 -0.30946334286E+01 -0.53328421280E-01  0.35331355093E+01  0.46970891802E+01  0.51100000000E-03 0.  1.
         12    1    3    3    0    0 -0.15673525700E+02 -0.12481580580E+02  0.96928873920E+01  0.22257612802E+02  0.00000000000E+00 0. -1.
</event>
<event>
 7    1  0.2838209E-011  0.5052886E+02  0.7816164E-02  0.1300439E+00
        -11   -1    0    0    0    0  0.00000000000E+00  0.00000000000E+00  0.45593999997E+02  0.45594000000E+02  0.51100000000E-03 0.  1.
         11   -1    0    0    0    0 -0.00000000000E+00 -0.00000000000E+00 -0.45593999997E+02  0.45594000000E+02  0.51100000000E-03 0. -1.
    9900012    2    1    2    0    0 -0.44311413215E+01 -0.23029249484E+02  0.33214222712E+02  0.50528856680E+02  0.29999990363E+02 0.  0.
         12    1    1    2    0    0  0.44311413215E+01  0.23029249484E+02 -0.33214222712E+02  0.40659143320E+02  0.00000000000E+00 0. -1.
         11    1    3    3    0    0 -0.47001298154E+01  0.31045890513E+01  0.15791689976E+02  0.16766250804E+02  0.51100000000E-03 0. -1.
        -11    1    3    3    0    0 -0.15304597370E+01 -0.49540977970E+01 -0.13997712159E+01  0.53707310217E+01  0.51100000000E-03 0.  1.
        -12    1    3    3    0    0  0.17994482309E+01 -0.21179740738E+02  0.18822303951E+02  0.28391874854E+02  0.00000000000E+00 0.  1.
</event>
<event>
 7    1  0.2838209E-011  0.5052886E+02  0.7816164E-02  0.1300439E+00
        -11   -1    0    0    0    0  0.00000000000E+00  0.00000000000E+00  0.45593999997E+02  0.45594000000E+02  0.51100000000E-03 0. -1.
         11   -1    0    0    0    0 -0.00000000000E+00 -0.00000000000E+00 -0.45593999997E+02  0.45594000000E+02  0.51100000000E-03 0.  1.
    9900012    2    1    2    0    0 -0.13050314645E+02  0.33266609317E+02  0.19395562117E+02  0.50528857884E+02  0.29999994025E+02 0.  0.
         12    1    1    2    0    0  0.13050314645E+02 -0.33266609317E+02 -0.19395562117E+02  0.40659142116E+02  0.00000000000E+00 0. -1.
         11    1    3    3    0    0 -0.39706961479E+01 -0.15645300843E+01  0.79503614197E+01  0.90234377733E+01  0.51100000000E-03 0. -1.
        -11    1    3    3    0    0 -0.11862132198E+02  0.12753751043E+02  0.28402273696E+01  0.17647527808E+02  0.51100000000E-03 0.  1.
        -12    1    3    3    0    0  0.27825137006E+01  0.22077388358E+02  0.86049733278E+01  0.23857892303E+02  0.00000000000E+00 0.  1.
</event>
<event>
 7    1  0.2838209E-011  0.5052886E+02  0.7816164E-02  0.1300439E+00
        -11   -1    0    0    0    0  0.00000000000E+00  0.00000000000E+00  0.45593999997E+02  0.45594000000E+02  0.51100000000E-03 0. -1.
         11   -1    0    0    0    0 -0.00000000000E+00 -0.00000000000E+00 -0.45593999997E+02  0.45594000000E+02  0.51100000000E-03 0.  1.
    9900012    2    1    2    0    0 -0.18206472998E+02 -0.12480495337E+02 -0.34145672362E+02  0.50528863709E+02  0.30000011730E+02 0.  0.
         12    1    1    2    0    0  0.18206472998E+02  0.12480495337E+02  0.34145672362E+02  0.40659136291E+02  0.00000000000E+00 0. -1.
         11    1    3    3    0    0  0.29546596437E+01 -0.70533386698E+01 -0.32762101481E+01  0.83194442841E+01  0.51100000000E-03 0. -1.
        -11    1    3    3    0    0  0.31369218202E+01 -0.53681150901E+00 -0.74865624457E+01  0.81349285564E+01  0.51100000000E-03 0.  1.
        -12    1    3    3    0    0 -0.24298054462E+02 -0.48903451582E+01 -0.23382899768E+02  0.34074490869E+02  0.00000000000E+00 0.  1.
</event>
<event>
 7    1  0.2838209E-011  0.5052885E+02  0.7816164E-02  0.1300439E+00
        -11   -1    0    0    0    0  0.00000000000E+00  0.00000000000E+00  0.45593999997E+02  0.45594000000E+02  0.51100000000E-03 0.  1.
         11   -1    0    0    0    0 -0.00000000000E+00 -0.00000000000E+00 -0.45593999997E+02  0.45594000000E+02  0.51100000000E-03 0. -1.
    9900012    2    1    2    0    0  0.43997398100E+01  0.29993184148E+02  0.27096447101E+02  0.50528852798E+02  0.29999978564E+02 0.  0.
         12    1    1    2    0    0 -0.43997398100E+01 -0.29993184148E+02 -0.27096447101E+02  0.40659147202E+02  0.00000000000E+00 0. -1.
         11    1    3    3    0    0 -0.23998953339E+01  0.33575593574E+01 -0.48664043016E+01  0.63807988168E+01  0.51100000000E-03 0. -1.
        -11    1    3    3    0    0  0.74415847602E+01  0.71295500603E+01  0.69859562760E+01  0.12450351527E+02  0.51100000000E-03 0.  1.
        -12    1    3    3    0    0 -0.64194961632E+00  0.19506074730E+02  0.24976895126E+02  0.31697702454E+02  0.00000000000E+00 0.  1.
</event>
<event>
 7    1  0.2838209E-011  0.5052886E+02  0.7816164E-02  0.1300439E+00
        -11   -1    0    0    0    0  0.00000000000E+00  0.00000000000E+00  0.45593999997E+02  0.45594000000E+02  0.51100000000E-03 0.  1.
         11   -1    0    0    0    0 -0.00000000000E+00 -0.00000000000E+00 -0.45593999997E+02  0.45594000000E+02  0.51100000000E-03 0. -1.
    9900012    2    1    2    0    0 -0.95191513624E+01  0.27993994343E+02  0.27908556259E+02  0.50528862351E+02  0.30000007602E+02 0.  0.
         12    1    1    2    0    0  0.95191513624E+01 -0.27993994343E+02 -0.27908556259E+02  0.40659137649E+02  0.00000000000E+00 0. -1.
         11    1    3    3    0    0 -0.29351465993E+01 -0.14966550965E+01  0.14567958766E+00  0.32979212908E+01  0.51100000000E-03 0. -1.
        -11    1    3    3    0    0 -0.76874198432E+01 -0.94866669799E+00  0.53328457263E+01  0.94040223389E+01  0.51100000000E-03 0.  1.
        -12    1    3    3    0    0  0.11034150800E+01  0.30439316137E+02  0.22430030945E+02  0.37826918721E+02  0.00000000000E+00 0.  1.
</event>
<event>
 7    1  0.2838209E-011  0.5052886E+02  0.7816164E-02  0.1300439E+00
        -11   -1    0    0    0    0  0.00000000000E+00  0.00000000000E+00  0.45593999997E+02  0.45594000000E+02  0.51100000000E-03 0.  1.
         11   -1    0    0    0    0 -0.00000000000E+00 -0.00000000000E+00 -0.45593999997E+02  0.45594000000E+02  0.51100000000E-03 0. -1.
    9900012    2    1    2    0    0  0.31630077888E+01 -0.37534883028E+02  0.15306658024E+02  0.50528857829E+02  0.29999993858E+02 0.  0.
         12    1    1    2    0    0 -0.31630077888E+01  0.37534883028E+02 -0.15306658024E+02  0.40659142171E+02  0.00000000000E+00 0. -1.
         11    1    3    3    0    0 -0.17765040477E+01  0.25497180699E+00 -0.47637349260E+01  0.50905940675E+01  0.51100000000E-03 0. -1.
        -11    1    3    3    0    0 -0.40320657157E+01 -0.17412512520E+02  0.50237976134E+01  0.18565874311E+02  0.51100000000E-03 0.  1.
        -12    1    3    3    0    0  0.89715775522E+01 -0.20377342315E+02  0.15046595336E+02  0.26872389451E+02  0.00000000000E+00 0.  1.
</event>
<event>
 7    1  0.2838209E-011  0.5052886E+02  0.7816164E-02  0.1300439E+00
        -11   -1    0    0    0    0  0.00000000000E+00  0.00000000000E+00  0.45593999997E+02  0.45594000000E+02  0.51100000000E-03 0.  1.
         11   -1    0    0    0    0 -0.00000000000E+00 -0.00000000000E+00 -0.45593999997E+02  0.45594000000E+02  0.51100000000E-03 0. -1.
    9900012    2    1    2    0    0  0.17914214761E+02 -0.18677772107E+02  0.31359013266E+02  0.50528856202E+02  0.29999988911E+02 0.  0.
         12    1    1    2    0    0 -0.17914214761E+02  0.18677772107E+02 -0.31359013266E+02  0.40659143798E+02  0.00000000000E+00 0. -1.
         11    1    3    3    0    0 -0.24128754336E+01 -0.42272938478E+01  0.50597057959E+01  0.70208691866E+01  0.51100000000E-03 0. -1.
        -11    1    3    3    0    0  0.21934764590E+02 -0.17207871822E+02  0.28312212046E+02  0.39734444773E+02  0.51100000000E-03 0.  1.
         12    1    3    3    0    0 -0.16076743953E+01  0.27573935628E+01 -0.20129045755E+01  0.37735422419E+01  0.00000000000E+00 0. -1.
</event>
<event>
 7    1  0.2838209E-011  0.5052886E+02  0.7816164E-02  0.1300439E+00
        -11   -1    0    0    0    0  0.00000000000E+00  0.00000000000E+00  0.45593999997E+02  0.45594000000E+02  0.51100000000E-03 0.  1.
         11   -1    0    0    0    0 -0.00000000000E+00 -0.00000000000E+00 -0.45593999997E+02  0.45594000000E+02  0.51100000000E-03 0. -1.
    9900012    2    1    2    0    0  0.26790252372E+02  0.30507133349E+02  0.21823672720E+01  0.50528861615E+02  0.30000005364E+02 0.  0.
         12    1    1    2    0    0 -0.26790252372E+02 -0.30507133349E+02 -0.21823672720E+01  0.40659138385E+02  0.00000000000E+00 0. -1.
         11    1    3    3    0    0  0.41403990947E-01  0.45258056859E+01  0.32805097354E+01  0.55898457744E+01  0.51100000000E-03 0. -1.
        -11    1    3    3    0    0  0.58769430701E+01  0.23041039350E+02  0.65946077427E+00  0.23787871762E+02  0.51100000000E-03 0.  1.
         12    1    3    3    0    0  0.20871905311E+02  0.29402883123E+01 -0.17576032377E+01  0.21151144078E+02  0.00000000000E+00 0. -1.
</event>
<event>
 7    1  0.2838209E-011  0.5052886E+02  0.7816164E-02  0.1300439E+00
        -11   -1    0    0    0    0  0.00000000000E+00  0.00000000000E+00  0.45593999997E+02  0.45594000000E+02  0.51100000000E-03 0. -1.
         11   -1    0    0    0    0 -0.00000000000E+00 -0.00000000000E+00 -0.45593999997E+02  0.45594000000E+02  0.51100000000E-03 0.  1.
    9900012    2    1    2    0    0 -0.88507615681E+01 -0.81152656300E+01 -0.38845494837E+02  0.50528856062E+02  0.29999988487E+02 0.  0.
         12    1    1    2    0    0  0.88507615681E+01  0.81152656300E+01  0.38845494837E+02  0.40659143938E+02  0.00000000000E+00 0. -1.
         11    1    3    3    0    0  0.45676004429E+01  0.67286882515E+01 -0.76259264656E+01  0.11148675891E+02  0.51100000000E-03 0. -1.
        -11    1    3    3    0    0 -0.11893390456E+02 -0.45510160840E+01 -0.11861783246E+02  0.17403056800E+02  0.51100000000E-03 0.  1.
        -12    1    3    3    0    0 -0.15249715555E+01 -0.10292937797E+02 -0.19357785126E+02  0.21977123372E+02  0.00000000000E+00 0.  1.
</event>
<event>
 7    1  0.2838209E-011  0.5052885E+02  0.7816164E-02  0.1300439E+00
        -11   -1    0    0    0    0  0.00000000000E+00  0.00000000000E+00  0.45593999997E+02  0.45594000000E+02  0.51100000000E-03 0.  1.
         11   -1    0    0    0    0 -0.00000000000E+00 -0.00000000000E+00 -0.45593999997E+02  0.45594000000E+02  0.51100000000E-03 0. -1.
    9900012    2    1    2    0    0 -0.47599966138E+01 -0.39636119772E+02  0.77127752516E+01  0.50528850225E+02  0.29999970745E+02 0.  0.
         12    1    1    2    0    0  0.47599966138E+01  0.39636119772E+02 -0.77127752516E+01  0.40659149775E+02  0.00000000000E+00 0. -1.
         11    1    3    3    0    0 -0.54753374543E+01 -0.73651165549E+01 -0.72862677177E+01  0.11718103926E+02  0.51100000000E-03 0. -1.
        -11    1    3    3    0    0  0.28520480271E+01 -0.18939316569E+01  0.62507509793E+01  0.71269238200E+01  0.51100000000E-03 0.  1.
         12    1    3    3    0    0 -0.21367071866E+01 -0.30377071560E+02  0.87482919899E+01  0.31683822479E+02  0.00000000000E+00 0. -1.
</event>
<event>
 7    1  0.2838209E-011  0.5052886E+02  0.7816164E-02  0.1300439E+00
        -11   -1    0    0    0    0  0.00000000000E+00  0.00000000000E+00  0.45593999997E+02  0.45594000000E+02  0.51100000000E-03 0. -1.
         11   -1    0    0    0    0 -0.00000000000E+00 -0.00000000000E+00 -0.45593999997E+02  0.45594000000E+02  0.51100000000E-03 0.  1.
    9900012    2    1    2    0    0 -0.38536996472E+02  0.12904479837E+02  0.12408815815E+01  0.50528862232E+02  0.30000007240E+02 0.  0.
         12    1    1    2    0    0  0.38536996472E+02 -0.12904479837E+02 -0.12408815815E+01  0.40659137768E+02  0.00000000000E+00 0. -1.
         11    1    3    3    0    0 -0.27991981282E+02 -0.48721392330E+01  0.75732408738E-01  0.28412928263E+02  0.51100000000E-03 0.  1.
        -11    1    3    3    0    0 -0.44692017052E+00  0.42033455114E+00  0.19260222476E+01  0.20213808976E+01  0.51100000000E-03 0. -1.
         12    1    3    3    0    0 -0.10098095019E+02  0.17356284518E+02 -0.76087307493E+00  0.20094553071E+02  0.00000000000E+00 0. -1.
</event>
<event>
 7    1  0.2838209E-011  0.5052887E+02  0.7816164E-02  0.1300439E+00
        -11   -1    0    0    0    0  0.00000000000E+00  0.00000000000E+00  0.45593999997E+02  0.45594000000E+02  0.51100000000E-03 0.  1.
         11   -1    0    0    0    0 -0.00000000000E+00 -0.00000000000E+00 -0.45593999997E+02  0.45594000000E+02  0.51100000000E-03 0. -1.
    9900012    2    1    2    0    0 -0.24493498619E+01 -0.27621652531E+02  0.29735661671E+02  0.50528873370E+02  0.30000041096E+02 0.  0.
         12    1    1    2    0    0  0.24493498619E+01  0.27621652531E+02 -0.29735661671E+02  0.40659126630E+02  0.00000000000E+00 0. -1.
         11    1    3    3    0    0 -0.21794379360E+01  0.10365109237E+00 -0.28214081059E+01  0.35666563091E+01  0.51100000000E-03 0. -1.
        -11    1    3    3    0    0  0.42131228953E+00 -0.40903387279E+00  0.13814639077E+02  0.13827113431E+02  0.51100000000E-03 0.  1.
        -12    1    3    3    0    0 -0.69122421540E+00 -0.27316269751E+02  0.18742430700E+02  0.33135103630E+02  0.00000000000E+00 0.  1.
</event>
<event>
 7    1  0.2838209E-011  0.5052886E+02  0.7816164E-02  0.1300439E+00
        -11   -1    0    0    0    0  0.00000000000E+00  0.00000000000E+00  0.45593999997E+02  0.45594000000E+02  0.51100000000E-03 0.  1.
         11   -1    0    0    0    0 -0.00000000000E+00 -0.00000000000E+00 -0.45593999997E+02  0.45594000000E+02  0.51100000000E-03 0. -1.
    9900012    2    1    2    0    0  0.47318593561E+01  0.12519624842E+02  0.38393151751E+02  0.50528860800E+02  0.30000002887E+02 0.  0.
         12    1    1    2    0    0 -0.47318593561E+01 -0.12519624842E+02 -0.38393151751E+02  0.40659139200E+02  0.00000000000E+00 0. -1.
         11    1    3    3    0    0  0.49849761296E+01 -0.50265065531E+01  0.73023576228E+01  0.10170554668E+02  0.51100000000E-03 0. -1.
        -11    1    3    3    0    0  0.62525157363E+01  0.21340815280E+01  0.17818757451E+02  0.19004114669E+02  0.51100000000E-03 0.  1.
        -12    1    3    3    0    0 -0.65056325098E+01  0.15412049868E+02  0.13272036677E+02  0.21354191463E+02  0.00000000000E+00 0.  1.
</event>
<event>
 7    1  0.2838209E-011  0.5052886E+02  0.7816164E-02  0.1300439E+00
        -11   -1    0    0    0    0  0.00000000000E+00  0.00000000000E+00  0.45593999997E+02  0.45594000000E+02  0.51100000000E-03 0. -1.
         11   -1    0    0    0    0 -0.00000000000E+00 -0.00000000000E+00 -0.45593999997E+02  0.45594000000E+02  0.51100000000E-03 0.  1.
    9900012    2    1    2    0    0 -0.86191217076E+01  0.24471269020E+02 -0.31305490523E+02  0.50528855846E+02  0.29999987830E+02 0.  0.
         12    1    1    2    0    0  0.86191217076E+01 -0.24471269020E+02  0.31305490523E+02  0.40659144154E+02  0.00000000000E+00 0. -1.
         11    1    3    3    0    0 -0.96159727850E+00  0.30189873053E+01 -0.25057104431E+01  0.40394973401E+01  0.51100000000E-03 0. -1.
        -11    1    3    3    0    0 -0.75924695428E+01  0.23062125149E+02 -0.33583829642E+02  0.41441293704E+02  0.51100000000E-03 0.  1.
         12    1    3    3    0    0 -0.65054886359E-01 -0.16098434345E+01  0.47840495629E+01  0.50480648017E+01  0.00000000000E+00 0. -1.
</event>
<event>
 7    1  0.2838209E-011  0.5052886E+02  0.7816164E-02  0.1300439E+00
        -11   -1    0    0    0    0  0.00000000000E+00  0.00000000000E+00  0.45593999997E+02  0.45594000000E+02  0.51100000000E-03 0. -1.
         11   -1    0    0    0    0 -0.00000000000E+00 -0.00000000000E+00 -0.45593999997E+02  0.45594000000E+02  0.51100000000E-03 0.  1.
    9900012    2    1    2    0    0  0.16324927722E+02 -0.20687005631E+02 -0.30963043215E+02  0.50528861885E+02  0.30000006186E+02 0.  0.
         12    1    1    2    0    0 -0.16324927722E+02  0.20687005631E+02  0.30963043215E+02  0.40659138115E+02  0.00000000000E+00 0. -1.
         11    1    3    3    0    0  0.11463922823E+02 -0.90926845119E+01 -0.50491333944E+01  0.15478765662E+02  0.51100000000E-03 0. -1.
        -11    1    3    3    0    0 -0.14011849935E+01 -0.59996842642E+00  0.30684890274E+01  0.34262087898E+01  0.51100000000E-03 0.  1.
        -12    1    3    3    0    0  0.62621898927E+01 -0.10994352693E+02 -0.28982398848E+02  0.31623887433E+02  0.00000000000E+00 0.  1.
</event>
<event>
 7    1  0.2838209E-011  0.5052887E+02  0.7816164E-02  0.1300439E+00
        -11   -1    0    0    0    0  0.00000000000E+00  0.00000000000E+00  0.45593999997E+02  0.45594000000E+02  0.51100000000E-03 0.  1.
         11   -1    0    0    0    0 -0.00000000000E+00 -0.00000000000E+00 -0.45593999997E+02  0.45594000000E+02  0.51100000000E-03 0. -1.
    9900012    2    1    2    0    0 -0.14122297373E+02 -0.85116188361E+00  0.38118256390E+02  0.50528865358E+02  0.30000016741E+02 0.  0.
         12    1    1    2    0    0  0.14122297373E+02  0.85116188361E+00 -0.38118256390E+02  0.40659134642E+02  0.00000000000E+00 0. -1.
         11    1    3    3    0    0  0.17988246402E+01  0.96444782577E+01  0.52785052321E+01  0.11140661951E+02  0.51100000000E-03 0. -1.
        -11    1    3    3    0    0  0.15184803176E+01 -0.49125071392E+00  0.17975993459E+01  0.24038455459E+01  0.51100000000E-03 0.  1.
        -12    1    3    3    0    0 -0.17439602331E+02 -0.10004389427E+02  0.31042151812E+02  0.36984357861E+02  0.00000000000E+00 0.  1.
</event>
<event>
 7    1  0.2838209E-011  0.5052887E+02  0.7816164E-02  0.1300439E+00
        -11   -1    0    0    0    0  0.00000000000E+00  0.00000000000E+00  0.45593999997E+02  0.45594000000E+02  0.51100000000E-03 0.  1.
         11   -1    0    0    0    0 -0.00000000000E+00 -0.00000000000E+00 -0.45593999997E+02  0.45594000000E+02  0.51100000000E-03 0. -1.
    9900012    2    1    2    0    0  0.12177819950E+02 -0.30658482948E+01  0.38671258268E+02  0.50528868916E+02  0.30000027556E+02 0.  0.
         12    1    1    2    0    0 -0.12177819950E+02  0.30658482948E+01 -0.38671258268E+02  0.40659131084E+02  0.00000000000E+00 0. -1.
         11    1    3    3    0    0 -0.89797394024E+00  0.44026830130E+01  0.38122725568E+01  0.58926562108E+01  0.51100000000E-03 0. -1.
        -11    1    3    3    0    0 -0.58709264409E+01  0.12800170980E+01  0.34576566347E+01  0.69326481744E+01  0.51100000000E-03 0.  1.
        -12    1    3    3    0    0  0.18946720331E+02 -0.87485484059E+01  0.31401329076E+02  0.37703564530E+02  0.00000000000E+00 0.  1.
</event>
<event>
 7    1  0.2838209E-011  0.5052886E+02  0.7816164E-02  0.1300439E+00
        -11   -1    0    0    0    0  0.00000000000E+00  0.00000000000E+00  0.45593999997E+02  0.45594000000E+02  0.51100000000E-03 0.  1.
         11   -1    0    0    0    0 -0.00000000000E+00 -0.00000000000E+00 -0.45593999997E+02  0.45594000000E+02  0.51100000000E-03 0. -1.
    9900012    2    1    2    0    0 -0.33775622227E+02  0.16989268924E+02  0.14957863992E+02  0.50528860675E+02  0.30000002509E+02 0.  0.
         12    1    1    2    0    0  0.33775622227E+02 -0.16989268924E+02 -0.14957863992E+02  0.40659139325E+02  0.00000000000E+00 0. -1.
         11    1    3    3    0    0  0.11257544576E+01  0.76260465374E+01 -0.16045885519E+01  0.78739198352E+01  0.51100000000E-03 0. -1.
        -11    1    3    3    0    0 -0.12465012192E+01  0.36054718674E+01  0.56354043739E+01  0.68052167780E+01  0.51100000000E-03 0.  1.
         12    1    3    3    0    0 -0.33654875465E+02  0.57577505197E+01  0.10927048170E+02  0.35849724062E+02  0.00000000000E+00 0. -1.
</event>
<event>
 7    1  0.2838209E-011  0.5052886E+02  0.7816164E-02  0.1300439E+00
        -11   -1    0    0    0    0  0.00000000000E+00  0.00000000000E+00  0.45593999997E+02  0.45594000000E+02  0.51100000000E-03 0.  1.
         11   -1    0    0    0    0 -0.00000000000E+00 -0.00000000000E+00 -0.45593999997E+02  0.45594000000E+02  0.51100000000E-03 0. -1.
    9900012    2    1    2    0    0 -0.40032279325E+02  0.70842017607E+01 -0.62983358992E+00  0.50528855974E+02  0.29999988219E+02 0.  0.
         12    1    1    2    0    0  0.40032279325E+02 -0.70842017607E+01  0.62983358992E+00  0.40659144026E+02  0.00000000000E+00 0. -1.
         11    1    3    3    0    0 -0.14898278300E+02 -0.19814099050E+00 -0.47932976608E+01  0.15651634384E+02  0.51100000000E-03 0. -1.
        -11    1    3    3    0    0 -0.21799473394E+02  0.14641659122E+02  0.50763330761E+01  0.26746296564E+02  0.51100000000E-03 0.  1.
         12    1    3    3    0    0 -0.33345276307E+01 -0.73593163707E+01 -0.91286900518E+00  0.81309250264E+01  0.00000000000E+00 0. -1.
</event>
<event>
 7    1  0.2838209E-011  0.5052887E+02  0.7816164E-02  0.1300439E+00
        -11   -1    0    0    0    0  0.00000000000E+00  0.00000000000E+00  0.45593999997E+02  0.45594000000E+02  0.51100000000E-03 0.  1.
         11   -1    0    0    0    0 -0.00000000000E+00 -0.00000000000E+00 -0.45593999997E+02  0.45594000000E+02  0.51100000000E-03 0. -1.
    9900012    2    1    2    0    0  0.15503222136E+02  0.75839976306E+01  0.36814375235E+02  0.50528866456E+02  0.30000020079E+02 0.  0.
         12    1    1    2    0    0 -0.15503222136E+02 -0.75839976306E+01 -0.36814375235E+02  0.40659133544E+02  0.00000000000E+00 0. -1.
         11    1    3    3    0    0  0.18910167003E+02  0.10788055629E+02  0.28088246451E+02  0.35537672255E+02  0.51100000000E-03 0.  1.
        -11    1    3    3    0    0  0.38176228206E+01 -0.64408338973E+00  0.77712589836E+00  0.39487988473E+01  0.51100000000E-03 0. -1.
         12    1    3    3    0    0 -0.72245676877E+01 -0.25599746092E+01  0.79490028853E+01  0.11042395354E+02  0.00000000000E+00 0. -1.
</event>
<event>
 7    1  0.2838209E-011  0.5052886E+02  0.7816164E-02  0.1300439E+00
        -11   -1    0    0    0    0  0.00000000000E+00  0.00000000000E+00  0.45593999997E+02  0.45594000000E+02  0.51100000000E-03 0.  1.
         11   -1    0    0    0    0 -0.00000000000E+00 -0.00000000000E+00 -0.45593999997E+02  0.45594000000E+02  0.51100000000E-03 0. -1.
    9900012    2    1    2    0    0  0.39476032873E+02  0.82232149334E+01  0.52141450781E+01  0.50528859034E+02  0.29999997519E+02 0.  0.
         12    1    1    2    0    0 -0.39476032873E+02 -0.82232149334E+01 -0.52141450781E+01  0.40659140966E+02  0.00000000000E+00 0. -1.
         11    1    3    3    0    0  0.62688855182E+01 -0.40970797139E+01  0.17284396866E+01  0.76858631157E+01  0.51100000000E-03 0.  1.
        -11    1    3    3    0    0  0.14890449850E+02 -0.43560175234E+01 -0.55472869601E+01  0.16476430993E+02  0.51100000000E-03 0. -1.
        -12    1    3    3    0    0  0.18316697505E+02  0.16676312171E+02  0.90329923517E+01  0.26366564925E+02  0.00000000000E+00 0.  1.
</event>
<event>
 7    1  0.2838209E-011  0.5052886E+02  0.7816164E-02  0.1300439E+00
        -11   -1    0    0    0    0  0.00000000000E+00  0.00000000000E+00  0.45593999997E+02  0.45594000000E+02  0.51100000000E-03 0.  1.
         11   -1    0    0    0    0 -0.00000000000E+00 -0.00000000000E+00 -0.45593999997E+02  0.45594000000E+02  0.51100000000E-03 0. -1.
    9900012    2    1    2    0    0 -0.32946128988E+02 -0.13857605984E+02  0.19382590511E+02  0.50528862357E+02  0.30000007621E+02 0.  0.
         12    1    1    2    0    0  0.32946128988E+02  0.13857605984E+02 -0.19382590511E+02  0.40659137643E+02  0.00000000000E+00 0. -1.
         11    1    3    3    0    0 -0.14336657868E+02 -0.10358698232E+02  0.97628140306E+01  0.20202844501E+02  0.51100000000E-03 0. -1.
        -11    1    3    3    0    0 -0.19858260055E+02 -0.31835844142E+01  0.14811244897E+02  0.24977163125E+02  0.51100000000E-03 0.  1.
         12    1    3    3    0    0  0.12487889345E+01 -0.31532333828E+00 -0.51914684167E+01  0.53488547309E+01  0.00000000000E+00 0. -1.
</event>
<event>
 7    1  0.2838209E-011  0.5052884E+02  0.7816164E-02  0.1300439E+00
        -11   -1    0    0    0    0  0.00000000000E+00  0.00000000000E+00  0.45593999997E+02  0.45594000000E+02  0.51100000000E-03 0. -1.
         11   -1    0    0    0    0 -0.00000000000E+00 -0.00000000000E+00 -0.45593999997E+02  0.45594000000E+02  0.51100000000E-03 0.  1.
    9900012    2    1    2    0    0  0.14705283132E+02  0.12461043534E+02 -0.35800060477E+02  0.50528840047E+02  0.29999939806E+02 0.  0.
         12    1    1    2    0    0 -0.14705283132E+02 -0.12461043534E+02  0.35800060477E+02  0.40659159953E+02  0.00000000000E+00 0. -1.
         11    1    3    3    0    0 -0.33418644179E+01 -0.15164734702E+01  0.14160977149E+01  0.39335839348E+01  0.51100000000E-03 0. -1.
        -11    1    3    3    0    0  0.73739176911E+01 -0.83741621464E-01 -0.22287959900E+02  0.23476261022E+02  0.51100000000E-03 0.  1.
        -12    1    3    3    0    0  0.10673229859E+02  0.14061258626E+02 -0.14928198291E+02  0.23118995090E+02  0.00000000000E+00 0.  1.
</event>
<event>
 7    1  0.2838209E-011  0.5052888E+02  0.7816164E-02  0.1300439E+00
        -11   -1    0    0    0    0  0.00000000000E+00  0.00000000000E+00  0.45593999997E+02  0.45594000000E+02  0.51100000000E-03 0.  1.
         11   -1    0    0    0    0 -0.00000000000E+00 -0.00000000000E+00 -0.45593999997E+02  0.45594000000E+02  0.51100000000E-03 0. -1.
    9900012    2    1    2    0    0  0.21908931860E+02  0.85980993040E+01  0.33154718498E+02  0.50528880905E+02  0.30000063999E+02 0.  0.
         12    1    1    2    0    0 -0.21908931860E+02 -0.85980993040E+01 -0.33154718498E+02  0.40659119095E+02  0.00000000000E+00 0. -1.
         11    1    3    3    0    0  0.79379950855E+01 -0.17559537297E+01  0.15450788025E+02  0.17459152051E+02  0.51100000000E-03 0. -1.
        -11    1    3    3    0    0 -0.57391863473E+01  0.81592316976E+00  0.55536015672E+01  0.80278565742E+01  0.51100000000E-03 0.  1.
        -12    1    3    3    0    0  0.19710123121E+02  0.95381298639E+01  0.12150328906E+02  0.25041872280E+02  0.00000000000E+00 0.  1.
</event>
<event>
 7    1  0.2838209E-011  0.5052886E+02  0.7816164E-02  0.1300439E+00
        -11   -1    0    0    0    0  0.00000000000E+00  0.00000000000E+00  0.45593999997E+02  0.45594000000E+02  0.51100000000E-03 0.  1.
         11   -1    0    0    0    0 -0.00000000000E+00 -0.00000000000E+00 -0.45593999997E+02  0.45594000000E+02  0.51100000000E-03 0. -1.
    9900012    2    1    2    0    0 -0.26881405000E+02  0.28459163190E+02  0.10983241966E+02  0.50528861933E+02  0.30000006331E+02 0.  0.
         12    1    1    2    0    0  0.26881405000E+02 -0.28459163190E+02 -0.10983241966E+02  0.40659138067E+02  0.00000000000E+00 0. -1.
         11    1    3    3    0    0 -0.71982355117E+01  0.69674675634E+01 -0.24941687780E+01  0.10323811161E+02  0.51100000000E-03 0. -1.
        -11    1    3    3    0    0 -0.11362548644E+02  0.15502143457E+01 -0.42763095335E+01  0.12239178881E+02  0.51100000000E-03 0.  1.
        -12    1    3    3    0    0 -0.83206208448E+01  0.19941481281E+02  0.17753720278E+02  0.27965871891E+02  0.00000000000E+00 0.  1.
</event>
<event>
 7    1  0.3284109E-011  0.5052885E+02  0.7816164E-02  0.1300439E+00
        -11   -1    0    0    0    0  0.00000000000E+00  0.00000000000E+00  0.45593999997E+02  0.45594000000E+02  0.51100000000E-03 0. -1.
         11   -1    0    0    0    0 -0.00000000000E+00 -0.00000000000E+00 -0.45593999997E+02  0.45594000000E+02  0.51100000000E-03 0.  1.
    9900012    2    1    2    0    0 -0.63941141916E+01  0.13477021358E+02 -0.37823953729E+02  0.50528852485E+02  0.29999977612E+02 0.  0.
         12    1    1    2    0    0  0.63941141916E+01 -0.13477021358E+02  0.37823953729E+02  0.40659147515E+02  0.00000000000E+00 0. -1.
         11    1    3    3    0    0 -0.24603479719E+00  0.27541188952E+01  0.16731808231E+01  0.32319093951E+01  0.51100000000E-03 0. -1.
        -11    1    3    3    0    0 -0.12252117517E+01 -0.62224141736E+01 -0.35883118979E+01  0.72866703316E+01  0.51100000000E-03 0.  1.
        -12    1    3    3    0    0 -0.49228676427E+01  0.16945316636E+02 -0.35908822654E+02  0.40010272758E+02  0.00000000000E+00 0.  1.
</event>
<event>
 7    1  0.2838209E-011  0.5052885E+02  0.7816164E-02  0.1300439E+00
        -11   -1    0    0    0    0  0.00000000000E+00  0.00000000000E+00  0.45593999997E+02  0.45594000000E+02  0.51100000000E-03 0.  1.
         11   -1    0    0    0    0 -0.00000000000E+00 -0.00000000000E+00 -0.45593999997E+02  0.45594000000E+02  0.51100000000E-03 0. -1.
    9900012    2    1    2    0    0  0.75167949943E+00 -0.31224157557E+02  0.26031773560E+02  0.50528852543E+02  0.29999977790E+02 0.  0.
         12    1    1    2    0    0 -0.75167949943E+00  0.31224157557E+02 -0.26031773560E+02  0.40659147457E+02  0.00000000000E+00 0. -1.
         11    1    3    3    0    0  0.19234539811E+01 -0.90127749035E+01  0.11185674160E+02  0.14493070529E+02  0.51100000000E-03 0. -1.
        -11    1    3    3    0    0  0.30170361012E+01 -0.26211951740E+02  0.91891778433E+01  0.27939397104E+02  0.51100000000E-03 0.  1.
         12    1    3    3    0    0 -0.41888105829E+01  0.40005690860E+01  0.56569215568E+01  0.80963849100E+01  0.00000000000E+00 0. -1.
</event>
<event>
 7    1  0.2838209E-011  0.5052886E+02  0.7816164E-02  0.1300439E+00
        -11   -1    0    0    0    0  0.00000000000E+00  0.00000000000E+00  0.45593999997E+02  0.45594000000E+02  0.51100000000E-03 0.  1.
         11   -1    0    0    0    0 -0.00000000000E+00 -0.00000000000E+00 -0.45593999997E+02  0.45594000000E+02  0.51100000000E-03 0. -1.
    9900012    2    1    2    0    0  0.22566217097E+02  0.31409407825E+02  0.12545155744E+02  0.50528856052E+02  0.29999988455E+02 0.  0.
         12    1    1    2    0    0 -0.22566217097E+02 -0.31409407825E+02 -0.12545155744E+02  0.40659143948E+02  0.00000000000E+00 0. -1.
         11    1    3    3    0    0 -0.41277777482E+01  0.73973823729E+01  0.64239427362E+01  0.10631408921E+02  0.51100000000E-03 0.  1.
        -11    1    3    3    0    0  0.12971291640E+02  0.21848628945E+02  0.54632207663E+01  0.25989685935E+02  0.51100000000E-03 0. -1.
        -12    1    3    3    0    0  0.13722703205E+02  0.21633965064E+01  0.65799224198E+00  0.13907761196E+02  0.00000000000E+00 0.  1.
</event>
<event>
 7    1  0.2838209E-011  0.5052891E+02  0.7816164E-02  0.1300439E+00
        -11   -1    0    0    0    0  0.00000000000E+00  0.00000000000E+00  0.45593999997E+02  0.45594000000E+02  0.51100000000E-03 0. -1.
         11   -1    0    0    0    0 -0.00000000000E+00 -0.00000000000E+00 -0.45593999997E+02  0.45594000000E+02  0.51100000000E-03 0.  1.
    9900012    2    1    2    0    0  0.38980085890E+02  0.60445996234E+01  0.98578407165E+01  0.50528913633E+02  0.30000163478E+02 0.  0.
         12    1    1    2    0    0 -0.38980085890E+02 -0.60445996234E+01 -0.98578407165E+01  0.40659086367E+02  0.00000000000E+00 0. -1.
         11    1    3    3    0    0  0.99696762139E+01  0.10661391486E+02  0.63977027999E+01  0.15937073558E+02  0.51100000000E-03 0. -1.
        -11    1    3    3    0    0  0.65082048731E+01  0.63107676673E+01  0.30778855875E+01  0.95737087469E+01  0.51100000000E-03 0.  1.
         12    1    3    3    0    0  0.22502204803E+02 -0.10927559530E+02  0.38225232908E+00  0.25018131328E+02  0.00000000000E+00 0. -1.
</event>
<event>
 7    1  0.2838209E-011  0.5052886E+02  0.7816164E-02  0.1300439E+00
        -11   -1    0    0    0    0  0.00000000000E+00  0.00000000000E+00  0.45593999997E+02  0.45594000000E+02  0.51100000000E-03 0.  1.
         11   -1    0    0    0    0 -0.00000000000E+00 -0.00000000000E+00 -0.45593999997E+02  0.45594000000E+02  0.51100000000E-03 0. -1.
    9900012    2    1    2    0    0 -0.26040723932E+02 -0.23705178873E+02  0.20325130231E+02  0.50528859241E+02  0.29999998150E+02 0.  0.
         12    1    1    2    0    0  0.26040723932E+02  0.23705178873E+02 -0.20325130231E+02  0.40659140759E+02  0.00000000000E+00 0. -1.
         11    1    3    3    0    0 -0.21349408269E+01 -0.41853111412E+01 -0.72382662887E+01  0.86294438297E+01  0.51100000000E-03 0. -1.
        -11    1    3    3    0    0 -0.42533805218E+01 -0.90849245154E+00  0.25330104658E+01  0.50331646783E+01  0.51100000000E-03 0.  1.
         12    1    3    3    0    0 -0.19652402584E+02 -0.18611375280E+02  0.25030386054E+02  0.36866250733E+02  0.00000000000E+00 0. -1.
</event>
<event>
 7    1  0.2838209E-011  0.5052886E+02  0.7816164E-02  0.1300439E+00
        -11   -1    0    0    0    0  0.00000000000E+00  0.00000000000E+00  0.45593999997E+02  0.45594000000E+02  0.51100000000E-03 0.  1.
         11   -1    0    0    0    0 -0.00000000000E+00 -0.00000000000E+00 -0.45593999997E+02  0.45594000000E+02  0.51100000000E-03 0. -1.
    9900012    2    1    2    0    0 -0.32071953410E+02 -0.21803924044E+02 -0.12212481313E+02  0.50528855898E+02  0.29999987989E+02 0.  0.
         12    1    1    2    0    0  0.32071953410E+02  0.21803924044E+02  0.12212481313E+02  0.40659144102E+02  0.00000000000E+00 0. -1.
         11    1    3    3    0    0  0.79816683386E+00 -0.36132357075E+01 -0.77517501758E+01  0.85896550351E+01  0.51100000000E-03 0. -1.
        -11    1    3    3    0    0  0.64773886816E+00  0.14003973295E+01  0.20581576939E+01  0.25722930774E+01  0.51100000000E-03 0.  1.
        -12    1    3    3    0    0 -0.33517859112E+02 -0.19591085666E+02 -0.65188888313E+01  0.39366907786E+02  0.00000000000E+00 0.  1.
</event>
<event>
 7    1  0.2838209E-011  0.5052886E+02  0.7816164E-02  0.1300439E+00
        -11   -1    0    0    0    0  0.00000000000E+00  0.00000000000E+00  0.45593999997E+02  0.45594000000E+02  0.51100000000E-03 0.  1.
         11   -1    0    0    0    0 -0.00000000000E+00 -0.00000000000E+00 -0.45593999997E+02  0.45594000000E+02  0.51100000000E-03 0. -1.
    9900012    2    1    2    0    0  0.38258400482E+02 -0.60850031639E+01  0.12346383724E+02  0.50528860044E+02  0.30000000588E+02 0.  0.
         12    1    1    2    0    0 -0.38258400482E+02  0.60850031639E+01 -0.12346383724E+02  0.40659139956E+02  0.00000000000E+00 0. -1.
         11    1    3    3    0    0  0.28344163723E+01 -0.38111409951E+01 -0.32351250891E+00  0.47606063123E+01  0.51100000000E-03 0.  1.
        -11    1    3    3    0    0  0.25666168554E+02 -0.13312746906E+02  0.11022308170E+02  0.30943056024E+02  0.51100000000E-03 0. -1.
        -12    1    3    3    0    0  0.97578155553E+01  0.11038884737E+02  0.16475880633E+01  0.14825197708E+02  0.00000000000E+00 0.  1.
</event>
<event>
 7    1  0.2838209E-011  0.5052886E+02  0.7816164E-02  0.1300439E+00
        -11   -1    0    0    0    0  0.00000000000E+00  0.00000000000E+00  0.45593999997E+02  0.45594000000E+02  0.51100000000E-03 0.  1.
         11   -1    0    0    0    0 -0.00000000000E+00 -0.00000000000E+00 -0.45593999997E+02  0.45594000000E+02  0.51100000000E-03 0. -1.
    9900012    2    1    2    0    0 -0.32905111199E+02  0.68699709247E+01  0.22874063365E+02  0.50528860580E+02  0.30000002220E+02 0.  0.
         12    1    1    2    0    0  0.32905111199E+02 -0.68699709247E+01 -0.22874063365E+02  0.40659139420E+02  0.00000000000E+00 0. -1.
         11    1    3    3    0    0 -0.12369768852E+02 -0.49953602274E+01  0.84669247406E+01  0.15800431009E+02  0.51100000000E-03 0. -1.
        -11    1    3    3    0    0 -0.11590629055E+02 -0.14253268077E+01  0.14614051353E+02  0.18706809873E+02  0.51100000000E-03 0.  1.
         12    1    3    3    0    0 -0.89447132924E+01  0.13290657960E+02 -0.20691272874E+00  0.16021619699E+02  0.00000000000E+00 0. -1.
</event>
<event>
 7    1  0.2838209E-011  0.5052886E+02  0.7816164E-02  0.1300439E+00
        -11   -1    0    0    0    0  0.00000000000E+00  0.00000000000E+00  0.45593999997E+02  0.45594000000E+02  0.51100000000E-03 0. -1.
         11   -1    0    0    0    0 -0.00000000000E+00 -0.00000000000E+00 -0.45593999997E+02  0.45594000000E+02  0.51100000000E-03 0.  1.
    9900012    2    1    2    0    0  0.28266023119E+02  0.70227722484E+01 -0.28370377301E+02  0.50528859561E+02  0.29999999122E+02 0.  0.
         12    1    1    2    0    0 -0.28266023119E+02 -0.70227722484E+01  0.28370377301E+02  0.40659140439E+02  0.00000000000E+00 0. -1.
         11    1    3    3    0    0  0.51262849992E+01 -0.28007425559E+01 -0.29562160427E+01  0.65469206738E+01  0.51100000000E-03 0. -1.
        -11    1    3    3    0    0  0.18085734461E+02 -0.54402268152E+01 -0.87139742174E+01  0.20799596287E+02  0.51100000000E-03 0.  1.
        -12    1    3    3    0    0  0.50540036587E+01  0.15263741619E+02 -0.16700187041E+02  0.23182342600E+02  0.00000000000E+00 0.  1.
</event>
<event>
 7    1  0.2838209E-011  0.5052886E+02  0.7816164E-02  0.1300439E+00
        -11   -1    0    0    0    0  0.00000000000E+00  0.00000000000E+00  0.45593999997E+02  0.45594000000E+02  0.51100000000E-03 0. -1.
         11   -1    0    0    0    0 -0.00000000000E+00 -0.00000000000E+00 -0.45593999997E+02  0.45594000000E+02  0.51100000000E-03 0.  1.
    9900012    2    1    2    0    0  0.17043347732E+02  0.36672887254E+02  0.42177244696E+01  0.50528861283E+02  0.30000004357E+02 0.  0.
         12    1    1    2    0    0 -0.17043347732E+02 -0.36672887254E+02 -0.42177244696E+01  0.40659138717E+02  0.00000000000E+00 0. -1.
         11    1    3    3    0    0  0.34842413352E+01  0.19131523179E+02 -0.33811094285E+01  0.19737958812E+02  0.51100000000E-03 0. -1.
        -11    1    3    3    0    0  0.48112368133E+01  0.17617373617E+02 -0.13043013103E+01  0.18309042985E+02  0.51100000000E-03 0.  1.
         12    1    3    3    0    0  0.87478695837E+01 -0.76009542139E-01  0.89031352084E+01  0.12481859487E+02  0.00000000000E+00 0. -1.
</event>
<event>
 7    1  0.2838209E-011  0.5052889E+02  0.7816164E-02  0.1300439E+00
        -11   -1    0    0    0    0  0.00000000000E+00  0.00000000000E+00  0.45593999997E+02  0.45594000000E+02  0.51100000000E-03 0. -1.
         11   -1    0    0    0    0 -0.00000000000E+00 -0.00000000000E+00 -0.45593999997E+02  0.45594000000E+02  0.51100000000E-03 0.  1.
    9900012    2    1    2    0    0 -0.29998513959E+02 -0.20267261629E+02 -0.18506505664E+02  0.50528886808E+02  0.30000081940E+02 0.  0.
         12    1    1    2    0    0  0.29998513959E+02  0.20267261629E+02  0.18506505664E+02  0.40659113192E+02  0.00000000000E+00 0. -1.
         11    1    3    3    0    0 -0.26159108881E+01  0.52057072953E+01 -0.54415164181E+01  0.79719808962E+01  0.51100000000E-03 0. -1.
        -11    1    3    3    0    0 -0.98547423261E+01 -0.22935881745E+01 -0.83453687421E+01  0.13115703288E+02  0.51100000000E-03 0.  1.
         12    1    3    3    0    0 -0.17527860745E+02 -0.23179380750E+02 -0.47196205036E+01  0.29441202624E+02  0.00000000000E+00 0. -1.
</event>
<event>
 7    1  0.2838209E-011  0.5052886E+02  0.7816164E-02  0.1300439E+00
        -11   -1    0    0    0    0  0.00000000000E+00  0.00000000000E+00  0.45593999997E+02  0.45594000000E+02  0.51100000000E-03 0.  1.
         11   -1    0    0    0    0 -0.00000000000E+00 -0.00000000000E+00 -0.45593999997E+02  0.45594000000E+02  0.51100000000E-03 0. -1.
    9900012    2    1    2    0    0 -0.25827083669E+02  0.98608295573E+01  0.29814276326E+02  0.50528864701E+02  0.30000014745E+02 0.  0.
         12    1    1    2    0    0  0.25827083669E+02 -0.98608295573E+01 -0.29814276326E+02  0.40659135299E+02  0.00000000000E+00 0. -1.
         11    1    3    3    0    0 -0.44889891810E+01  0.34164553174E+01 -0.78321747845E+00  0.56953156789E+01  0.51100000000E-03 0. -1.
        -11    1    3    3    0    0 -0.12773487013E+02  0.72739379911E+01  0.18373471687E+01  0.14813777008E+02  0.51100000000E-03 0.  1.
         12    1    3    3    0    0 -0.85646074752E+01 -0.82956375115E+00  0.28760146636E+02  0.30019772014E+02  0.00000000000E+00 0. -1.
</event>
<event>
 7    1  0.2838209E-011  0.5052885E+02  0.7816164E-02  0.1300439E+00
        -11   -1    0    0    0    0  0.00000000000E+00  0.00000000000E+00  0.45593999997E+02  0.45594000000E+02  0.51100000000E-03 0.  1.
         11   -1    0    0    0    0 -0.00000000000E+00 -0.00000000000E+00 -0.45593999997E+02  0.45594000000E+02  0.51100000000E-03 0. -1.
    9900012    2    1    2    0    0  0.49944499668E+01 -0.40278073982E+02 -0.24287104024E+01  0.50528850865E+02  0.29999972689E+02 0.  0.
         12    1    1    2    0    0 -0.49944499668E+01  0.40278073982E+02  0.24287104024E+01  0.40659149135E+02  0.00000000000E+00 0. -1.
         11    1    3    3    0    0 -0.27877937589E+01 -0.37578110473E+01 -0.68408280564E+01  0.82879350062E+01  0.51100000000E-03 0. -1.
        -11    1    3    3    0    0 -0.34362487071E+01 -0.60719784814E+01 -0.48484496099E+01  0.84961280438E+01  0.51100000000E-03 0.  1.
        -12    1    3    3    0    0  0.11218492433E+02 -0.30448284453E+02  0.92605672639E+01  0.33744787815E+02  0.00000000000E+00 0.  1.
</event>
<event>
 7    1  0.2838209E-011  0.5052886E+02  0.7816164E-02  0.1300439E+00
        -11   -1    0    0    0    0  0.00000000000E+00  0.00000000000E+00  0.45593999997E+02  0.45594000000E+02  0.51100000000E-03 0.  1.
         11   -1    0    0    0    0 -0.00000000000E+00 -0.00000000000E+00 -0.45593999997E+02  0.45594000000E+02  0.51100000000E-03 0. -1.
    9900012    2    1    2    0    0 -0.10077359745E+02  0.39388178850E+02 -0.42885258708E+00  0.50528859243E+02  0.29999998154E+02 0.  0.
         12    1    1    2    0    0  0.10077359745E+02 -0.39388178850E+02  0.42885258708E+00  0.40659140757E+02  0.00000000000E+00 0. -1.
         11    1    3    3    0    0 -0.56881980816E+01  0.19029941645E+01 -0.41359404626E+01  0.72858072975E+01  0.51100000000E-03 0.  1.
        -11    1    3    3    0    0 -0.89326669781E+01  0.61172772714E+01  0.40129733842E+01  0.11546323060E+02  0.51100000000E-03 0. -1.
        -12    1    3    3    0    0  0.45435053145E+01  0.31367907414E+02 -0.30588550870E+00  0.31696728885E+02  0.00000000000E+00 0.  1.
</event>
<event>
 7    1  0.2838209E-011  0.5052886E+02  0.7816164E-02  0.1300439E+00
        -11   -1    0    0    0    0  0.00000000000E+00  0.00000000000E+00  0.45593999997E+02  0.45594000000E+02  0.51100000000E-03 0.  1.
         11   -1    0    0    0    0 -0.00000000000E+00 -0.00000000000E+00 -0.45593999997E+02  0.45594000000E+02  0.51100000000E-03 0. -1.
    9900012    2    1    2    0    0  0.16553269802E+02 -0.52571562704E+01  0.36762991393E+02  0.50528856264E+02  0.29999989100E+02 0.  0.
         12    1    1    2    0    0 -0.16553269802E+02  0.52571562704E+01 -0.36762991393E+02  0.40659143736E+02  0.00000000000E+00 0. -1.
         11    1    3    3    0    0  0.17182704586E+02 -0.47583190444E+01  0.98788116273E+01  0.20383273939E+02  0.51100000000E-03 0. -1.
        -11    1    3    3    0    0  0.63299468627E+01  0.96842503557E+00  0.10740063822E+02  0.12504201114E+02  0.51100000000E-03 0.  1.
         12    1    3    3    0    0 -0.69593816467E+01 -0.14672622616E+01  0.16144115944E+02  0.17641381212E+02  0.00000000000E+00 0. -1.
</event>
<event>
 7    1  0.2838209E-011  0.5052886E+02  0.7816164E-02  0.1300439E+00
        -11   -1    0    0    0    0  0.00000000000E+00  0.00000000000E+00  0.45593999997E+02  0.45594000000E+02  0.51100000000E-03 0.  1.
         11   -1    0    0    0    0 -0.00000000000E+00 -0.00000000000E+00 -0.45593999997E+02  0.45594000000E+02  0.51100000000E-03 0. -1.
    9900012    2    1    2    0    0 -0.13740345541E+02  0.35038516080E+02  0.15384104854E+02  0.50528863427E+02  0.30000010873E+02 0.  0.
         12    1    1    2    0    0  0.13740345541E+02 -0.35038516080E+02 -0.15384104854E+02  0.40659136573E+02  0.00000000000E+00 0. -1.
         11    1    3    3    0    0 -0.13048955720E+01 -0.14615664062E+01  0.25486121793E+01  0.32147088694E+01  0.51100000000E-03 0. -1.
        -11    1    3    3    0    0 -0.30788386612E-01  0.27935336579E+02  0.67013154193E+00  0.27943390171E+02  0.51100000000E-03 0.  1.
         12    1    3    3    0    0 -0.12404661582E+02  0.85647459073E+01  0.12165361133E+02  0.19370764387E+02  0.00000000000E+00 0. -1.
</event>
<event>
 7    1  0.2838209E-011  0.5052886E+02  0.7816164E-02  0.1300439E+00
        -11   -1    0    0    0    0  0.00000000000E+00  0.00000000000E+00  0.45593999997E+02  0.45594000000E+02  0.51100000000E-03 0.  1.
         11   -1    0    0    0    0 -0.00000000000E+00 -0.00000000000E+00 -0.45593999997E+02  0.45594000000E+02  0.51100000000E-03 0. -1.
    9900012    2    1    2    0    0 -0.25543733975E+01 -0.40512679092E+02  0.23159098719E+01  0.50528862906E+02  0.30000009289E+02 0.  0.
         12    1    1    2    0    0  0.25543733975E+01  0.40512679092E+02 -0.23159098719E+01  0.40659137094E+02  0.00000000000E+00 0. -1.
         11    1    3    3    0    0  0.40202651613E+01 -0.98759039198E+01 -0.16940537287E+01  0.10796565588E+02  0.51100000000E-03 0. -1.
        -11    1    3    3    0    0  0.87760592847E+01 -0.11438914443E+02 -0.16405897700E+01  0.14510669015E+02  0.51100000000E-03 0.  1.
        -12    1    3    3    0    0 -0.15350697844E+02 -0.19197860729E+02  0.56505533705E+01  0.25221628303E+02  0.00000000000E+00 0.  1.
</event>
<event>
 7    1  0.2838209E-011  0.5052886E+02  0.7816164E-02  0.1300439E+00
        -11   -1    0    0    0    0  0.00000000000E+00  0.00000000000E+00  0.45593999997E+02  0.45594000000E+02  0.51100000000E-03 0.  1.
         11   -1    0    0    0    0 -0.00000000000E+00 -0.00000000000E+00 -0.45593999997E+02  0.45594000000E+02  0.51100000000E-03 0. -1.
    9900012    2    1    2    0    0 -0.26420392894E+02  0.43278747381E+01  0.30600617481E+02  0.50528862643E+02  0.30000008489E+02 0.  0.
         12    1    1    2    0    0  0.26420392894E+02 -0.43278747381E+01 -0.30600617481E+02  0.40659137357E+02  0.00000000000E+00 0. -1.
         11    1    3    3    0    0 -0.22418013649E+02 -0.19307123231E+01  0.28747305471E+02  0.36506198900E+02  0.51100000000E-03 0.  1.
        -11    1    3    3    0    0  0.33537713037E+01  0.27825211244E+01  0.36571357554E+01  0.56890111584E+01  0.51100000000E-03 0. -1.
        -12    1    3    3    0    0 -0.73561505488E+01  0.34760659368E+01 -0.18038237455E+01  0.83336525844E+01  0.00000000000E+00 0.  1.
</event>
<event>
 7    1  0.2838209E-011  0.5052886E+02  0.7816164E-02  0.1300439E+00
        -11   -1    0    0    0    0  0.00000000000E+00  0.00000000000E+00  0.45593999997E+02  0.45594000000E+02  0.51100000000E-03 0. -1.
         11   -1    0    0    0    0 -0.00000000000E+00 -0.00000000000E+00 -0.45593999997E+02  0.45594000000E+02  0.51100000000E-03 0.  1.
    9900012    2    1    2    0    0  0.39656375489E+02  0.45726346515E+01  0.77219466054E+01  0.50528861250E+02  0.30000004254E+02 0.  0.
         12    1    1    2    0    0 -0.39656375489E+02 -0.45726346515E+01 -0.77219466054E+01  0.40659138750E+02  0.00000000000E+00 0. -1.
         11    1    3    3    0    0  0.11754172023E+02 -0.94583675803E+01 -0.38021982473E+01  0.15558855646E+02  0.51100000000E-03 0. -1.
        -11    1    3    3    0    0  0.21764212641E+02  0.12715164467E+02  0.45976833957E+01  0.25622159397E+02  0.51100000000E-03 0.  1.
        -12    1    3    3    0    0  0.61379908248E+01  0.13158377644E+01  0.69264614570E+01  0.93478462066E+01  0.00000000000E+00 0.  1.
</event>
<event>
 7    1  0.2838209E-011  0.5052887E+02  0.7816164E-02  0.1300439E+00
        -11   -1    0    0    0    0  0.00000000000E+00  0.00000000000E+00  0.45593999997E+02  0.45594000000E+02  0.51100000000E-03 0.  1.
         11   -1    0    0    0    0 -0.00000000000E+00 -0.00000000000E+00 -0.45593999997E+02  0.45594000000E+02  0.51100000000E-03 0. -1.
    9900012    2    1    2    0    0  0.44887220033E+01 -0.37700203074E+02  0.14550285790E+02  0.50528871214E+02  0.30000034542E+02 0.  0.
         12    1    1    2    0    0 -0.44887220033E+01  0.37700203074E+02 -0.14550285790E+02  0.40659128786E+02  0.00000000000E+00 0. -1.
         11    1    3    3    0    0  0.23262814220E+01 -0.10972066440E+02  0.74856093137E+01  0.13484516093E+02  0.51100000000E-03 0.  1.
        -11    1    3    3    0    0 -0.16596555312E+01 -0.92517367592E+01  0.14817423475E+02  0.17547225657E+02  0.51100000000E-03 0. -1.
         12    1    3    3    0    0  0.38220961124E+01 -0.17476399875E+02 -0.77527469993E+01  0.19497129464E+02  0.00000000000E+00 0. -1.
</event>
<event>
 7    1  0.2838209E-011  0.5052886E+02  0.7816164E-02  0.1300439E+00
        -11   -1    0    0    0    0  0.00000000000E+00  0.00000000000E+00  0.45593999997E+02  0.45594000000E+02  0.51100000000E-03 0.  1.
         11   -1    0    0    0    0 -0.00000000000E+00 -0.00000000000E+00 -0.45593999997E+02  0.45594000000E+02  0.51100000000E-03 0. -1.
    9900012    2    1    2    0    0 -0.49956117316E+01 -0.28513264391E+02  0.28551764498E+02  0.50528860329E+02  0.30000001457E+02 0.  0.
         12    1    1    2    0    0  0.49956117316E+01  0.28513264391E+02 -0.28551764498E+02  0.40659139671E+02  0.00000000000E+00 0. -1.
         11    1    3    3    0    0  0.49617767074E+01 -0.12241932854E+02  0.73918021775E+01  0.15136805732E+02  0.51100000000E-03 0.  1.
        -11    1    3    3    0    0 -0.39890039270E+01 -0.17962602882E+01 -0.38882008729E+01  0.58529317134E+01  0.51100000000E-03 0. -1.
        -12    1    3    3    0    0 -0.59683845121E+01 -0.14475071250E+02  0.25048163193E+02  0.29539122883E+02  0.00000000000E+00 0.  1.
</event>
<event>
 7    1  0.2838209E-011  0.5052886E+02  0.7816164E-02  0.1300439E+00
        -11   -1    0    0    0    0  0.00000000000E+00  0.00000000000E+00  0.45593999997E+02  0.45594000000E+02  0.51100000000E-03 0.  1.
         11   -1    0    0    0    0 -0.00000000000E+00 -0.00000000000E+00 -0.45593999997E+02  0.45594000000E+02  0.51100000000E-03 0. -1.
    9900012    2    1    2    0    0 -0.10724775310E+02 -0.22839489864E+02  0.31882639435E+02  0.50528858347E+02  0.29999995431E+02 0.  0.
         12    1    1    2    0    0  0.10724775310E+02  0.22839489864E+02 -0.31882639435E+02  0.40659141653E+02  0.00000000000E+00 0. -1.
         11    1    3    3    0    0 -0.15907951935E+02 -0.92471140910E+01  0.80364176656E+01  0.20078746548E+02  0.51100000000E-03 0. -1.
        -11    1    3    3    0    0  0.45042724347E+01 -0.75465398968E+01  0.39333603172E+01  0.96286062452E+01  0.51100000000E-03 0.  1.
        -12    1    3    3    0    0  0.67890419032E+00 -0.60458358757E+01  0.19912861452E+02  0.20821505554E+02  0.00000000000E+00 0.  1.
</event>
<event>
 7    1  0.2838209E-011  0.5052886E+02  0.7816164E-02  0.1300439E+00
        -11   -1    0    0    0    0  0.00000000000E+00  0.00000000000E+00  0.45593999997E+02  0.45594000000E+02  0.51100000000E-03 0.  1.
         11   -1    0    0    0    0 -0.00000000000E+00 -0.00000000000E+00 -0.45593999997E+02  0.45594000000E+02  0.51100000000E-03 0. -1.
    9900012    2    1    2    0    0 -0.18710764030E+02 -0.34567694762E+02  0.10399398517E+02  0.50528859560E+02  0.29999999120E+02 0.  0.
         12    1    1    2    0    0  0.18710764030E+02  0.34567694762E+02 -0.10399398517E+02  0.40659140440E+02  0.00000000000E+00 0. -1.
         11    1    3    3    0    0 -0.75570500263E+01 -0.75313410962E+01  0.85343112342E+00  0.10703198062E+02  0.51100000000E-03 0. -1.
        -11    1    3    3    0    0 -0.18673535798E+02 -0.20248874360E+02  0.10864750900E+02  0.29610144621E+02  0.51100000000E-03 0.  1.
         12    1    3    3    0    0  0.75198217943E+01 -0.67874793055E+01 -0.13187835064E+01  0.10215516878E+02  0.00000000000E+00 0. -1.
</event>
<event>
 7    1  0.2838209E-011  0.5052885E+02  0.7816164E-02  0.1300439E+00
        -11   -1    0    0    0    0  0.00000000000E+00  0.00000000000E+00  0.45593999997E+02  0.45594000000E+02  0.51100000000E-03 0. -1.
         11   -1    0    0    0    0 -0.00000000000E+00 -0.00000000000E+00 -0.45593999997E+02  0.45594000000E+02  0.51100000000E-03 0.  1.
    9900012    2    1    2    0    0 -0.16769627220E+02  0.13466388700E+02 -0.34505103021E+02  0.50528853966E+02  0.29999982114E+02 0.  0.
         12    1    1    2    0    0  0.16769627220E+02 -0.13466388700E+02  0.34505103021E+02  0.40659146034E+02  0.00000000000E+00 0. -1.
         11    1    3    3    0    0 -0.12760820281E+02 -0.59390781500E+01 -0.16645833543E+02  0.21798966904E+02  0.51100000000E-03 0.  1.
        -11    1    3    3    0    0  0.10817249305E+00 -0.12725730464E+01 -0.35178305527E+00  0.13247245094E+01  0.51100000000E-03 0. -1.
        -12    1    3    3    0    0 -0.41169794320E+01  0.20678039897E+02 -0.17507486423E+02  0.27405162552E+02  0.00000000000E+00 0.  1.
</event>
<event>
 7    1  0.2838209E-011  0.5052886E+02  0.7816164E-02  0.1300439E+00
        -11   -1    0    0    0    0  0.00000000000E+00  0.00000000000E+00  0.45593999997E+02  0.45594000000E+02  0.51100000000E-03 0. -1.
         11   -1    0    0    0    0 -0.00000000000E+00 -0.00000000000E+00 -0.45593999997E+02  0.45594000000E+02  0.51100000000E-03 0.  1.
    9900012    2    1    2    0    0  0.52704694207E+01 -0.34605331452E+02  0.20684750748E+02  0.50528859252E+02  0.29999998183E+02 0.  0.
         12    1    1    2    0    0 -0.52704694207E+01  0.34605331452E+02 -0.20684750748E+02  0.40659140748E+02  0.00000000000E+00 0. -1.
         11    1    3    3    0    0  0.33697678806E+01 -0.20973915797E+02  0.40328429942E+01  0.21622310291E+02  0.51100000000E-03 0. -1.
        -11    1    3    3    0    0 -0.82599230110E+00 -0.16664476327E+02  0.63949845033E+01  0.17868487949E+02  0.51100000000E-03 0.  1.
         12    1    3    3    0    0  0.27266938412E+01  0.30330606718E+01  0.10256923251E+02  0.11038061012E+02  0.00000000000E+00 0. -1.
</event>
<event>
 7    1  0.2838209E-011  0.5052887E+02  0.7816164E-02  0.1300439E+00
        -11   -1    0    0    0    0  0.00000000000E+00  0.00000000000E+00  0.45593999997E+02  0.45594000000E+02  0.51100000000E-03 0.  1.
         11   -1    0    0    0    0 -0.00000000000E+00 -0.00000000000E+00 -0.45593999997E+02  0.45594000000E+02  0.51100000000E-03 0. -1.
    9900012    2    1    2    0    0 -0.17484123803E+02 -0.26920693611E+02  0.24954890527E+02  0.50528869526E+02  0.30000029412E+02 0.  0.
         12    1    1    2    0    0  0.17484123803E+02  0.26920693611E+02 -0.24954890527E+02  0.40659130474E+02  0.00000000000E+00 0. -1.
         11    1    3    3    0    0 -0.21670264564E+02 -0.15858906263E+02  0.16242260494E+02  0.31383376178E+02  0.51100000000E-03 0. -1.
        -11    1    3    3    0    0 -0.63344142637E+00 -0.39586657875E+00  0.73207272559E+01  0.73587367262E+01  0.51100000000E-03 0.  1.
         12    1    3    3    0    0  0.48195821868E+01 -0.10665920770E+02  0.13919027770E+01  0.11786756622E+02  0.00000000000E+00 0. -1.
</event>
<event>
 7    1  0.2838209E-011  0.5052886E+02  0.7816164E-02  0.1300439E+00
        -11   -1    0    0    0    0  0.00000000000E+00  0.00000000000E+00  0.45593999997E+02  0.45594000000E+02  0.51100000000E-03 0.  1.
         11   -1    0    0    0    0 -0.00000000000E+00 -0.00000000000E+00 -0.45593999997E+02  0.45594000000E+02  0.51100000000E-03 0. -1.
    9900012    2    1    2    0    0 -0.18333919256E+02 -0.21816070654E+02  0.29001592984E+02  0.50528856752E+02  0.29999990582E+02 0.  0.
         12    1    1    2    0    0  0.18333919256E+02  0.21816070654E+02 -0.29001592984E+02  0.40659143248E+02  0.00000000000E+00 0. -1.
         11    1    3    3    0    0 -0.19797936709E+02 -0.98364431162E+01  0.18617895895E+02  0.28902248337E+02  0.51100000000E-03 0. -1.
        -11    1    3    3    0    0  0.96701439732E+00 -0.12251071338E+02  0.13617931050E+02  0.18343170721E+02  0.51100000000E-03 0.  1.
        -12    1    3    3    0    0  0.49700305545E+00  0.27144379973E+00 -0.32342339609E+01  0.32834376935E+01  0.00000000000E+00 0.  1.
</event>
<event>
 7    1  0.2838209E-011  0.5052889E+02  0.7816164E-02  0.1300439E+00
        -11   -1    0    0    0    0  0.00000000000E+00  0.00000000000E+00  0.45593999997E+02  0.45594000000E+02  0.51100000000E-03 0. -1.
         11   -1    0    0    0    0 -0.00000000000E+00 -0.00000000000E+00 -0.45593999997E+02  0.45594000000E+02  0.51100000000E-03 0.  1.
    9900012    2    1    2    0    0 -0.34517977857E+02 -0.14015156197E+02 -0.16286432743E+02  0.50528889212E+02  0.30000089249E+02 0.  0.
         12    1    1    2    0    0  0.34517977857E+02  0.14015156197E+02  0.16286432743E+02  0.40659110788E+02  0.00000000000E+00 0. -1.
         11    1    3    3    0    0 -0.33917812978E+00 -0.18158423702E+01  0.14646534109E+01  0.23574425109E+01  0.51100000000E-03 0. -1.
        -11    1    3    3    0    0 -0.26492364965E+02 -0.87025979521E+01 -0.24687684169E+02  0.37243286139E+02  0.51100000000E-03 0.  1.
        -12    1    3    3    0    0 -0.76864347618E+01 -0.34967158746E+01  0.69365980141E+01  0.10928160562E+02  0.00000000000E+00 0.  1.
</event>
<event>
 7    1  0.2838209E-011  0.5052884E+02  0.7816164E-02  0.1300439E+00
        -11   -1    0    0    0    0  0.00000000000E+00  0.00000000000E+00  0.45593999997E+02  0.45594000000E+02  0.51100000000E-03 0. -1.
         11   -1    0    0    0    0 -0.00000000000E+00 -0.00000000000E+00 -0.45593999997E+02  0.45594000000E+02  0.51100000000E-03 0.  1.
    9900012    2    1    2    0    0  0.21019700592E+02 -0.21974184155E+02 -0.26990264332E+02  0.50528844193E+02  0.29999952409E+02 0.  0.
         12    1    1    2    0    0 -0.21019700592E+02  0.21974184155E+02  0.26990264332E+02  0.40659155807E+02  0.00000000000E+00 0. -1.
         11    1    3    3    0    0  0.61053585724E+01 -0.28595809277E+01  0.39955454061E+01  0.78368992423E+01  0.51100000000E-03 0. -1.
        -11    1    3    3    0    0  0.10711577956E+02 -0.21593835205E+02 -0.22901733900E+02  0.33249376491E+02  0.51100000000E-03 0.  1.
         12    1    3    3    0    0  0.42027640631E+01  0.24792319774E+01 -0.80840758378E+01  0.94425684598E+01  0.00000000000E+00 0. -1.
</event>
<event>
 7    1  0.2838209E-011  0.5052886E+02  0.7816164E-02  0.1300439E+00
        -11   -1    0    0    0    0  0.00000000000E+00  0.00000000000E+00  0.45593999997E+02  0.45594000000E+02  0.51100000000E-03 0.  1.
         11   -1    0    0    0    0 -0.00000000000E+00 -0.00000000000E+00 -0.45593999997E+02  0.45594000000E+02  0.51100000000E-03 0. -1.
    9900012    2    1    2    0    0  0.21957619470E+02  0.13326301934E+02  0.31518859695E+02  0.50528857209E+02  0.29999991971E+02 0.  0.
         12    1    1    2    0    0 -0.21957619470E+02 -0.13326301934E+02 -0.31518859695E+02  0.40659142791E+02  0.00000000000E+00 0. -1.
         11    1    3    3    0    0  0.17314702661E+02  0.18489308903E+02  0.31858040117E+02  0.40701206276E+02  0.51100000000E-03 0.  1.
        -11    1    3    3    0    0  0.11917701049E+01  0.11907945401E+00  0.26033594910E+01  0.28656546896E+01  0.51100000000E-03 0. -1.
        -12    1    3    3    0    0  0.34511467044E+01 -0.52820864232E+01 -0.29425399124E+01  0.69619962434E+01  0.00000000000E+00 0.  1.
</event>
<event>
 7    1  0.2838209E-011  0.5052886E+02  0.7816164E-02  0.1300439E+00
        -11   -1    0    0    0    0  0.00000000000E+00  0.00000000000E+00  0.45593999997E+02  0.45594000000E+02  0.51100000000E-03 0. -1.
         11   -1    0    0    0    0 -0.00000000000E+00 -0.00000000000E+00 -0.45593999997E+02  0.45594000000E+02  0.51100000000E-03 0.  1.
    9900012    2    1    2    0    0 -0.19319773264E+02 -0.20080946583E+02 -0.29608575186E+02  0.50528858602E+02  0.29999996207E+02 0.  0.
         12    1    1    2    0    0  0.19319773264E+02  0.20080946583E+02  0.29608575186E+02  0.40659141398E+02  0.00000000000E+00 0. -1.
         11    1    3    3    0    0 -0.14688779095E+02 -0.57456094188E+01 -0.24476542440E+02  0.29118265556E+02  0.51100000000E-03 0. -1.
        -11    1    3    3    0    0 -0.75911263617E+01 -0.67607997981E+01 -0.78419071202E+01  0.12838579395E+02  0.51100000000E-03 0.  1.
         12    1    3    3    0    0  0.29601321925E+01 -0.75745373663E+01  0.27098743741E+01  0.85720136511E+01  0.00000000000E+00 0. -1.
</event>
<event>
 7    1  0.2838209E-011  0.5052886E+02  0.7816164E-02  0.1300439E+00
        -11   -1    0    0    0    0  0.00000000000E+00  0.00000000000E+00  0.45593999997E+02  0.45594000000E+02  0.51100000000E-03 0.  1.
         11   -1    0    0    0    0 -0.00000000000E+00 -0.00000000000E+00 -0.45593999997E+02  0.45594000000E+02  0.51100000000E-03 0. -1.
    9900012    2    1    2    0    0  0.16952926278E+02 -0.49834293374E+01  0.36618697949E+02  0.50528864288E+02  0.30000013491E+02 0.  0.
         12    1    1    2    0    0 -0.16952926278E+02  0.49834293374E+01 -0.36618697949E+02  0.40659135712E+02  0.00000000000E+00 0. -1.
         11    1    3    3    0    0 -0.26030229875E+01  0.57894987891E+01  0.49449069225E+01  0.80464979734E+01  0.51100000000E-03 0. -1.
        -11    1    3    3    0    0  0.25187830656E+01 -0.25186620207E+01  0.19838796708E+02  0.20156035860E+02  0.51100000000E-03 0.  1.
        -12    1    3    3    0    0  0.17037166200E+02 -0.82542661057E+01  0.11834994318E+02  0.22326330455E+02  0.00000000000E+00 0.  1.
</event>
<event>
 7    1  0.2838209E-011  0.5052885E+02  0.7816164E-02  0.1300439E+00
        -11   -1    0    0    0    0  0.00000000000E+00  0.00000000000E+00  0.45593999997E+02  0.45594000000E+02  0.51100000000E-03 0.  1.
         11   -1    0    0    0    0 -0.00000000000E+00 -0.00000000000E+00 -0.45593999997E+02  0.45594000000E+02  0.51100000000E-03 0. -1.
    9900012    2    1    2    0    0  0.10995537364E+01  0.11877532849E+02  0.38870059678E+02  0.50528851652E+02  0.29999975082E+02 0.  0.
         12    1    1    2    0    0 -0.10995537364E+01 -0.11877532849E+02 -0.38870059678E+02  0.40659148348E+02  0.00000000000E+00 0. -1.
         11    1    3    3    0    0  0.66898926605E+01 -0.27951934629E+01  0.86321996920E+01  0.11273093723E+02  0.51100000000E-03 0.  1.
        -11    1    3    3    0    0  0.60626076135E+01  0.10853622271E+01  0.13094510839E+02  0.14470640504E+02  0.51100000000E-03 0. -1.
        -12    1    3    3    0    0 -0.11652946538E+02  0.13587364085E+02  0.17143349147E+02  0.24785117425E+02  0.00000000000E+00 0.  1.
</event>
<event>
 7    1  0.2838209E-011  0.5052886E+02  0.7816164E-02  0.1300439E+00
        -11   -1    0    0    0    0  0.00000000000E+00  0.00000000000E+00  0.45593999997E+02  0.45594000000E+02  0.51100000000E-03 0.  1.
         11   -1    0    0    0    0 -0.00000000000E+00 -0.00000000000E+00 -0.45593999997E+02  0.45594000000E+02  0.51100000000E-03 0. -1.
    9900012    2    1    2    0    0 -0.17410137461E+02 -0.20857560091E+02  0.30249210606E+02  0.50528862753E+02  0.30000008825E+02 0.  0.
         12    1    1    2    0    0  0.17410137461E+02  0.20857560091E+02 -0.30249210606E+02  0.40659137247E+02  0.00000000000E+00 0. -1.
         11    1    3    3    0    0 -0.37667098994E+01  0.49951692657E+01  0.64717889444E+01  0.90013261168E+01  0.51100000000E-03 0. -1.
        -11    1    3    3    0    0 -0.73817942167E+01 -0.79431313957E+00  0.93607029642E+01  0.11947576301E+02  0.51100000000E-03 0.  1.
        -12    1    3    3    0    0 -0.62616333446E+01 -0.25058416218E+02  0.14416718697E+02  0.29579960336E+02  0.00000000000E+00 0.  1.
</event>
<event>
 7    1  0.2838209E-011  0.5052886E+02  0.7816164E-02  0.1300439E+00
        -11   -1    0    0    0    0  0.00000000000E+00  0.00000000000E+00  0.45593999997E+02  0.45594000000E+02  0.51100000000E-03 0.  1.
         11   -1    0    0    0    0 -0.00000000000E+00 -0.00000000000E+00 -0.45593999997E+02  0.45594000000E+02  0.51100000000E-03 0. -1.
    9900012    2    1    2    0    0  0.12491320869E+02  0.25911282705E+02  0.28735660400E+02  0.50528857767E+02  0.29999993670E+02 0.  0.
         12    1    1    2    0    0 -0.12491320869E+02 -0.25911282705E+02 -0.28735660400E+02  0.40659142233E+02  0.00000000000E+00 0. -1.
         11    1    3    3    0    0  0.53957969772E+01  0.73620559953E+01 -0.40193923200E+01  0.99734652143E+01  0.51100000000E-03 0. -1.
        -11    1    3    3    0    0 -0.16564763246E+01  0.28639039528E+00 -0.37829810579E+00  0.17230911149E+01  0.51100000000E-03 0.  1.
        -12    1    3    3    0    0  0.87520002164E+01  0.18262836314E+02  0.33133350826E+02  0.38832301438E+02  0.00000000000E+00 0.  1.
</event>
<event>
 7    1  0.2838209E-011  0.5052886E+02  0.7816164E-02  0.1300439E+00
        -11   -1    0    0    0    0  0.00000000000E+00  0.00000000000E+00  0.45593999997E+02  0.45594000000E+02  0.51100000000E-03 0. -1.
         11   -1    0    0    0    0 -0.00000000000E+00 -0.00000000000E+00 -0.45593999997E+02  0.45594000000E+02  0.51100000000E-03 0.  1.
    9900012    2    1    2    0    0 -0.15050402142E+02  0.37716237955E+02 -0.20337949148E+01  0.50528861644E+02  0.30000005452E+02 0.  0.
         12    1    1    2    0    0  0.15050402142E+02 -0.37716237955E+02  0.20337949148E+01  0.40659138356E+02  0.00000000000E+00 0. -1.
         11    1    3    3    0    0 -0.10489922174E+01 -0.94009599122E+00  0.29090191574E+01  0.32321135290E+01  0.51100000000E-03 0. -1.
        -11    1    3    3    0    0 -0.91593180949E+01  0.36829792754E+02 -0.10821877750E+02  0.39464411570E+02  0.51100000000E-03 0.  1.
         12    1    3    3    0    0 -0.48420918300E+01  0.18265411926E+01  0.58790636783E+01  0.78323365449E+01  0.00000000000E+00 0. -1.
</event>
<event>
 7    1  0.2838209E-011  0.5052886E+02  0.7816164E-02  0.1300439E+00
        -11   -1    0    0    0    0  0.00000000000E+00  0.00000000000E+00  0.45593999997E+02  0.45594000000E+02  0.51100000000E-03 0.  1.
         11   -1    0    0    0    0 -0.00000000000E+00 -0.00000000000E+00 -0.45593999997E+02  0.45594000000E+02  0.51100000000E-03 0. -1.
    9900012    2    1    2    0    0 -0.30411243044E+02 -0.16181668077E+02  0.21598044714E+02  0.50528860552E+02  0.30000002132E+02 0.  0.
         12    1    1    2    0    0  0.30411243044E+02  0.16181668077E+02 -0.21598044714E+02  0.40659139448E+02  0.00000000000E+00 0. -1.
         11    1    3    3    0    0 -0.45790863448E+01 -0.19606946989E+01  0.70062511888E+01  0.85965057690E+01  0.51100000000E-03 0. -1.
        -11    1    3    3    0    0 -0.16312693663E+02 -0.10831599379E+02  0.21963115102E+02  0.29424580624E+02  0.51100000000E-03 0.  1.
         12    1    3    3    0    0 -0.95194630361E+01 -0.33893739986E+01 -0.73713215772E+01  0.12507774158E+02  0.00000000000E+00 0. -1.
</event>
<event>
 7    1  0.2838209E-011  0.5052887E+02  0.7816164E-02  0.1300439E+00
        -11   -1    0    0    0    0  0.00000000000E+00  0.00000000000E+00  0.45593999997E+02  0.45594000000E+02  0.51100000000E-03 0.  1.
         11   -1    0    0    0    0 -0.00000000000E+00 -0.00000000000E+00 -0.45593999997E+02  0.45594000000E+02  0.51100000000E-03 0. -1.
    9900012    2    1    2    0    0  0.29814020583E+02 -0.27638845682E+02  0.61897198649E+00  0.50528871378E+02  0.30000035041E+02 0.  0.
         12    1    1    2    0    0 -0.29814020583E+02  0.27638845682E+02 -0.61897198649E+00  0.40659128622E+02  0.00000000000E+00 0. -1.
         11    1    3    3    0    0  0.21022943052E+01 -0.55478857020E+00  0.55790050836E+01  0.59877148969E+01  0.51100000000E-03 0. -1.
        -11    1    3    3    0    0  0.13010845961E+02 -0.15990131108E+02  0.79020245735E+01  0.22077327694E+02  0.51100000000E-03 0.  1.
         12    1    3    3    0    0  0.14700880316E+02 -0.11093926004E+02 -0.12862057671E+02  0.22463828787E+02  0.00000000000E+00 0. -1.
</event>
<event>
 7    1  0.2838209E-011  0.5052884E+02  0.7816164E-02  0.1300439E+00
        -11   -1    0    0    0    0  0.00000000000E+00  0.00000000000E+00  0.45593999997E+02  0.45594000000E+02  0.51100000000E-03 0.  1.
         11   -1    0    0    0    0 -0.00000000000E+00 -0.00000000000E+00 -0.45593999997E+02  0.45594000000E+02  0.51100000000E-03 0. -1.
    9900012    2    1    2    0    0  0.74657315676E+01  0.34769303391E+02  0.19711045404E+02  0.50528844610E+02  0.29999953677E+02 0.  0.
         12    1    1    2    0    0 -0.74657315676E+01 -0.34769303391E+02 -0.19711045404E+02  0.40659155390E+02  0.00000000000E+00 0. -1.
         11    1    3    3    0    0  0.21589178131E+01  0.90378811005E+01  0.94315324257E+01  0.13240016052E+02  0.51100000000E-03 0. -1.
        -11    1    3    3    0    0  0.57660858245E+01  0.26313748795E+02  0.16125659015E+02  0.31395827753E+02  0.51100000000E-03 0.  1.
         12    1    3    3    0    0 -0.45927207001E+00 -0.58232650489E+00 -0.58461460371E+01  0.58930008043E+01  0.00000000000E+00 0. -1.
</event>
<event>
 7    1  0.2838209E-011  0.5052886E+02  0.7816164E-02  0.1300439E+00
        -11   -1    0    0    0    0  0.00000000000E+00  0.00000000000E+00  0.45593999997E+02  0.45594000000E+02  0.51100000000E-03 0. -1.
         11   -1    0    0    0    0 -0.00000000000E+00 -0.00000000000E+00 -0.45593999997E+02  0.45594000000E+02  0.51100000000E-03 0.  1.
    9900012    2    1    2    0    0 -0.91128332631E+01 -0.36030140539E+02 -0.16490928427E+02  0.50528862310E+02  0.30000007476E+02 0.  0.
         12    1    1    2    0    0  0.91128332631E+01  0.36030140539E+02  0.16490928427E+02  0.40659137690E+02  0.00000000000E+00 0. -1.
         11    1    3    3    0    0  0.71568502741E+00 -0.16579021818E+02 -0.30899113026E+01  0.16879683694E+02  0.51100000000E-03 0. -1.
        -11    1    3    3    0    0 -0.71401174446E+01 -0.24295749026E+02 -0.10857812492E+02  0.27552800043E+02  0.51100000000E-03 0.  1.
         12    1    3    3    0    0 -0.26884008460E+01  0.48446303046E+01 -0.25432046331E+01  0.60963785727E+01  0.00000000000E+00 0. -1.
</event>
<event>
 7    1  0.2838209E-011  0.5052889E+02  0.7816164E-02  0.1300439E+00
        -11   -1    0    0    0    0  0.00000000000E+00  0.00000000000E+00  0.45593999997E+02  0.45594000000E+02  0.51100000000E-03 0.  1.
         11   -1    0    0    0    0 -0.00000000000E+00 -0.00000000000E+00 -0.45593999997E+02  0.45594000000E+02  0.51100000000E-03 0. -1.
    9900012    2    1    2    0    0  0.33754393452E+02 -0.19983738414E+02  0.10698344448E+02  0.50528887218E+02  0.30000083187E+02 0.  0.
         12    1    1    2    0    0 -0.33754393452E+02  0.19983738414E+02 -0.10698344448E+02  0.40659112782E+02  0.00000000000E+00 0. -1.
         11    1    3    3    0    0  0.19496609943E+02 -0.11623397146E+02  0.14349841606E+02  0.26854033493E+02  0.51100000000E-03 0. -1.
        -11    1    3    3    0    0  0.14439109481E+02 -0.24831828216E+01  0.28318785091E+01  0.14922252366E+02  0.51100000000E-03 0.  1.
         12    1    3    3    0    0 -0.18132597206E+00 -0.58771584461E+01 -0.64833756663E+01  0.87526013585E+01  0.00000000000E+00 0. -1.
</event>
<event>
 7    1  0.2838209E-011  0.5052886E+02  0.7816164E-02  0.1300439E+00
        -11   -1    0    0    0    0  0.00000000000E+00  0.00000000000E+00  0.45593999997E+02  0.45594000000E+02  0.51100000000E-03 0.  1.
         11   -1    0    0    0    0 -0.00000000000E+00 -0.00000000000E+00 -0.45593999997E+02  0.45594000000E+02  0.51100000000E-03 0. -1.
    9900012    2    1    2    0    0  0.33028410228E+02 -0.19823341642E+02  0.13012476544E+02  0.50528864473E+02  0.30000014051E+02 0.  0.
         12    1    1    2    0    0 -0.33028410228E+02  0.19823341642E+02 -0.13012476544E+02  0.40659135527E+02  0.00000000000E+00 0. -1.
         11    1    3    3    0    0  0.16291343866E+02 -0.10537301453E+02 -0.36033659219E+01  0.19733901112E+02  0.51100000000E-03 0. -1.
        -11    1    3    3    0    0  0.18825552102E+02 -0.31228388129E+01  0.10119730274E+02  0.21600057297E+02  0.51100000000E-03 0.  1.
        -12    1    3    3    0    0 -0.20884857401E+01 -0.61632013766E+01  0.64961121920E+01  0.91949060629E+01  0.00000000000E+00 0.  1.
</event>
<event>
 7    1  0.2838209E-011  0.5052886E+02  0.7816164E-02  0.1300439E+00
        -11   -1    0    0    0    0  0.00000000000E+00  0.00000000000E+00  0.45593999997E+02  0.45594000000E+02  0.51100000000E-03 0. -1.
         11   -1    0    0    0    0 -0.00000000000E+00 -0.00000000000E+00 -0.45593999997E+02  0.45594000000E+02  0.51100000000E-03 0.  1.
    9900012    2    1    2    0    0  0.21730687187E+02  0.11348286942E+01 -0.34346109884E+02  0.50528857535E+02  0.29999992964E+02 0.  0.
         12    1    1    2    0    0 -0.21730687187E+02 -0.11348286942E+01  0.34346109884E+02  0.40659142465E+02  0.00000000000E+00 0. -1.
         11    1    3    3    0    0  0.48463608679E+01 -0.78256630773E+01 -0.21157961491E+02  0.23073524893E+02  0.51100000000E-03 0. -1.
        -11    1    3    3    0    0  0.10146905862E+02 -0.70836938591E+00 -0.11815989559E+02  0.15590994044E+02  0.51100000000E-03 0.  1.
        -12    1    3    3    0    0  0.67374204576E+01  0.96688611574E+01 -0.13721588337E+01  0.11864338598E+02  0.00000000000E+00 0.  1.
</event>
<event>
 7    1  0.2838209E-011  0.5052885E+02  0.7816164E-02  0.1300439E+00
        -11   -1    0    0    0    0  0.00000000000E+00  0.00000000000E+00  0.45593999997E+02  0.45594000000E+02  0.51100000000E-03 0. -1.
         11   -1    0    0    0    0 -0.00000000000E+00 -0.00000000000E+00 -0.45593999997E+02  0.45594000000E+02  0.51100000000E-03 0.  1.
    9900012    2    1    2    0    0  0.19666295166E+01 -0.21471433719E+02 -0.34471386160E+02  0.50528848984E+02  0.29999966971E+02 0.  0.
         12    1    1    2    0    0 -0.19666295166E+01  0.21471433719E+02  0.34471386160E+02  0.40659151016E+02  0.00000000000E+00 0. -1.
         11    1    3    3    0    0  0.43014671171E+00  0.33793585940E+01 -0.90918896285E+01  0.97091476443E+01  0.51100000000E-03 0. -1.
        -11    1    3    3    0    0  0.31536052169E+01  0.27425868130E+01 -0.47659208903E+01  0.63388493029E+01  0.51100000000E-03 0.  1.
        -12    1    3    3    0    0 -0.16171224121E+01 -0.27593379126E+02 -0.20613575641E+02  0.34480852037E+02  0.00000000000E+00 0.  1.
</event>
<event>
 7    1  0.2838209E-011  0.5052887E+02  0.7816164E-02  0.1300439E+00
        -11   -1    0    0    0    0  0.00000000000E+00  0.00000000000E+00  0.45593999997E+02  0.45594000000E+02  0.51100000000E-03 0.  1.
         11   -1    0    0    0    0 -0.00000000000E+00 -0.00000000000E+00 -0.45593999997E+02  0.45594000000E+02  0.51100000000E-03 0. -1.
    9900012    2    1    2    0    0 -0.26648841160E+02 -0.22460150833E+02  0.20941476876E+02  0.50528873542E+02  0.30000041618E+02 0.  0.
         12    1    1    2    0    0  0.26648841160E+02  0.22460150833E+02 -0.20941476876E+02  0.40659126458E+02  0.00000000000E+00 0. -1.
         11    1    3    3    0    0 -0.83508809221E+01 -0.26229986870E+00 -0.27063355948E+01  0.87823838455E+01  0.51100000000E-03 0. -1.
        -11    1    3    3    0    0 -0.38476968772E+01 -0.14328173494E+01 -0.29372082642E+01  0.50482600432E+01  0.51100000000E-03 0.  1.
        -12    1    3    3    0    0 -0.14450263360E+02 -0.20765033615E+02  0.26585020735E+02  0.36698229653E+02  0.00000000000E+00 0.  1.
</event>
<event>
 7    1  0.2838209E-011  0.5052886E+02  0.7816164E-02  0.1300439E+00
        -11   -1    0    0    0    0  0.00000000000E+00  0.00000000000E+00  0.45593999997E+02  0.45594000000E+02  0.51100000000E-03 0.  1.
         11   -1    0    0    0    0 -0.00000000000E+00 -0.00000000000E+00 -0.45593999997E+02  0.45594000000E+02  0.51100000000E-03 0. -1.
    9900012    2    1    2    0    0 -0.15097645517E+02 -0.12160956939E+02  0.35739865337E+02  0.50528858984E+02  0.29999997368E+02 0.  0.
         12    1    1    2    0    0  0.15097645517E+02  0.12160956939E+02 -0.35739865337E+02  0.40659141016E+02  0.00000000000E+00 0. -1.
         11    1    3    3    0    0 -0.12882763077E+02 -0.48050373242E+01  0.14348111745E+02  0.19872651536E+02  0.51100000000E-03 0. -1.
        -11    1    3    3    0    0 -0.31925346642E+01 -0.12926031843E+02  0.66826188302E+01  0.14897381363E+02  0.51100000000E-03 0.  1.
         12    1    3    3    0    0  0.97765222406E+00  0.55701122281E+01  0.14709134762E+02  0.15758826085E+02  0.00000000000E+00 0. -1.
</event>
<event>
 7    1  0.2838209E-011  0.5052898E+02  0.7816164E-02  0.1300438E+00
        -11   -1    0    0    0    0  0.00000000000E+00  0.00000000000E+00  0.45593999997E+02  0.45594000000E+02  0.51100000000E-03 0.  1.
         11   -1    0    0    0    0 -0.00000000000E+00 -0.00000000000E+00 -0.45593999997E+02  0.45594000000E+02  0.51100000000E-03 0. -1.
    9900012    2    1    2    0    0 -0.95100260017E+01 -0.43990833145E+01  0.39285660825E+02  0.50528982858E+02  0.30000373891E+02 0.  0.
         12    1    1    2    0    0  0.95100260017E+01  0.43990833145E+01 -0.39285660825E+02  0.40659017142E+02  0.00000000000E+00 0. -1.
         11    1    3    3    0    0 -0.49348570699E+01 -0.39282813395E+00  0.36284813163E+01  0.61378339149E+01  0.51100000000E-03 0. -1.
        -11    1    3    3    0    0 -0.81638528461E+01 -0.13686372592E+02  0.24120746823E+02  0.28909785810E+02  0.51100000000E-03 0.  1.
         12    1    3    3    0    0  0.35886839143E+01  0.96801174116E+01  0.11536432685E+02  0.15481363132E+02  0.00000000000E+00 0. -1.
</event>
<event>
 7    1  0.2838209E-011  0.5052877E+02  0.7816164E-02  0.1300439E+00
        -11   -1    0    0    0    0  0.00000000000E+00  0.00000000000E+00  0.45593999997E+02  0.45594000000E+02  0.51100000000E-03 0. -1.
         11   -1    0    0    0    0 -0.00000000000E+00 -0.00000000000E+00 -0.45593999997E+02  0.45594000000E+02  0.51100000000E-03 0.  1.
    9900012    2    1    2    0    0  0.22751940962E+02  0.28512242918E+02 -0.17960341877E+02  0.50528773568E+02  0.29999737735E+02 0.  0.
         12    1    1    2    0    0 -0.22751940962E+02 -0.28512242918E+02  0.17960341877E+02  0.40659226432E+02  0.00000000000E+00 0. -1.
         11    1    3    3    0    0  0.59013407787E+01 -0.15909841958E+01 -0.96253167653E+01  0.11401919873E+02  0.51100000000E-03 0.  1.
        -11    1    3    3    0    0  0.85791379900E+01  0.18495963538E+01 -0.23448219801E+01  0.90840963064E+01  0.51100000000E-03 0. -1.
         12    1    3    3    0    0  0.82714621936E+01  0.28253630760E+02 -0.59902031314E+01  0.30042757388E+02  0.00000000000E+00 0. -1.
</event>
<event>
 7    1  0.2838209E-011  0.5052887E+02  0.7816164E-02  0.1300439E+00
        -11   -1    0    0    0    0  0.00000000000E+00  0.00000000000E+00  0.45593999997E+02  0.45594000000E+02  0.51100000000E-03 0.  1.
         11   -1    0    0    0    0 -0.00000000000E+00 -0.00000000000E+00 -0.45593999997E+02  0.45594000000E+02  0.51100000000E-03 0. -1.
    9900012    2    1    2    0    0  0.80275758127E+00 -0.11005908910E+01  0.40636305951E+02  0.50528867184E+02  0.30000022291E+02 0.  0.
         12    1    1    2    0    0 -0.80275758127E+00  0.11005908910E+01 -0.40636305951E+02  0.40659132816E+02  0.00000000000E+00 0. -1.
         11    1    3    3    0    0 -0.24732771300E+00  0.11864903209E+01 -0.17481081123E+01  0.21271606692E+01  0.51100000000E-03 0.  1.
        -11    1    3    3    0    0  0.64025158238E+01  0.49466520616E+01  0.40931185848E+01  0.90672595365E+01  0.51100000000E-03 0. -1.
        -12    1    3    3    0    0 -0.53524305295E+01 -0.72337332735E+01  0.38291295478E+02  0.39334446978E+02  0.00000000000E+00 0.  1.
</event>
<event>
 7    1  0.2838209E-011  0.5052886E+02  0.7816164E-02  0.1300439E+00
        -11   -1    0    0    0    0  0.00000000000E+00  0.00000000000E+00  0.45593999997E+02  0.45594000000E+02  0.51100000000E-03 0.  1.
         11   -1    0    0    0    0 -0.00000000000E+00 -0.00000000000E+00 -0.45593999997E+02  0.45594000000E+02  0.51100000000E-03 0. -1.
    9900012    2    1    2    0    0 -0.28374827510E+02 -0.26464644816E+02  0.12151441557E+02  0.50528858428E+02  0.29999995679E+02 0.  0.
         12    1    1    2    0    0  0.28374827510E+02  0.26464644816E+02 -0.12151441557E+02  0.40659141572E+02  0.00000000000E+00 0. -1.
         11    1    3    3    0    0  0.21693402104E+01  0.12231762830E+01 -0.16255233604E+01  0.29739743819E+01  0.51100000000E-03 0. -1.
        -11    1    3    3    0    0 -0.11523318597E+02 -0.18862983633E+02  0.14733854031E+02  0.26564741254E+02  0.51100000000E-03 0.  1.
         12    1    3    3    0    0 -0.19020849123E+02 -0.88248374656E+01 -0.95688911354E+00  0.20990142792E+02  0.00000000000E+00 0. -1.
</event>
<event>
 7    1  0.2838209E-011  0.5052886E+02  0.7816164E-02  0.1300439E+00
        -11   -1    0    0    0    0  0.00000000000E+00  0.00000000000E+00  0.45593999997E+02  0.45594000000E+02  0.51100000000E-03 0.  1.
         11   -1    0    0    0    0 -0.00000000000E+00 -0.00000000000E+00 -0.45593999997E+02  0.45594000000E+02  0.51100000000E-03 0. -1.
    9900012    2    1    2    0    0  0.26722837337E+02  0.24480411072E+02  0.18432723156E+02  0.50528857799E+02  0.29999993765E+02 0.  0.
         12    1    1    2    0    0 -0.26722837337E+02 -0.24480411072E+02 -0.18432723156E+02  0.40659142201E+02  0.00000000000E+00 0. -1.
         11    1    3    3    0    0  0.94961100346E+01  0.10972579661E+02  0.14884027466E+02  0.20787204816E+02  0.51100000000E-03 0. -1.
        -11    1    3    3    0    0  0.80956244754E+01  0.10204561667E+02  0.11356834322E+02  0.17281490114E+02  0.51100000000E-03 0.  1.
        -12    1    3    3    0    0  0.91311028271E+01  0.33032697436E+01 -0.78081386315E+01  0.12460162869E+02  0.00000000000E+00 0.  1.
</event>
<event>
 7    1  0.2838209E-011  0.5052884E+02  0.7816164E-02  0.1300439E+00
        -11   -1    0    0    0    0  0.00000000000E+00  0.00000000000E+00  0.45593999997E+02  0.45594000000E+02  0.51100000000E-03 0. -1.
         11   -1    0    0    0    0 -0.00000000000E+00 -0.00000000000E+00 -0.45593999997E+02  0.45594000000E+02  0.51100000000E-03 0.  1.
    9900012    2    1    2    0    0 -0.27483877256E+02 -0.21402727218E+02 -0.20969668756E+02  0.50528840526E+02  0.29999941264E+02 0.  0.
         12    1    1    2    0    0  0.27483877256E+02  0.21402727218E+02  0.20969668756E+02  0.40659159474E+02  0.00000000000E+00 0. -1.
         11    1    3    3    0    0  0.13525054348E+00 -0.37895362473E+01  0.86125754167E+00  0.38885270339E+01  0.51100000000E-03 0. -1.
        -11    1    3    3    0    0  0.42962025144E+01 -0.82864892220E+00 -0.55718189580E+01  0.70844323585E+01  0.51100000000E-03 0.  1.
         12    1    3    3    0    0 -0.31915330314E+02 -0.16784542049E+02 -0.16259107340E+02  0.39555881134E+02  0.00000000000E+00 0. -1.
</event>
<event>
 7    1  0.2838209E-011  0.5052886E+02  0.7816164E-02  0.1300439E+00
        -11   -1    0    0    0    0  0.00000000000E+00  0.00000000000E+00  0.45593999997E+02  0.45594000000E+02  0.51100000000E-03 0.  1.
         11   -1    0    0    0    0 -0.00000000000E+00 -0.00000000000E+00 -0.45593999997E+02  0.45594000000E+02  0.51100000000E-03 0. -1.
    9900012    2    1    2    0    0 -0.31811358010E+02  0.95609607696E+00  0.25303933813E+02  0.50528859766E+02  0.29999999746E+02 0.  0.
         12    1    1    2    0    0  0.31811358010E+02 -0.95609607696E+00 -0.25303933813E+02  0.40659140234E+02  0.00000000000E+00 0. -1.
         11    1    3    3    0    0 -0.18370808584E+02  0.10994536088E+02  0.19016455403E+02  0.28635502583E+02  0.51100000000E-03 0. -1.
        -11    1    3    3    0    0  0.24573763326E+01 -0.18249804476E+01  0.62054387575E+00  0.31231918027E+01  0.51100000000E-03 0.  1.
        -12    1    3    3    0    0 -0.15897925758E+02 -0.82134595635E+01  0.56669345346E+01  0.18770165381E+02  0.00000000000E+00 0.  1.
</event>
<event>
 7    1  0.2838209E-011  0.5052886E+02  0.7816164E-02  0.1300439E+00
        -11   -1    0    0    0    0  0.00000000000E+00  0.00000000000E+00  0.45593999997E+02  0.45594000000E+02  0.51100000000E-03 0.  1.
         11   -1    0    0    0    0 -0.00000000000E+00 -0.00000000000E+00 -0.45593999997E+02  0.45594000000E+02  0.51100000000E-03 0. -1.
    9900012    2    1    2    0    0 -0.11896024938E+02 -0.21326394624E+01  0.38821411651E+02  0.50528861261E+02  0.30000004289E+02 0.  0.
         12    1    1    2    0    0  0.11896024938E+02  0.21326394624E+01 -0.38821411651E+02  0.40659138739E+02  0.00000000000E+00 0. -1.
         11    1    3    3    0    0 -0.15144791914E+02  0.11185686196E+00  0.20586039163E+02  0.25557039006E+02  0.51100000000E-03 0. -1.
        -11    1    3    3    0    0 -0.59642291085E+01 -0.15872150149E+01  0.12911863231E+02  0.14311096839E+02  0.51100000000E-03 0.  1.
         12    1    3    3    0    0  0.92129960851E+01 -0.65728130944E+00  0.53235092572E+01  0.10660725416E+02  0.00000000000E+00 0. -1.
</event>
<event>
 7    1  0.2838209E-011  0.5052886E+02  0.7816164E-02  0.1300439E+00
        -11   -1    0    0    0    0  0.00000000000E+00  0.00000000000E+00  0.45593999997E+02  0.45594000000E+02  0.51100000000E-03 0.  1.
         11   -1    0    0    0    0 -0.00000000000E+00 -0.00000000000E+00 -0.45593999997E+02  0.45594000000E+02  0.51100000000E-03 0. -1.
    9900012    2    1    2    0    0 -0.38744547777E+02  0.92450259016E+01  0.81581305800E+01  0.50528861041E+02  0.30000003620E+02 0.  0.
         12    1    1    2    0    0  0.38744547777E+02 -0.92450259016E+01 -0.81581305800E+01  0.40659138959E+02  0.00000000000E+00 0. -1.
         11    1    3    3    0    0 -0.70699576322E+01 -0.47659924990E+01  0.43717582824E+01  0.95818190425E+01  0.51100000000E-03 0.  1.
        -11    1    3    3    0    0 -0.14126558196E+02  0.68428141244E+01 -0.89889230488E+01  0.18088241746E+02  0.51100000000E-03 0. -1.
         12    1    3    3    0    0 -0.17548031948E+02  0.71682042762E+01  0.12775295346E+02  0.22858800253E+02  0.00000000000E+00 0. -1.
</event>
<event>
 7    1  0.2838209E-011  0.5052884E+02  0.7816164E-02  0.1300439E+00
        -11   -1    0    0    0    0  0.00000000000E+00  0.00000000000E+00  0.45593999997E+02  0.45594000000E+02  0.51100000000E-03 0.  1.
         11   -1    0    0    0    0 -0.00000000000E+00 -0.00000000000E+00 -0.45593999997E+02  0.45594000000E+02  0.51100000000E-03 0. -1.
    9900012    2    1    2    0    0  0.40293437730E+01 -0.85617818107E+01  0.39542732336E+02  0.50528838675E+02  0.29999935638E+02 0.  0.
         12    1    1    2    0    0 -0.40293437730E+01  0.85617818107E+01 -0.39542732336E+02  0.40659161325E+02  0.00000000000E+00 0. -1.
         11    1    3    3    0    0  0.39993751228E+01 -0.61829501815E+01  0.69341364547E+00  0.73962623713E+01  0.51100000000E-03 0. -1.
        -11    1    3    3    0    0 -0.92261894148E+01 -0.14974469300E+01  0.17317228600E+02  0.19678702322E+02  0.51100000000E-03 0.  1.
        -12    1    3    3    0    0  0.92561580650E+01 -0.88138469914E+00  0.21532090091E+02  0.23453873982E+02  0.00000000000E+00 0.  1.
</event>
<event>
 7    1  0.2838209E-011  0.5052886E+02  0.7816164E-02  0.1300439E+00
        -11   -1    0    0    0    0  0.00000000000E+00  0.00000000000E+00  0.45593999997E+02  0.45594000000E+02  0.51100000000E-03 0. -1.
         11   -1    0    0    0    0 -0.00000000000E+00 -0.00000000000E+00 -0.45593999997E+02  0.45594000000E+02  0.51100000000E-03 0.  1.
    9900012    2    1    2    0    0  0.13067692989E+02 -0.38372290006E+02  0.31573193532E+01  0.50528857045E+02  0.29999991474E+02 0.  0.
         12    1    1    2    0    0 -0.13067692989E+02  0.38372290006E+02 -0.31573193532E+01  0.40659142955E+02  0.00000000000E+00 0. -1.
         11    1    3    3    0    0  0.57041394270E+01 -0.20832137402E+02  0.23387433939E+01  0.21725212916E+02  0.51100000000E-03 0. -1.
        -11    1    3    3    0    0  0.93019756911E+00 -0.18466169609E+02 -0.59463899347E+01  0.19422261481E+02  0.51100000000E-03 0.  1.
         12    1    3    3    0    0  0.64333559928E+01  0.92601700499E+00  0.67649658940E+01  0.93813826471E+01  0.00000000000E+00 0. -1.
</event>
<event>
 7    1  0.2838209E-011  0.5052886E+02  0.7816164E-02  0.1300439E+00
        -11   -1    0    0    0    0  0.00000000000E+00  0.00000000000E+00  0.45593999997E+02  0.45594000000E+02  0.51100000000E-03 0.  1.
         11   -1    0    0    0    0 -0.00000000000E+00 -0.00000000000E+00 -0.45593999997E+02  0.45594000000E+02  0.51100000000E-03 0. -1.
    9900012    2    1    2    0    0  0.62210453939E+01  0.25514769098E+02  0.31039671276E+02  0.50528855385E+02  0.29999986427E+02 0.  0.
         12    1    1    2    0    0 -0.62210453939E+01 -0.25514769098E+02 -0.31039671276E+02  0.40659144615E+02  0.00000000000E+00 0. -1.
         11    1    3    3    0    0  0.12905827948E+02  0.17685507819E+01  0.67610835839E+01  0.14676526101E+02  0.51100000000E-03 0. -1.
        -11    1    3    3    0    0  0.18294174816E+01  0.32737321866E+01  0.14285932464E+01  0.40130997591E+01  0.51100000000E-03 0.  1.
        -12    1    3    3    0    0 -0.85142000356E+01  0.20472486129E+02  0.22849994446E+02  0.31839229525E+02  0.00000000000E+00 0.  1.
</event>
<event>
 7    1  0.2838209E-011  0.5052885E+02  0.7816164E-02  0.1300439E+00
        -11   -1    0    0    0    0  0.00000000000E+00  0.00000000000E+00  0.45593999997E+02  0.45594000000E+02  0.51100000000E-03 0.  1.
         11   -1    0    0    0    0 -0.00000000000E+00 -0.00000000000E+00 -0.45593999997E+02  0.45594000000E+02  0.51100000000E-03 0. -1.
    9900012    2    1    2    0    0  0.20223436142E+02  0.34378190267E+02  0.78942672549E+01  0.50528846161E+02  0.29999958391E+02 0.  0.
         12    1    1    2    0    0 -0.20223436142E+02 -0.34378190267E+02 -0.78942672549E+01  0.40659153839E+02  0.00000000000E+00 0. -1.
         11    1    3    3    0    0  0.68776787111E+01  0.14066191881E+01 -0.32434252155E+01  0.77331008906E+01  0.51100000000E-03 0. -1.
        -11    1    3    3    0    0  0.15396486076E+02  0.11093862710E+02  0.23173212731E+01  0.19117937950E+02  0.51100000000E-03 0.  1.
        -12    1    3    3    0    0 -0.20507286452E+01  0.21877708369E+02  0.88203711973E+01  0.23677807320E+02  0.00000000000E+00 0.  1.
</event>
<event>
 7    1  0.2838209E-011  0.5052885E+02  0.7816164E-02  0.1300439E+00
        -11   -1    0    0    0    0  0.00000000000E+00  0.00000000000E+00  0.45593999997E+02  0.45594000000E+02  0.51100000000E-03 0.  1.
         11   -1    0    0    0    0 -0.00000000000E+00 -0.00000000000E+00 -0.45593999997E+02  0.45594000000E+02  0.51100000000E-03 0. -1.
    9900012    2    1    2    0    0 -0.10500694722E+02  0.38535539173E+02  0.76101459882E+01  0.50528847390E+02  0.29999962127E+02 0.  0.
         12    1    1    2    0    0  0.10500694722E+02 -0.38535539173E+02 -0.76101459882E+01  0.40659152610E+02  0.00000000000E+00 0. -1.
         11    1    3    3    0    0 -0.16182346389E+02  0.22559432215E+02  0.88286840190E+01  0.29133176590E+02  0.51100000000E-03 0. -1.
        -11    1    3    3    0    0  0.21507511995E+01  0.14282691492E+02  0.38904901090E+01  0.14958506627E+02  0.51100000000E-03 0.  1.
         12    1    3    3    0    0  0.35309004668E+01  0.16934154662E+01 -0.51090281398E+01  0.64371641723E+01  0.00000000000E+00 0. -1.
</event>
<event>
 7    1  0.2838209E-011  0.5052886E+02  0.7816164E-02  0.1300439E+00
        -11   -1    0    0    0    0  0.00000000000E+00  0.00000000000E+00  0.45593999997E+02  0.45594000000E+02  0.51100000000E-03 0. -1.
         11   -1    0    0    0    0 -0.00000000000E+00 -0.00000000000E+00 -0.45593999997E+02  0.45594000000E+02  0.51100000000E-03 0.  1.
    9900012    2    1    2    0    0  0.24618971605E+02  0.29774887012E+02  0.12669965545E+02  0.50528859744E+02  0.29999999679E+02 0.  0.
         12    1    1    2    0    0 -0.24618971605E+02 -0.29774887012E+02 -0.12669965545E+02  0.40659140256E+02  0.00000000000E+00 0. -1.
         11    1    3    3    0    0 -0.24360187515E+01  0.46637879518E+01 -0.41057838747E+00  0.52776585993E+01  0.51100000000E-03 0. -1.
        -11    1    3    3    0    0  0.42441081844E+01  0.16658064097E+02 -0.86273176980E+00  0.17211852315E+02  0.51100000000E-03 0.  1.
         12    1    3    3    0    0  0.22810882172E+02  0.84530349628E+01  0.13943275702E+02  0.28039348830E+02  0.00000000000E+00 0. -1.
</event>
<event>
 7    1  0.2838209E-011  0.5052885E+02  0.7816164E-02  0.1300439E+00
        -11   -1    0    0    0    0  0.00000000000E+00  0.00000000000E+00  0.45593999997E+02  0.45594000000E+02  0.51100000000E-03 0.  1.
         11   -1    0    0    0    0 -0.00000000000E+00 -0.00000000000E+00 -0.45593999997E+02  0.45594000000E+02  0.51100000000E-03 0. -1.
    9900012    2    1    2    0    0 -0.33899830097E+02 -0.20877027070E+02  0.82533256236E+01  0.50528854365E+02  0.29999983328E+02 0.  0.
         12    1    1    2    0    0  0.33899830097E+02  0.20877027070E+02 -0.82533256236E+01  0.40659145635E+02  0.00000000000E+00 0. -1.
         11    1    3    3    0    0  0.28494639432E+01 -0.10845437876E+02  0.54805803278E+00  0.11226902305E+02  0.51100000000E-03 0. -1.
        -11    1    3    3    0    0 -0.55850355696E+01 -0.37133670423E+01  0.71919604242E+00  0.67452917145E+01  0.51100000000E-03 0.  1.
         12    1    3    3    0    0 -0.31164258471E+02 -0.63182221514E+01  0.69860715484E+01  0.32556660346E+02  0.00000000000E+00 0. -1.
</event>
<event>
 7    1  0.2838209E-011  0.5052886E+02  0.7816164E-02  0.1300439E+00
        -11   -1    0    0    0    0  0.00000000000E+00  0.00000000000E+00  0.45593999997E+02  0.45594000000E+02  0.51100000000E-03 0. -1.
         11   -1    0    0    0    0 -0.00000000000E+00 -0.00000000000E+00 -0.45593999997E+02  0.45594000000E+02  0.51100000000E-03 0.  1.
    9900012    2    1    2    0    0 -0.26992545409E+02  0.30298355385E+02  0.25647349607E+01  0.50528859427E+02  0.29999998713E+02 0.  0.
         12    1    1    2    0    0  0.26992545409E+02 -0.30298355385E+02 -0.25647349607E+01  0.40659140573E+02  0.00000000000E+00 0. -1.
         11    1    3    3    0    0 -0.10556777060E+02  0.16733121750E+02  0.47359308952E+00  0.19790583520E+02  0.51100000000E-03 0. -1.
        -11    1    3    3    0    0  0.81454873645E+00  0.67107614568E+01 -0.72884791069E+01  0.99408116835E+01  0.51100000000E-03 0.  1.
         12    1    3    3    0    0 -0.17250317086E+02  0.68544721785E+01  0.93796209780E+01  0.20797464223E+02  0.00000000000E+00 0. -1.
</event>
<event>
 7    1  0.2838209E-011  0.5052885E+02  0.7816164E-02  0.1300439E+00
        -11   -1    0    0    0    0  0.00000000000E+00  0.00000000000E+00  0.45593999997E+02  0.45594000000E+02  0.51100000000E-03 0.  1.
         11   -1    0    0    0    0 -0.00000000000E+00 -0.00000000000E+00 -0.45593999997E+02  0.45594000000E+02  0.51100000000E-03 0. -1.
    9900012    2    1    2    0    0  0.38059321877E+02 -0.12491068503E+02  0.69733365999E+01  0.50528853459E+02  0.29999980573E+02 0.  0.
         12    1    1    2    0    0 -0.38059321877E+02  0.12491068503E+02 -0.69733365999E+01  0.40659146541E+02  0.00000000000E+00 0. -1.
         11    1    3    3    0    0  0.20171719695E+02 -0.31207190906E+01  0.11656102118E+02  0.23505358537E+02  0.51100000000E-03 0. -1.
        -11    1    3    3    0    0  0.20871633669E+02 -0.89870168880E+01 -0.17012650981E+01  0.22787844737E+02  0.51100000000E-03 0.  1.
         12    1    3    3    0    0 -0.29840314865E+01 -0.38333252489E+00 -0.29815004200E+01  0.42356501852E+01  0.00000000000E+00 0. -1.
</event>
<event>
 7    1  0.2838209E-011  0.5052886E+02  0.7816164E-02  0.1300439E+00
        -11   -1    0    0    0    0  0.00000000000E+00  0.00000000000E+00  0.45593999997E+02  0.45594000000E+02  0.51100000000E-03 0.  1.
         11   -1    0    0    0    0 -0.00000000000E+00 -0.00000000000E+00 -0.45593999997E+02  0.45594000000E+02  0.51100000000E-03 0. -1.
    9900012    2    1    2    0    0 -0.18558278055E+02 -0.36151136236E+02  0.13606010926E+01  0.50528861164E+02  0.30000003995E+02 0.  0.
         12    1    1    2    0    0  0.18558278055E+02  0.36151136236E+02 -0.13606010926E+01  0.40659138836E+02  0.00000000000E+00 0. -1.
         11    1    3    3    0    0 -0.10794524617E+02 -0.12115111841E+02 -0.21032627731E+01  0.16362194571E+02  0.51100000000E-03 0. -1.
        -11    1    3    3    0    0 -0.97123580332E+01 -0.16321430591E+02  0.12024632376E+02  0.22479118736E+02  0.51100000000E-03 0.  1.
         12    1    3    3    0    0  0.19486045957E+01 -0.77145938046E+01 -0.85607685101E+01  0.11687547858E+02  0.00000000000E+00 0. -1.
</event>
<event>
 7    1  0.2838209E-011  0.5052886E+02  0.7816164E-02  0.1300439E+00
        -11   -1    0    0    0    0  0.00000000000E+00  0.00000000000E+00  0.45593999997E+02  0.45594000000E+02  0.51100000000E-03 0. -1.
         11   -1    0    0    0    0 -0.00000000000E+00 -0.00000000000E+00 -0.45593999997E+02  0.45594000000E+02  0.51100000000E-03 0.  1.
    9900012    2    1    2    0    0  0.10111773426E+02  0.20571677909E+02 -0.33581594297E+02  0.50528863642E+02  0.30000011527E+02 0.  0.
         12    1    1    2    0    0 -0.10111773426E+02 -0.20571677909E+02  0.33581594297E+02  0.40659136358E+02  0.00000000000E+00 0. -1.
         11    1    3    3    0    0 -0.53941922312E+01  0.24222742192E+01 -0.83333404219E+01  0.10218086174E+02  0.51100000000E-03 0. -1.
        -11    1    3    3    0    0  0.91019991184E+01  0.94018020691E+01 -0.26343279634E+02  0.29414429320E+02  0.51100000000E-03 0.  1.
        -12    1    3    3    0    0  0.64039665392E+01  0.87476016208E+01  0.10950257586E+01  0.10896348148E+02  0.00000000000E+00 0.  1.
</event>
<event>
 7    1  0.2838209E-011  0.5052881E+02  0.7816164E-02  0.1300439E+00
        -11   -1    0    0    0    0  0.00000000000E+00  0.00000000000E+00  0.45593999997E+02  0.45594000000E+02  0.51100000000E-03 0.  1.
         11   -1    0    0    0    0 -0.00000000000E+00 -0.00000000000E+00 -0.45593999997E+02  0.45594000000E+02  0.51100000000E-03 0. -1.
    9900012    2    1    2    0    0  0.28839947749E+02  0.81865255495E+01  0.27466492908E+02  0.50528806459E+02  0.29999837711E+02 0.  0.
         12    1    1    2    0    0 -0.28839947749E+02 -0.81865255495E+01 -0.27466492908E+02  0.40659193541E+02  0.00000000000E+00 0. -1.
         11    1    3    3    0    0  0.12649466740E+02  0.69570339903E+00  0.12787738712E+02  0.18000535372E+02  0.51100000000E-03 0. -1.
        -11    1    3    3    0    0  0.20487165288E+02  0.11153005265E+02  0.12602618208E+02  0.26513005374E+02  0.51100000000E-03 0.  1.
         12    1    3    3    0    0 -0.42966842791E+01 -0.36621831148E+01  0.20761359884E+01  0.60152657134E+01  0.00000000000E+00 0. -1.
</event>
<event>
 7    1  0.2838209E-011  0.5052883E+02  0.7816164E-02  0.1300439E+00
        -11   -1    0    0    0    0  0.00000000000E+00  0.00000000000E+00  0.45593999997E+02  0.45594000000E+02  0.51100000000E-03 0.  1.
         11   -1    0    0    0    0 -0.00000000000E+00 -0.00000000000E+00 -0.45593999997E+02  0.45594000000E+02  0.51100000000E-03 0. -1.
    9900012    2    1    2    0    0 -0.25149204498E+02 -0.19789187954E+02 -0.25081346335E+02  0.50528826610E+02  0.29999898964E+02 0.  0.
         12    1    1    2    0    0  0.25149204498E+02  0.19789187954E+02  0.25081346335E+02  0.40659173390E+02  0.00000000000E+00 0. -1.
         11    1    3    3    0    0 -0.80088754833E+01 -0.37844528318E+01 -0.22034598895E+01  0.91279464004E+01  0.51100000000E-03 0. -1.
        -11    1    3    3    0    0 -0.23356769911E+02 -0.11576445875E+02 -0.13650578115E+02  0.29426027304E+02  0.51100000000E-03 0.  1.
         12    1    3    3    0    0  0.62164408965E+01 -0.44282892473E+01 -0.92273083305E+01  0.11974852905E+02  0.00000000000E+00 0. -1.
</event>
<event>
 7    1  0.2838209E-011  0.5052886E+02  0.7816164E-02  0.1300439E+00
        -11   -1    0    0    0    0  0.00000000000E+00  0.00000000000E+00  0.45593999997E+02  0.45594000000E+02  0.51100000000E-03 0.  1.
         11   -1    0    0    0    0 -0.00000000000E+00 -0.00000000000E+00 -0.45593999997E+02  0.45594000000E+02  0.51100000000E-03 0. -1.
    9900012    2    1    2    0    0  0.13616733039E+02  0.28962329699E+02  0.25078545522E+02  0.50528863195E+02  0.30000010166E+02 0.  0.
         12    1    1    2    0    0 -0.13616733039E+02 -0.28962329699E+02 -0.25078545522E+02  0.40659136805E+02  0.00000000000E+00 0. -1.
         11    1    3    3    0    0  0.69569379367E+01 -0.18275495538E+01  0.27738121800E+00  0.71983236540E+01  0.51100000000E-03 0. -1.
        -11    1    3    3    0    0  0.33818001474E+01  0.28524532627E+00  0.72004312957E+01  0.79601600637E+01  0.51100000000E-03 0.  1.
         12    1    3    3    0    0  0.32779949550E+01  0.30504633926E+02  0.17600733008E+02  0.35370379477E+02  0.00000000000E+00 0. -1.
</event>
<event>
 7    1  0.2838209E-011  0.5052885E+02  0.7816164E-02  0.1300439E+00
        -11   -1    0    0    0    0  0.00000000000E+00  0.00000000000E+00  0.45593999997E+02  0.45594000000E+02  0.51100000000E-03 0.  1.
         11   -1    0    0    0    0 -0.00000000000E+00 -0.00000000000E+00 -0.45593999997E+02  0.45594000000E+02  0.51100000000E-03 0. -1.
    9900012    2    1    2    0    0  0.19563479537E+02  0.15682543425E+02  0.32007720597E+02  0.50528854932E+02  0.29999985052E+02 0.  0.
         12    1    1    2    0    0 -0.19563479537E+02 -0.15682543425E+02 -0.32007720597E+02  0.40659145068E+02  0.00000000000E+00 0. -1.
         11    1    3    3    0    0 -0.26963817458E+01  0.40816857059E+01  0.89779855417E+01  0.10224228938E+02  0.51100000000E-03 0. -1.
        -11    1    3    3    0    0  0.92324601223E+01  0.91295834082E+01  0.23704656091E+02  0.27027732679E+02  0.51100000000E-03 0.  1.
         12    1    3    3    0    0  0.13027401160E+02  0.24712743105E+01 -0.67492103627E+00  0.13276893315E+02  0.00000000000E+00 0. -1.
</event>
<event>
 7    1  0.2838209E-011  0.5052886E+02  0.7816164E-02  0.1300439E+00
        -11   -1    0    0    0    0  0.00000000000E+00  0.00000000000E+00  0.45593999997E+02  0.45594000000E+02  0.51100000000E-03 0. -1.
         11   -1    0    0    0    0 -0.00000000000E+00 -0.00000000000E+00 -0.45593999997E+02  0.45594000000E+02  0.51100000000E-03 0.  1.
    9900012    2    1    2    0    0 -0.24321793139E+02 -0.32541197934E+02 -0.16390684009E+01  0.50528859211E+02  0.29999998057E+02 0.  0.
         12    1    1    2    0    0  0.24321793139E+02  0.32541197934E+02  0.16390684009E+01  0.40659140789E+02  0.00000000000E+00 0. -1.
         11    1    3    3    0    0  0.38775416623E+01 -0.24508534046E+01  0.36415405992E+01  0.58568617835E+01  0.51100000000E-03 0. -1.
        -11    1    3    3    0    0 -0.67818473816E+01 -0.49029119613E+01 -0.78970671973E+01  0.11506331743E+02  0.51100000000E-03 0.  1.
         12    1    3    3    0    0 -0.21417487420E+02 -0.25187432568E+02  0.26164581972E+01  0.33165665684E+02  0.00000000000E+00 0. -1.
</event>
<event>
 7    1  0.2838209E-011  0.5052887E+02  0.7816164E-02  0.1300439E+00
        -11   -1    0    0    0    0  0.00000000000E+00  0.00000000000E+00  0.45593999997E+02  0.45594000000E+02  0.51100000000E-03 0. -1.
         11   -1    0    0    0    0 -0.00000000000E+00 -0.00000000000E+00 -0.45593999997E+02  0.45594000000E+02  0.51100000000E-03 0.  1.
    9900012    2    1    2    0    0  0.37288877755E+02 -0.13034048137E+02 -0.96342266820E+01  0.50528866477E+02  0.30000020143E+02 0.  0.
         12    1    1    2    0    0 -0.37288877755E+02  0.13034048137E+02  0.96342266820E+01  0.40659133523E+02  0.00000000000E+00 0. -1.
         11    1    3    3    0    0  0.46538650667E+01 -0.10828487322E+02 -0.54983603269E+01  0.13005635866E+02  0.51100000000E-03 0. -1.
        -11    1    3    3    0    0  0.68363084132E-01 -0.45814745225E+01 -0.12108778930E+01  0.47392834738E+01  0.51100000000E-03 0.  1.
        -12    1    3    3    0    0  0.32566649604E+02  0.23759137066E+01 -0.29249884621E+01  0.32783947137E+02  0.00000000000E+00 0.  1.
</event>
<event>
 7    1  0.2838209E-011  0.5052886E+02  0.7816164E-02  0.1300439E+00
        -11   -1    0    0    0    0  0.00000000000E+00  0.00000000000E+00  0.45593999997E+02  0.45594000000E+02  0.51100000000E-03 0.  1.
         11   -1    0    0    0    0 -0.00000000000E+00 -0.00000000000E+00 -0.45593999997E+02  0.45594000000E+02  0.51100000000E-03 0. -1.
    9900012    2    1    2    0    0 -0.19316108702E+02 -0.35300144762E+02  0.58269466261E+01  0.50528861020E+02  0.30000003556E+02 0.  0.
         12    1    1    2    0    0  0.19316108702E+02  0.35300144762E+02 -0.58269466261E+01  0.40659138980E+02  0.00000000000E+00 0. -1.
         11    1    3    3    0    0 -0.53103328801E+00 -0.49881367258E+01 -0.79806448838E+01  0.94262504407E+01  0.51100000000E-03 0. -1.
        -11    1    3    3    0    0 -0.16131007365E+01 -0.10152541609E+02 -0.16923519749E+01  0.10418265238E+02  0.51100000000E-03 0.  1.
        -12    1    3    3    0    0 -0.17171974678E+02 -0.20159466427E+02  0.15499943485E+02  0.30684345341E+02  0.00000000000E+00 0.  1.
</event>
<event>
 7    1  0.2838209E-011  0.5052883E+02  0.7816164E-02  0.1300439E+00
        -11   -1    0    0    0    0  0.00000000000E+00  0.00000000000E+00  0.45593999997E+02  0.45594000000E+02  0.51100000000E-03 0.  1.
         11   -1    0    0    0    0 -0.00000000000E+00 -0.00000000000E+00 -0.45593999997E+02  0.45594000000E+02  0.51100000000E-03 0. -1.
    9900012    2    1    2    0    0  0.35027251544E+02 -0.10668865807E+02  0.17675843896E+02  0.50528825073E+02  0.29999894292E+02 0.  0.
         12    1    1    2    0    0 -0.35027251544E+02  0.10668865807E+02 -0.17675843896E+02  0.40659174927E+02  0.00000000000E+00 0. -1.
         11    1    3    3    0    0  0.11589201852E+02 -0.12487010475E+02  0.16128472887E+02  0.23459809634E+02  0.51100000000E-03 0. -1.
        -11    1    3    3    0    0  0.13010487772E+01 -0.36488626467E+01  0.17858190805E+01  0.42656859454E+01  0.51100000000E-03 0.  1.
         12    1    3    3    0    0  0.22137000915E+02  0.54670073144E+01 -0.23844807210E+00  0.22803329493E+02  0.00000000000E+00 0. -1.
</event>
<event>
 7    1  0.2838209E-011  0.5052886E+02  0.7816164E-02  0.1300439E+00
        -11   -1    0    0    0    0  0.00000000000E+00  0.00000000000E+00  0.45593999997E+02  0.45594000000E+02  0.51100000000E-03 0.  1.
         11   -1    0    0    0    0 -0.00000000000E+00 -0.00000000000E+00 -0.45593999997E+02  0.45594000000E+02  0.51100000000E-03 0. -1.
    9900012    2    1    2    0    0  0.15219974128E+02  0.27651263504E+02  0.25630567072E+02  0.50528856449E+02  0.29999989663E+02 0.  0.
         12    1    1    2    0    0 -0.15219974128E+02 -0.27651263504E+02 -0.25630567072E+02  0.40659143551E+02  0.00000000000E+00 0. -1.
         11    1    3    3    0    0 -0.12500165860E+01 -0.33291108645E+01 -0.63771695175E+00  0.36127833848E+01  0.51100000000E-03 0. -1.
        -11    1    3    3    0    0 -0.24545270694E+01  0.75331916347E+01  0.18588051378E+01  0.81381101086E+01  0.51100000000E-03 0.  1.
        -12    1    3    3    0    0  0.18924517783E+02  0.23447182734E+02  0.24409478886E+02  0.38777962956E+02  0.00000000000E+00 0.  1.
</event>
<event>
 7    1  0.2838209E-011  0.5052886E+02  0.7816164E-02  0.1300439E+00
        -11   -1    0    0    0    0  0.00000000000E+00  0.00000000000E+00  0.45593999997E+02  0.45594000000E+02  0.51100000000E-03 0.  1.
         11   -1    0    0    0    0 -0.00000000000E+00 -0.00000000000E+00 -0.45593999997E+02  0.45594000000E+02  0.51100000000E-03 0. -1.
    9900012    2    1    2    0    0 -0.17703820055E+02  0.39940764387E+01  0.36383891470E+02  0.50528862655E+02  0.30000008526E+02 0.  0.
         12    1    1    2    0    0  0.17703820055E+02 -0.39940764387E+01 -0.36383891470E+02  0.40659137345E+02  0.00000000000E+00 0. -1.
         11    1    3    3    0    0 -0.50737535403E+01  0.90228306279E+01  0.58364392457E+01  0.11883537809E+02  0.51100000000E-03 0. -1.
        -11    1    3    3    0    0  0.35357044176E+00  0.63758476556E+01  0.85645411418E+01  0.10683061856E+02  0.51100000000E-03 0.  1.
        -12    1    3    3    0    0 -0.12983636957E+02 -0.11404601845E+02  0.21982911082E+02  0.27962262990E+02  0.00000000000E+00 0.  1.
</event>
<event>
 7    1  0.2838209E-011  0.5052886E+02  0.7816164E-02  0.1300439E+00
        -11   -1    0    0    0    0  0.00000000000E+00  0.00000000000E+00  0.45593999997E+02  0.45594000000E+02  0.51100000000E-03 0.  1.
         11   -1    0    0    0    0 -0.00000000000E+00 -0.00000000000E+00 -0.45593999997E+02  0.45594000000E+02  0.51100000000E-03 0. -1.
    9900012    2    1    2    0    0 -0.38224213763E+02  0.12191155859E+02  0.65917547402E+01  0.50528855524E+02  0.29999986851E+02 0.  0.
         12    1    1    2    0    0  0.38224213763E+02 -0.12191155859E+02 -0.65917547402E+01  0.40659144476E+02  0.00000000000E+00 0. -1.
         11    1    3    3    0    0  0.40972737542E+01 -0.29028653478E+00  0.87465406200E-01  0.41084752582E+01  0.51100000000E-03 0. -1.
        -11    1    3    3    0    0 -0.64233948656E+01 -0.26181619041E+01 -0.10664065111E-03  0.69364813579E+01  0.51100000000E-03 0.  1.
        -12    1    3    3    0    0 -0.35898092651E+02  0.15099604298E+02  0.65043959746E+01  0.39483898908E+02  0.00000000000E+00 0.  1.
</event>
<event>
 7    1  0.2838209E-011  0.5052886E+02  0.7816164E-02  0.1300439E+00
        -11   -1    0    0    0    0  0.00000000000E+00  0.00000000000E+00  0.45593999997E+02  0.45594000000E+02  0.51100000000E-03 0.  1.
         11   -1    0    0    0    0 -0.00000000000E+00 -0.00000000000E+00 -0.45593999997E+02  0.45594000000E+02  0.51100000000E-03 0. -1.
    9900012    2    1    2    0    0  0.96848050729E+01 -0.26693569715E+01  0.39398534369E+02  0.50528862942E+02  0.30000009397E+02 0.  0.
         12    1    1    2    0    0 -0.96848050729E+01  0.26693569715E+01 -0.39398534369E+02  0.40659137058E+02  0.00000000000E+00 0. -1.
         11    1    3    3    0    0 -0.20613336102E+01  0.31368581724E+01  0.19193652462E+02  0.19557230646E+02  0.51100000000E-03 0.  1.
        -11    1    3    3    0    0  0.93695038273E-01  0.43512842693E+01  0.13387005313E+02  0.14076731335E+02  0.51100000000E-03 0. -1.
         12    1    3    3    0    0  0.11652443645E+02 -0.10157499413E+02  0.68178765932E+01  0.16894900961E+02  0.00000000000E+00 0. -1.
</event>
<event>
 7    1  0.2838209E-011  0.5052887E+02  0.7816164E-02  0.1300439E+00
        -11   -1    0    0    0    0  0.00000000000E+00  0.00000000000E+00  0.45593999997E+02  0.45594000000E+02  0.51100000000E-03 0. -1.
         11   -1    0    0    0    0 -0.00000000000E+00 -0.00000000000E+00 -0.45593999997E+02  0.45594000000E+02  0.51100000000E-03 0.  1.
    9900012    2    1    2    0    0  0.26702656098E+02 -0.30097789033E+02  0.58528705135E+01  0.50528870144E+02  0.30000031290E+02 0.  0.
         12    1    1    2    0    0 -0.26702656098E+02  0.30097789033E+02 -0.58528705135E+01  0.40659129856E+02  0.00000000000E+00 0. -1.
         11    1    3    3    0    0  0.23726551878E+01  0.34844969040E+01 -0.66734263728E+00  0.42680859610E+01  0.51100000000E-03 0. -1.
        -11    1    3    3    0    0  0.19050692988E+02 -0.98656873639E+01  0.19988731476E+01  0.21546604944E+02  0.51100000000E-03 0.  1.
        -12    1    3    3    0    0  0.52793079222E+01 -0.23716598573E+02  0.45213400031E+01  0.24714179239E+02  0.00000000000E+00 0.  1.
</event>
<event>
 7    1  0.2838209E-011  0.5052887E+02  0.7816164E-02  0.1300439E+00
        -11   -1    0    0    0    0  0.00000000000E+00  0.00000000000E+00  0.45593999997E+02  0.45594000000E+02  0.51100000000E-03 0.  1.
         11   -1    0    0    0    0 -0.00000000000E+00 -0.00000000000E+00 -0.45593999997E+02  0.45594000000E+02  0.51100000000E-03 0. -1.
    9900012    2    1    2    0    0 -0.53642238858E+01  0.24261923166E+02  0.32183057081E+02  0.50528868472E+02  0.30000026206E+02 0.  0.
         12    1    1    2    0    0  0.53642238858E+01 -0.24261923166E+02 -0.32183057081E+02  0.40659131528E+02  0.00000000000E+00 0. -1.
         11    1    3    3    0    0  0.52185687461E+00  0.46850701320E+01  0.17583098557E+02  0.18204053720E+02  0.51100000000E-03 0. -1.
        -11    1    3    3    0    0 -0.96321879258E-01  0.29465910421E+01  0.14416203399E+02  0.14714570921E+02  0.51100000000E-03 0.  1.
        -12    1    3    3    0    0 -0.57897588811E+01  0.16630261992E+02  0.18375512450E+00  0.17610243830E+02  0.00000000000E+00 0.  1.
</event>
<event>
 7    1  0.2838209E-011  0.5052890E+02  0.7816164E-02  0.1300439E+00
        -11   -1    0    0    0    0  0.00000000000E+00  0.00000000000E+00  0.45593999997E+02  0.45594000000E+02  0.51100000000E-03 0.  1.
         11   -1    0    0    0    0 -0.00000000000E+00 -0.00000000000E+00 -0.45593999997E+02  0.45594000000E+02  0.51100000000E-03 0. -1.
    9900012    2    1    2    0    0  0.96320012581E+01  0.22978520419E+02  0.32130585722E+02  0.50528900309E+02  0.30000122979E+02 0.  0.
         12    1    1    2    0    0 -0.96320012581E+01 -0.22978520419E+02 -0.32130585722E+02  0.40659099691E+02  0.00000000000E+00 0. -1.
         11    1    3    3    0    0  0.16923584171E+02  0.24120696893E+02  0.30183532886E+02  0.42181291795E+02  0.51100000000E-03 0.  1.
        -11    1    3    3    0    0 -0.25554602651E+01 -0.34752869340E+00 -0.93920692209E+00  0.27446790819E+01  0.51100000000E-03 0. -1.
        -12    1    3    3    0    0 -0.47361226475E+01 -0.79464778084E+00  0.28862597582E+01  0.56029294319E+01  0.00000000000E+00 0.  1.
</event>
<event>
 7    1  0.2838209E-011  0.5052886E+02  0.7816164E-02  0.1300439E+00
        -11   -1    0    0    0    0  0.00000000000E+00  0.00000000000E+00  0.45593999997E+02  0.45594000000E+02  0.51100000000E-03 0.  1.
         11   -1    0    0    0    0 -0.00000000000E+00 -0.00000000000E+00 -0.45593999997E+02  0.45594000000E+02  0.51100000000E-03 0. -1.
    9900012    2    1    2    0    0  0.85173807038E+01  0.26246214394E+02  0.29862283433E+02  0.50528861840E+02  0.30000006049E+02 0.  0.
         12    1    1    2    0    0 -0.85173807038E+01 -0.26246214394E+02 -0.29862283433E+02  0.40659138160E+02  0.00000000000E+00 0. -1.
         11    1    3    3    0    0 -0.74999529352E+00  0.71431331872E+01  0.12147316634E+01  0.72843955099E+01  0.51100000000E-03 0. -1.
        -11    1    3    3    0    0  0.12991660705E+02  0.12603700160E+02  0.30555550763E+02  0.35514478573E+02  0.51100000000E-03 0.  1.
         12    1    3    3    0    0 -0.37242847075E+01  0.64993810467E+01 -0.19079989934E+01  0.77299877575E+01  0.00000000000E+00 0. -1.
</event>
<event>
 7    1  0.2838209E-011  0.5052886E+02  0.7816164E-02  0.1300439E+00
        -11   -1    0    0    0    0  0.00000000000E+00  0.00000000000E+00  0.45593999997E+02  0.45594000000E+02  0.51100000000E-03 0.  1.
         11   -1    0    0    0    0 -0.00000000000E+00 -0.00000000000E+00 -0.45593999997E+02  0.45594000000E+02  0.51100000000E-03 0. -1.
    9900012    2    1    2    0    0 -0.20257322867E+02 -0.35215011226E+02  0.16460359791E+01  0.50528861054E+02  0.30000003661E+02 0.  0.
         12    1    1    2    0    0  0.20257322867E+02  0.35215011226E+02 -0.16460359791E+01  0.40659138946E+02  0.00000000000E+00 0. -1.
         11    1    3    3    0    0 -0.13301649294E+02 -0.47047328761E+01  0.46695576879E+01  0.14861801864E+02  0.51100000000E-03 0. -1.
        -11    1    3    3    0    0 -0.11534197207E+02 -0.27485900415E+02 -0.40588803779E+01  0.30083000798E+02  0.51100000000E-03 0.  1.
         12    1    3    3    0    0  0.45785236342E+01 -0.30243779344E+01  0.10353586691E+01  0.55840583927E+01  0.00000000000E+00 0. -1.
</event>
<event>
 7    1  0.2838209E-011  0.5052885E+02  0.7816164E-02  0.1300439E+00
        -11   -1    0    0    0    0  0.00000000000E+00  0.00000000000E+00  0.45593999997E+02  0.45594000000E+02  0.51100000000E-03 0.  1.
         11   -1    0    0    0    0 -0.00000000000E+00 -0.00000000000E+00 -0.45593999997E+02  0.45594000000E+02  0.51100000000E-03 0. -1.
    9900012    2    1    2    0    0  0.29199080750E+01 -0.10280208897E+02  0.39229554696E+02  0.50528849495E+02  0.29999968524E+02 0.  0.
         12    1    1    2    0    0 -0.29199080750E+01  0.10280208897E+02 -0.39229554696E+02  0.40659150505E+02  0.00000000000E+00 0. -1.
         11    1    3    3    0    0  0.14262492831E+01 -0.11322934952E+01  0.64633413552E+01  0.67149875139E+01  0.51100000000E-03 0. -1.
        -11    1    3    3    0    0  0.12294882627E+02 -0.12705799881E+02  0.20964954343E+02  0.27425003196E+02  0.51100000000E-03 0.  1.
         12    1    3    3    0    0 -0.10801223836E+02  0.35578844795E+01  0.11801258998E+02  0.16388858785E+02  0.00000000000E+00 0. -1.
</event>
<event>
 7    1  0.2838209E-011  0.5052886E+02  0.7816164E-02  0.1300439E+00
        -11   -1    0    0    0    0  0.00000000000E+00  0.00000000000E+00  0.45593999997E+02  0.45594000000E+02  0.51100000000E-03 0.  1.
         11   -1    0    0    0    0 -0.00000000000E+00 -0.00000000000E+00 -0.45593999997E+02  0.45594000000E+02  0.51100000000E-03 0. -1.
    9900012    2    1    2    0    0  0.91139344703E+01  0.17078514153E+01  0.39587687169E+02  0.50528861625E+02  0.30000005397E+02 0.  0.
         12    1    1    2    0    0 -0.91139344703E+01 -0.17078514153E+01 -0.39587687169E+02  0.40659138375E+02  0.00000000000E+00 0. -1.
         11    1    3    3    0    0  0.12358430691E+02  0.82884873277E+01  0.28055286044E+02  0.31757344137E+02  0.51100000000E-03 0. -1.
        -11    1    3    3    0    0  0.41277814954E+01 -0.74825164331E+00  0.73926153221E+01  0.84999542444E+01  0.51100000000E-03 0.  1.
         12    1    3    3    0    0 -0.73722777165E+01 -0.58323842690E+01  0.41397858025E+01  0.10271563244E+02  0.00000000000E+00 0. -1.
</event>
<event>
 7    1  0.2838209E-011  0.5052885E+02  0.7816164E-02  0.1300439E+00
        -11   -1    0    0    0    0  0.00000000000E+00  0.00000000000E+00  0.45593999997E+02  0.45594000000E+02  0.51100000000E-03 0.  1.
         11   -1    0    0    0    0 -0.00000000000E+00 -0.00000000000E+00 -0.45593999997E+02  0.45594000000E+02  0.51100000000E-03 0. -1.
    9900012    2    1    2    0    0 -0.19214800777E+02 -0.28766443122E+02  0.21364683862E+02  0.50528849304E+02  0.29999967943E+02 0.  0.
         12    1    1    2    0    0  0.19214800777E+02  0.28766443122E+02 -0.21364683862E+02  0.40659150696E+02  0.00000000000E+00 0. -1.
         11    1    3    3    0    0 -0.16716437012E+02 -0.17484775447E+02  0.11657112894E+01  0.24218082539E+02  0.51100000000E-03 0.  1.
        -11    1    3    3    0    0  0.49166854740E+01 -0.30763284447E+01  0.68311991781E+01  0.89611871547E+01  0.51100000000E-03 0. -1.
        -12    1    3    3    0    0 -0.74150492397E+01 -0.82053392307E+01  0.13367773394E+02  0.17349579610E+02  0.00000000000E+00 0.  1.
</event>
<event>
 7    1  0.2838209E-011  0.5052886E+02  0.7816164E-02  0.1300439E+00
        -11   -1    0    0    0    0  0.00000000000E+00  0.00000000000E+00  0.45593999997E+02  0.45594000000E+02  0.51100000000E-03 0.  1.
         11   -1    0    0    0    0 -0.00000000000E+00 -0.00000000000E+00 -0.45593999997E+02  0.45594000000E+02  0.51100000000E-03 0. -1.
    9900012    2    1    2    0    0  0.36135887525E+02 -0.14580731719E+02  0.11608871896E+02  0.50528855748E+02  0.29999987530E+02 0.  0.
         12    1    1    2    0    0 -0.36135887525E+02  0.14580731719E+02 -0.11608871896E+02  0.40659144252E+02  0.00000000000E+00 0. -1.
         11    1    3    3    0    0  0.80103175871E+01  0.47459229357E+01 -0.24118210124E+01  0.96179963201E+01  0.51100000000E-03 0. -1.
        -11    1    3    3    0    0  0.14360571268E+02 -0.15712718246E+00  0.22431443213E+01  0.14535556157E+02  0.51100000000E-03 0.  1.
        -12    1    3    3    0    0  0.13764998669E+02 -0.19169527472E+02  0.11777548587E+02  0.26375303270E+02  0.00000000000E+00 0.  1.
</event>
<event>
 7    1  0.2838209E-011  0.5052879E+02  0.7816164E-02  0.1300439E+00
        -11   -1    0    0    0    0  0.00000000000E+00  0.00000000000E+00  0.45593999997E+02  0.45594000000E+02  0.51100000000E-03 0.  1.
         11   -1    0    0    0    0 -0.00000000000E+00 -0.00000000000E+00 -0.45593999997E+02  0.45594000000E+02  0.51100000000E-03 0. -1.
    9900012    2    1    2    0    0 -0.10552363363E+01 -0.20885678049E+02  0.34868983143E+02  0.50528793703E+02  0.29999798940E+02 0.  0.
         12    1    1    2    0    0  0.10552363363E+01  0.20885678049E+02 -0.34868983143E+02  0.40659206297E+02  0.00000000000E+00 0. -1.
         11    1    3    3    0    0 -0.17903188699E+01  0.59796318805E+01  0.76808756827E+01  0.98973274472E+01  0.51100000000E-03 0. -1.
        -11    1    3    3    0    0  0.22231910832E+01 -0.16326143982E+02  0.71899747833E+01  0.17977243770E+02  0.51100000000E-03 0.  1.
        -12    1    3    3    0    0 -0.14881085495E+01 -0.10539165948E+02  0.19998132677E+02  0.22654222487E+02  0.00000000000E+00 0.  1.
</event>
<event>
 7    1  0.2838209E-011  0.5052886E+02  0.7816164E-02  0.1300439E+00
        -11   -1    0    0    0    0  0.00000000000E+00  0.00000000000E+00  0.45593999997E+02  0.45594000000E+02  0.51100000000E-03 0. -1.
         11   -1    0    0    0    0 -0.00000000000E+00 -0.00000000000E+00 -0.45593999997E+02  0.45594000000E+02  0.51100000000E-03 0.  1.
    9900012    2    1    2    0    0 -0.82552425935E+01  0.23604140303E+02 -0.32060278483E+02  0.50528856795E+02  0.29999990715E+02 0.  0.
         12    1    1    2    0    0  0.82552425935E+01 -0.23604140303E+02  0.32060278483E+02  0.40659143205E+02  0.00000000000E+00 0. -1.
         11    1    3    3    0    0  0.36751846856E+01  0.15679356662E+02 -0.99216003244E+01  0.18915267935E+02  0.51100000000E-03 0.  1.
        -11    1    3    3    0    0 -0.63045856433E+01 -0.47142380860E+01 -0.12426879075E+02  0.14710512046E+02  0.51100000000E-03 0. -1.
         12    1    3    3    0    0 -0.56258416359E+01  0.12639021727E+02 -0.97117990840E+01  0.16903076814E+02  0.00000000000E+00 0. -1.
</event>
<event>
 7    1  0.2838209E-011  0.5052886E+02  0.7816164E-02  0.1300439E+00
        -11   -1    0    0    0    0  0.00000000000E+00  0.00000000000E+00  0.45593999997E+02  0.45594000000E+02  0.51100000000E-03 0. -1.
         11   -1    0    0    0    0 -0.00000000000E+00 -0.00000000000E+00 -0.45593999997E+02  0.45594000000E+02  0.51100000000E-03 0.  1.
    9900012    2    1    2    0    0 -0.91712886004E+01  0.78045956666E+01 -0.38834794529E+02  0.50528861861E+02  0.30000006113E+02 0.  0.
         12    1    1    2    0    0  0.91712886004E+01 -0.78045956666E+01  0.38834794529E+02  0.40659138139E+02  0.00000000000E+00 0. -1.
         11    1    3    3    0    0 -0.13690638508E+01 -0.36075213133E+01  0.28400218318E+01  0.47910614816E+01  0.51100000000E-03 0. -1.
        -11    1    3    3    0    0  0.19384891310E+01 -0.49580735383E+00 -0.97179535536E+00  0.22243991361E+01  0.51100000000E-03 0.  1.
        -12    1    3    3    0    0 -0.97407138805E+01  0.11907924334E+02 -0.40703021005E+02  0.43513401244E+02  0.00000000000E+00 0.  1.
</event>
<event>
 7    1  0.2838209E-011  0.5052886E+02  0.7816164E-02  0.1300439E+00
        -11   -1    0    0    0    0  0.00000000000E+00  0.00000000000E+00  0.45593999997E+02  0.45594000000E+02  0.51100000000E-03 0.  1.
         11   -1    0    0    0    0 -0.00000000000E+00 -0.00000000000E+00 -0.45593999997E+02  0.45594000000E+02  0.51100000000E-03 0. -1.
    9900012    2    1    2    0    0  0.33240168849E+02 -0.21022748482E+02 -0.10310227344E+02  0.50528861215E+02  0.30000004149E+02 0.  0.
         12    1    1    2    0    0 -0.33240168849E+02  0.21022748482E+02  0.10310227344E+02  0.40659138785E+02  0.00000000000E+00 0. -1.
         11    1    3    3    0    0  0.86596693740E+01 -0.28615685465E+01 -0.13259851949E+02  0.16093542872E+02  0.51100000000E-03 0. -1.
        -11    1    3    3    0    0  0.30289742031E+00  0.15947712237E-01  0.40748113578E+01  0.40860848058E+01  0.51100000000E-03 0.  1.
        -12    1    3    3    0    0  0.24277602054E+02 -0.18177127648E+02 -0.11251867528E+01  0.30349233537E+02  0.00000000000E+00 0.  1.
</event>
<event>
 7    1  0.2838209E-011  0.5052888E+02  0.7816164E-02  0.1300439E+00
        -11   -1    0    0    0    0  0.00000000000E+00  0.00000000000E+00  0.45593999997E+02  0.45594000000E+02  0.51100000000E-03 0. -1.
         11   -1    0    0    0    0 -0.00000000000E+00 -0.00000000000E+00 -0.45593999997E+02  0.45594000000E+02  0.51100000000E-03 0.  1.
    9900012    2    1    2    0    0 -0.25670100293E+01 -0.30889198660E+02 -0.26314098767E+02  0.50528881364E+02  0.30000065394E+02 0.  0.
         12    1    1    2    0    0  0.25670100293E+01  0.30889198660E+02  0.26314098767E+02  0.40659118636E+02  0.00000000000E+00 0. -1.
         11    1    3    3    0    0  0.98108147603E+00 -0.96558031362E+01 -0.90704288091E+01  0.13284191135E+02  0.51100000000E-03 0. -1.
        -11    1    3    3    0    0 -0.14211911189E+02 -0.14127021116E+02 -0.12280601522E+02  0.23502432199E+02  0.51100000000E-03 0.  1.
         12    1    3    3    0    0  0.10663819684E+02 -0.71063744072E+01 -0.49630684367E+01  0.13742258030E+02  0.00000000000E+00 0. -1.
</event>
<event>
 7    1  0.2838209E-011  0.5052886E+02  0.7816164E-02  0.1300439E+00
        -11   -1    0    0    0    0  0.00000000000E+00  0.00000000000E+00  0.45593999997E+02  0.45594000000E+02  0.51100000000E-03 0.  1.
         11   -1    0    0    0    0 -0.00000000000E+00 -0.00000000000E+00 -0.45593999997E+02  0.45594000000E+02  0.51100000000E-03 0. -1.
    9900012    2    1    2    0    0  0.83790087157E+00  0.26319898542E+02  0.30979455461E+02  0.50528858373E+02  0.29999995512E+02 0.  0.
         12    1    1    2    0    0 -0.83790087157E+00 -0.26319898542E+02 -0.30979455461E+02  0.40659141627E+02  0.00000000000E+00 0. -1.
         11    1    3    3    0    0 -0.28201011625E+01 -0.22230237606E+01  0.17640922346E+00  0.35952643410E+01  0.51100000000E-03 0. -1.
        -11    1    3    3    0    0 -0.23310057849E+01  0.25690328346E+01  0.16145488998E+02  0.16513943591E+02  0.51100000000E-03 0.  1.
         12    1    3    3    0    0  0.59890078190E+01  0.25973889468E+02  0.14657557240E+02  0.30419650441E+02  0.00000000000E+00 0. -1.
</event>
<event>
 7    1  0.2838209E-011  0.5052886E+02  0.7816164E-02  0.1300439E+00
        -11   -1    0    0    0    0  0.00000000000E+00  0.00000000000E+00  0.45593999997E+02  0.45594000000E+02  0.51100000000E-03 0. -1.
         11   -1    0    0    0    0 -0.00000000000E+00 -0.00000000000E+00 -0.45593999997E+02  0.45594000000E+02  0.51100000000E-03 0.  1.
    9900012    2    1    2    0    0  0.69307558521E+01 -0.18780946862E+02 -0.35389358113E+02  0.50528855772E+02  0.29999987604E+02 0.  0.
         12    1    1    2    0    0 -0.69307558521E+01  0.18780946862E+02  0.35389358113E+02  0.40659144228E+02  0.00000000000E+00 0. -1.
         11    1    3    3    0    0  0.10179480464E+02 -0.16575576837E+02 -0.18234350218E+02  0.26662016018E+02  0.51100000000E-03 0. -1.
        -11    1    3    3    0    0  0.21973780009E+01 -0.64997519053E+01 -0.15175305933E+02  0.16654283393E+02  0.51100000000E-03 0.  1.
        -12    1    3    3    0    0 -0.54461026129E+01  0.42943818804E+01 -0.19797019620E+01  0.72125563612E+01  0.00000000000E+00 0.  1.
</event>
<event>
 7    1  0.2838209E-011  0.5052889E+02  0.7816164E-02  0.1300439E+00
        -11   -1    0    0    0    0  0.00000000000E+00  0.00000000000E+00  0.45593999997E+02  0.45594000000E+02  0.51100000000E-03 0.  1.
         11   -1    0    0    0    0 -0.00000000000E+00 -0.00000000000E+00 -0.45593999997E+02  0.45594000000E+02  0.51100000000E-03 0. -1.
    9900012    2    1    2    0    0 -0.10766301071E+02  0.33094691845E+02  0.21023592305E+02  0.50528889084E+02  0.30000088859E+02 0.  0.
         12    1    1    2    0    0  0.10766301071E+02 -0.33094691845E+02 -0.21023592305E+02  0.40659110916E+02  0.00000000000E+00 0. -1.
         11    1    3    3    0    0  0.70572463760E+01  0.92496937739E+01  0.10043403430E+02  0.15369824789E+02  0.51100000000E-03 0. -1.
        -11    1    3    3    0    0 -0.16529494988E+01  0.32927623018E+01  0.80389488814E+01  0.88430325681E+01  0.51100000000E-03 0.  1.
         12    1    3    3    0    0 -0.16170597948E+02  0.20552235770E+02  0.29412399933E+01  0.26316031727E+02  0.00000000000E+00 0. -1.
</event>
<event>
 7    1  0.2838209E-011  0.5052886E+02  0.7816164E-02  0.1300439E+00
        -11   -1    0    0    0    0  0.00000000000E+00  0.00000000000E+00  0.45593999997E+02  0.45594000000E+02  0.51100000000E-03 0.  1.
         11   -1    0    0    0    0 -0.00000000000E+00 -0.00000000000E+00 -0.45593999997E+02  0.45594000000E+02  0.51100000000E-03 0. -1.
    9900012    2    1    2    0    0 -0.64635002935E+01 -0.13963226496E+02  0.37635315110E+02  0.50528862359E+02  0.30000007628E+02 0.  0.
         12    1    1    2    0    0  0.64635002935E+01  0.13963226496E+02 -0.37635315110E+02  0.40659137641E+02  0.00000000000E+00 0. -1.
         11    1    3    3    0    0  0.11595641996E+01  0.67758268636E+01  0.97264364303E+01  0.11910498928E+02  0.51100000000E-03 0. -1.
        -11    1    3    3    0    0 -0.28873300099E+01 -0.25777964283E+01 -0.11388730669E+01  0.40346921983E+01  0.51100000000E-03 0.  1.
        -12    1    3    3    0    0 -0.47357344833E+01 -0.18161256931E+02  0.29047751747E+02  0.34583671233E+02  0.00000000000E+00 0.  1.
</event>
<event>
 7    1  0.2838209E-011  0.5052888E+02  0.7816164E-02  0.1300439E+00
        -11   -1    0    0    0    0  0.00000000000E+00  0.00000000000E+00  0.45593999997E+02  0.45594000000E+02  0.51100000000E-03 0.  1.
         11   -1    0    0    0    0 -0.00000000000E+00 -0.00000000000E+00 -0.45593999997E+02  0.45594000000E+02  0.51100000000E-03 0. -1.
    9900012    2    1    2    0    0  0.27297339938E+02  0.23380244773E+02  0.19010089745E+02  0.50528878939E+02  0.30000058024E+02 0.  0.
         12    1    1    2    0    0 -0.27297339938E+02 -0.23380244773E+02 -0.19010089745E+02  0.40659121061E+02  0.00000000000E+00 0. -1.
         11    1    3    3    0    0  0.97013777680E+01  0.14571266365E+02  0.53578430449E+01  0.18306966336E+02  0.51100000000E-03 0. -1.
        -11    1    3    3    0    0  0.16730975862E+02  0.14441415361E+02  0.64214135033E+01  0.23015529162E+02  0.51100000000E-03 0.  1.
         12    1    3    3    0    0  0.86498630736E+00 -0.56324369537E+01  0.72308331967E+01  0.92063834413E+01  0.00000000000E+00 0. -1.
</event>
<event>
 7    1  0.2838209E-011  0.5052885E+02  0.7816164E-02  0.1300439E+00
        -11   -1    0    0    0    0  0.00000000000E+00  0.00000000000E+00  0.45593999997E+02  0.45594000000E+02  0.51100000000E-03 0.  1.
         11   -1    0    0    0    0 -0.00000000000E+00 -0.00000000000E+00 -0.45593999997E+02  0.45594000000E+02  0.51100000000E-03 0. -1.
    9900012    2    1    2    0    0 -0.40394174205E+02  0.31272822734E+01 -0.34200858798E+01  0.50528853532E+02  0.29999980795E+02 0.  0.
         12    1    1    2    0    0  0.40394174205E+02 -0.31272822734E+01  0.34200858798E+01  0.40659146468E+02  0.00000000000E+00 0. -1.
         11    1    3    3    0    0 -0.16310559589E+02 -0.13068688464E+01 -0.10871226476E+01  0.16398905336E+02  0.51100000000E-03 0. -1.
        -11    1    3    3    0    0 -0.19433715796E+02 -0.27463206281E+01 -0.10537673711E+02  0.22276762650E+02  0.51100000000E-03 0.  1.
         12    1    3    3    0    0 -0.46498988195E+01  0.71804717480E+01  0.82047104789E+01  0.11853185546E+02  0.00000000000E+00 0. -1.
</event>
<event>
 7    1  0.2838209E-011  0.5052885E+02  0.7816164E-02  0.1300439E+00
        -11   -1    0    0    0    0  0.00000000000E+00  0.00000000000E+00  0.45593999997E+02  0.45594000000E+02  0.51100000000E-03 0.  1.
         11   -1    0    0    0    0 -0.00000000000E+00 -0.00000000000E+00 -0.45593999997E+02  0.45594000000E+02  0.51100000000E-03 0. -1.
    9900012    2    1    2    0    0  0.11627085942E+02  0.33685352137E+02  0.19577390876E+02  0.50528852080E+02  0.29999976382E+02 0.  0.
         12    1    1    2    0    0 -0.11627085942E+02 -0.33685352137E+02 -0.19577390876E+02  0.40659147920E+02  0.00000000000E+00 0. -1.
         11    1    3    3    0    0  0.62797997708E+01  0.58965497302E+01  0.33618426524E+01  0.92470087143E+01  0.51100000000E-03 0. -1.
        -11    1    3    3    0    0  0.70947186065E+01  0.11129989951E+02  0.20138452408E+02  0.24078392265E+02  0.51100000000E-03 0.  1.
         12    1    3    3    0    0 -0.17474324356E+01  0.16658812455E+02 -0.39229041841E+01  0.17203451100E+02  0.00000000000E+00 0. -1.
</event>
<event>
 7    1  0.2838209E-011  0.5052886E+02  0.7816164E-02  0.1300439E+00
        -11   -1    0    0    0    0  0.00000000000E+00  0.00000000000E+00  0.45593999997E+02  0.45594000000E+02  0.51100000000E-03 0. -1.
         11   -1    0    0    0    0 -0.00000000000E+00 -0.00000000000E+00 -0.45593999997E+02  0.45594000000E+02  0.51100000000E-03 0.  1.
    9900012    2    1    2    0    0 -0.40584701144E+02  0.24419772577E+01 -0.29016468274E+00  0.50528863076E+02  0.30000009804E+02 0.  0.
         12    1    1    2    0    0  0.40584701144E+02 -0.24419772577E+01  0.29016468274E+00  0.40659136924E+02  0.00000000000E+00 0. -1.
         11    1    3    3    0    0 -0.88715887590E+00  0.27476487325E+01 -0.35320975361E+00  0.29088454444E+01  0.51100000000E-03 0. -1.
        -11    1    3    3    0    0 -0.35716378317E+02  0.94759995771E+01 -0.12795814556E+01  0.36974201506E+02  0.51100000000E-03 0.  1.
         12    1    3    3    0    0 -0.39811639515E+01 -0.97816710519E+01  0.13426265264E+01  0.10645816125E+02  0.00000000000E+00 0. -1.
</event>
<event>
 7    1  0.2838209E-011  0.5052887E+02  0.7816164E-02  0.1300439E+00
        -11   -1    0    0    0    0  0.00000000000E+00  0.00000000000E+00  0.45593999997E+02  0.45594000000E+02  0.51100000000E-03 0. -1.
         11   -1    0    0    0    0 -0.00000000000E+00 -0.00000000000E+00 -0.45593999997E+02  0.45594000000E+02  0.51100000000E-03 0.  1.
    9900012    2    1    2    0    0 -0.11906379705E+02 -0.38788920587E+02 -0.26120477656E+01  0.50528867797E+02  0.30000024155E+02 0.  0.
         12    1    1    2    0    0  0.11906379705E+02  0.38788920587E+02  0.26120477656E+01  0.40659132203E+02  0.00000000000E+00 0. -1.
         11    1    3    3    0    0 -0.39270370247E+01 -0.12196256457E+01  0.88099234505E+01  0.97223380919E+01  0.51100000000E-03 0. -1.
        -11    1    3    3    0    0 -0.18967628497E+01 -0.53941590310E+01  0.96137681589E+00  0.57981813185E+01  0.51100000000E-03 0.  1.
        -12    1    3    3    0    0 -0.60825798306E+01 -0.32175135910E+02 -0.12383348032E+02  0.35008348386E+02  0.00000000000E+00 0.  1.
</event>
<event>
 7    1  0.2838209E-011  0.5052886E+02  0.7816164E-02  0.1300439E+00
        -11   -1    0    0    0    0  0.00000000000E+00  0.00000000000E+00  0.45593999997E+02  0.45594000000E+02  0.51100000000E-03 0.  1.
         11   -1    0    0    0    0 -0.00000000000E+00 -0.00000000000E+00 -0.45593999997E+02  0.45594000000E+02  0.51100000000E-03 0. -1.
    9900012    2    1    2    0    0 -0.14953358472E+01 -0.14309853092E+02  0.38028380235E+02  0.50528860460E+02  0.30000001854E+02 0.  0.
         12    1    1    2    0    0  0.14953358472E+01  0.14309853092E+02 -0.38028380235E+02  0.40659139540E+02  0.00000000000E+00 0. -1.
         11    1    3    3    0    0  0.34750429619E+01 -0.12535114140E+02  0.94679857982E+01  0.16088746546E+02  0.51100000000E-03 0. -1.
        -11    1    3    3    0    0  0.29276181013E+01 -0.21537399731E+01  0.25815577624E+02  0.26070166704E+02  0.51100000000E-03 0.  1.
        -12    1    3    3    0    0 -0.78979969104E+01  0.37900102085E+00  0.27448168128E+01  0.83699472104E+01  0.00000000000E+00 0.  1.
</event>
<event>
 7    1  0.2838209E-011  0.5052886E+02  0.7816164E-02  0.1300439E+00
        -11   -1    0    0    0    0  0.00000000000E+00  0.00000000000E+00  0.45593999997E+02  0.45594000000E+02  0.51100000000E-03 0. -1.
         11   -1    0    0    0    0 -0.00000000000E+00 -0.00000000000E+00 -0.45593999997E+02  0.45594000000E+02  0.51100000000E-03 0.  1.
    9900012    2    1    2    0    0 -0.38242657577E+02  0.33493920348E+01  0.13395769841E+02  0.50528856684E+02  0.29999990378E+02 0.  0.
         12    1    1    2    0    0  0.38242657577E+02 -0.33493920348E+01 -0.13395769841E+02  0.40659143316E+02  0.00000000000E+00 0. -1.
         11    1    3    3    0    0 -0.21847683558E+01 -0.19618831672E+01 -0.57547073206E+00  0.29922174310E+01  0.51100000000E-03 0. -1.
        -11    1    3    3    0    0 -0.22833730726E+02 -0.58730536022E+01  0.18109890985E+02  0.29729449528E+02  0.51100000000E-03 0.  1.
         12    1    3    3    0    0 -0.13224158495E+02  0.11184328804E+02 -0.41386504118E+01  0.17807189726E+02  0.00000000000E+00 0. -1.
</event>
<event>
 7    1  0.2963965E-011  0.5052886E+02  0.7816164E-02  0.1300439E+00
        -11   -1    0    0    0    0  0.00000000000E+00  0.00000000000E+00  0.45593999997E+02  0.45594000000E+02  0.51100000000E-03 0.  1.
         11   -1    0    0    0    0 -0.00000000000E+00 -0.00000000000E+00 -0.45593999997E+02  0.45594000000E+02  0.51100000000E-03 0. -1.
    9900012    2    1    2    0    0 -0.37730380430E+02 -0.15011507622E+02  0.20587944792E+01  0.50528860767E+02  0.30000002788E+02 0.  0.
         12    1    1    2    0    0  0.37730380430E+02  0.15011507622E+02 -0.20587944792E+01  0.40659139233E+02  0.00000000000E+00 0. -1.
         11    1    3    3    0    0 -0.19334029024E+01  0.24697680406E+01 -0.25751070651E+01  0.40581988141E+01  0.51100000000E-03 0. -1.
        -11    1    3    3    0    0 -0.31853887925E+01 -0.72680301935E+01 -0.67842002528E+01  0.10440131129E+02  0.51100000000E-03 0.  1.
        -12    1    3    3    0    0 -0.32611588735E+02 -0.10213245469E+02  0.11418101797E+02  0.36030530824E+02  0.00000000000E+00 0.  1.
</event>
<event>
 7    1  0.2838209E-011  0.5052885E+02  0.7816164E-02  0.1300439E+00
        -11   -1    0    0    0    0  0.00000000000E+00  0.00000000000E+00  0.45593999997E+02  0.45594000000E+02  0.51100000000E-03 0.  1.
         11   -1    0    0    0    0 -0.00000000000E+00 -0.00000000000E+00 -0.45593999997E+02  0.45594000000E+02  0.51100000000E-03 0. -1.
    9900012    2    1    2    0    0 -0.18541615240E+01  0.15260455096E+02  0.37641027188E+02  0.50528851799E+02  0.29999975527E+02 0.  0.
         12    1    1    2    0    0  0.18541615240E+01 -0.15260455096E+02 -0.37641027188E+02  0.40659148201E+02  0.00000000000E+00 0. -1.
         11    1    3    3    0    0  0.11040244512E+02  0.10788927375E+02  0.13506853237E+02  0.20511534253E+02  0.51100000000E-03 0.  1.
        -11    1    3    3    0    0  0.93960418981E+00  0.25405898586E+01  0.80446393755E+00  0.28257061685E+01  0.51100000000E-03 0. -1.
        -12    1    3    3    0    0 -0.13834010226E+02  0.19309378620E+01  0.23329710014E+02  0.27191611377E+02  0.00000000000E+00 0.  1.
</event>
<event>
 7    1  0.2838209E-011  0.5052886E+02  0.7816164E-02  0.1300439E+00
        -11   -1    0    0    0    0  0.00000000000E+00  0.00000000000E+00  0.45593999997E+02  0.45594000000E+02  0.51100000000E-03 0.  1.
         11   -1    0    0    0    0 -0.00000000000E+00 -0.00000000000E+00 -0.45593999997E+02  0.45594000000E+02  0.51100000000E-03 0. -1.
    9900012    2    1    2    0    0  0.37473832054E+02  0.15741913244E+02  0.10342964343E+01  0.50528859693E+02  0.29999999524E+02 0.  0.
         12    1    1    2    0    0 -0.37473832054E+02 -0.15741913244E+02 -0.10342964343E+01  0.40659140307E+02  0.00000000000E+00 0. -1.
         11    1    3    3    0    0  0.69321543868E+01  0.49079778773E+01 -0.89473948724E+01  0.12336891284E+02  0.51100000000E-03 0. -1.
        -11    1    3    3    0    0  0.60059480294E+01  0.10761272922E+02  0.36303405472E+01  0.12847403605E+02  0.51100000000E-03 0.  1.
        -12    1    3    3    0    0  0.24535729637E+02  0.72662444785E-01  0.63513507594E+01  0.25344564805E+02  0.00000000000E+00 0.  1.
</event>
<event>
 7    1  0.2838209E-011  0.5052885E+02  0.7816164E-02  0.1300439E+00
        -11   -1    0    0    0    0  0.00000000000E+00  0.00000000000E+00  0.45593999997E+02  0.45594000000E+02  0.51100000000E-03 0.  1.
         11   -1    0    0    0    0 -0.00000000000E+00 -0.00000000000E+00 -0.45593999997E+02  0.45594000000E+02  0.51100000000E-03 0. -1.
    9900012    2    1    2    0    0 -0.22888627964E+02  0.33380537519E+02  0.38751310539E+01  0.50528853234E+02  0.29999979889E+02 0.  0.
         12    1    1    2    0    0  0.22888627964E+02 -0.33380537519E+02 -0.38751310539E+01  0.40659146766E+02  0.00000000000E+00 0. -1.
         11    1    3    3    0    0 -0.75412493127E+01  0.59347608249E+01  0.24076499799E+01  0.98938670869E+01  0.51100000000E-03 0. -1.
        -11    1    3    3    0    0 -0.17796814081E+02  0.18203077258E+02  0.10447242797E+02  0.27517694224E+02  0.51100000000E-03 0.  1.
         12    1    3    3    0    0  0.24494354295E+01  0.92426994358E+01 -0.89797617233E+01  0.13117291923E+02  0.00000000000E+00 0. -1.
</event>
<event>
 7    1  0.2838209E-011  0.5052885E+02  0.7816164E-02  0.1300439E+00
        -11   -1    0    0    0    0  0.00000000000E+00  0.00000000000E+00  0.45593999997E+02  0.45594000000E+02  0.51100000000E-03 0. -1.
         11   -1    0    0    0    0 -0.00000000000E+00 -0.00000000000E+00 -0.45593999997E+02  0.45594000000E+02  0.51100000000E-03 0.  1.
    9900012    2    1    2    0    0  0.85343264271E+01  0.47139792027E+01 -0.39472904187E+02  0.50528849831E+02  0.29999969548E+02 0.  0.
         12    1    1    2    0    0 -0.85343264271E+01 -0.47139792027E+01  0.39472904187E+02  0.40659150169E+02  0.00000000000E+00 0. -1.
         11    1    3    3    0    0 -0.59324285005E+01 -0.63704902789E+01 -0.10291077534E+02  0.13478988515E+02  0.51100000000E-03 0. -1.
        -11    1    3    3    0    0 -0.10667158036E+01  0.62207429995E+01 -0.10694600955E+02  0.12418132546E+02  0.51100000000E-03 0.  1.
         12    1    3    3    0    0  0.15533470731E+02  0.48637264820E+01 -0.18487225697E+02  0.24631728771E+02  0.00000000000E+00 0. -1.
</event>
<event>
 7    1  0.2838209E-011  0.5052886E+02  0.7816164E-02  0.1300439E+00
        -11   -1    0    0    0    0  0.00000000000E+00  0.00000000000E+00  0.45593999997E+02  0.45594000000E+02  0.51100000000E-03 0.  1.
         11   -1    0    0    0    0 -0.00000000000E+00 -0.00000000000E+00 -0.45593999997E+02  0.45594000000E+02  0.51100000000E-03 0. -1.
    9900012    2    1    2    0    0  0.36875384016E+02 -0.16721773068E+02  0.37086387692E+01  0.50528860285E+02  0.30000001322E+02 0.  0.
         12    1    1    2    0    0 -0.36875384016E+02  0.16721773068E+02 -0.37086387692E+01  0.40659139715E+02  0.00000000000E+00 0. -1.
         11    1    3    3    0    0  0.10839767458E+02 -0.32215629235E+01  0.17207801352E+01  0.11438536216E+02  0.51100000000E-03 0. -1.
        -11    1    3    3    0    0  0.18414518370E+02 -0.12955562125E+02  0.12763004483E+02  0.25881177726E+02  0.51100000000E-03 0.  1.
         12    1    3    3    0    0  0.76210981877E+01 -0.54464801966E+00 -0.10775145849E+02  0.13209146344E+02  0.00000000000E+00 0. -1.
</event>
<event>
 7    1  0.2838209E-011  0.5052885E+02  0.7816164E-02  0.1300439E+00
        -11   -1    0    0    0    0  0.00000000000E+00  0.00000000000E+00  0.45593999997E+02  0.45594000000E+02  0.51100000000E-03 0.  1.
         11   -1    0    0    0    0 -0.00000000000E+00 -0.00000000000E+00 -0.45593999997E+02  0.45594000000E+02  0.51100000000E-03 0. -1.
    9900012    2    1    2    0    0 -0.18366028561E+02 -0.29336573614E+02  0.21335903712E+02  0.50528851660E+02  0.29999975106E+02 0.  0.
         12    1    1    2    0    0  0.18366028561E+02  0.29336573614E+02 -0.21335903712E+02  0.40659148340E+02  0.00000000000E+00 0. -1.
         11    1    3    3    0    0 -0.13527293199E+02 -0.66722325017E+01  0.26700929632E+01  0.15317824407E+02  0.51100000000E-03 0. -1.
        -11    1    3    3    0    0 -0.99059100601E+01 -0.43800093813E+01  0.77899717835E+01  0.13341484061E+02  0.51100000000E-03 0.  1.
        -12    1    3    3    0    0  0.50671746979E+01 -0.18284331731E+02  0.10875838965E+02  0.21869543193E+02  0.00000000000E+00 0.  1.
</event>
<event>
 7    1  0.2838209E-011  0.5052883E+02  0.7816164E-02  0.1300439E+00
        -11   -1    0    0    0    0  0.00000000000E+00  0.00000000000E+00  0.45593999997E+02  0.45594000000E+02  0.51100000000E-03 0.  1.
         11   -1    0    0    0    0 -0.00000000000E+00 -0.00000000000E+00 -0.45593999997E+02  0.45594000000E+02  0.51100000000E-03 0. -1.
    9900012    2    1    2    0    0 -0.72189128683E+01 -0.51329070775E+01  0.39682594677E+02  0.50528834264E+02  0.29999922227E+02 0.  0.
         12    1    1    2    0    0  0.72189128683E+01  0.51329070775E+01 -0.39682594677E+02  0.40659165736E+02  0.00000000000E+00 0. -1.
         11    1    3    3    0    0 -0.47584585425E+01 -0.99318398257E+01  0.46687505660E+01  0.11961672213E+02  0.51100000000E-03 0. -1.
        -11    1    3    3    0    0 -0.42634566317E+01 -0.47670474817E+01  0.12578382455E+02  0.14110900382E+02  0.51100000000E-03 0.  1.
         12    1    3    3    0    0  0.18030023059E+01  0.95659802298E+01  0.22435461656E+02  0.24456261668E+02  0.00000000000E+00 0. -1.
</event>
<event>
 7    1  0.2838209E-011  0.5052886E+02  0.7816164E-02  0.1300439E+00
        -11   -1    0    0    0    0  0.00000000000E+00  0.00000000000E+00  0.45593999997E+02  0.45594000000E+02  0.51100000000E-03 0.  1.
         11   -1    0    0    0    0 -0.00000000000E+00 -0.00000000000E+00 -0.45593999997E+02  0.45594000000E+02  0.51100000000E-03 0. -1.
    9900012    2    1    2    0    0  0.14064381997E+02 -0.12376474786E+02  0.36085756771E+02  0.50528858213E+02  0.29999995025E+02 0.  0.
         12    1    1    2    0    0 -0.14064381997E+02  0.12376474786E+02 -0.36085756771E+02  0.40659141787E+02  0.00000000000E+00 0. -1.
         11    1    3    3    0    0 -0.20011279555E+01 -0.13818262933E+00  0.16806588347E+01  0.26169107576E+01  0.51100000000E-03 0. -1.
        -11    1    3    3    0    0  0.39851658604E+01 -0.49269051628E+01 -0.36560123276E+01  0.73158982920E+01  0.51100000000E-03 0.  1.
        -12    1    3    3    0    0  0.12080344092E+02 -0.73113869937E+01  0.38061110264E+02  0.40596049164E+02  0.00000000000E+00 0.  1.
</event>
<event>
 7    1  0.2838209E-011  0.5052886E+02  0.7816164E-02  0.1300439E+00
        -11   -1    0    0    0    0  0.00000000000E+00  0.00000000000E+00  0.45593999997E+02  0.45594000000E+02  0.51100000000E-03 0. -1.
         11   -1    0    0    0    0 -0.00000000000E+00 -0.00000000000E+00 -0.45593999997E+02  0.45594000000E+02  0.51100000000E-03 0.  1.
    9900012    2    1    2    0    0  0.10019297687E+02  0.36573879924E+02 -0.14667332036E+02  0.50528860217E+02  0.30000001116E+02 0.  0.
         12    1    1    2    0    0 -0.10019297687E+02 -0.36573879924E+02  0.14667332036E+02  0.40659139783E+02  0.00000000000E+00 0. -1.
         11    1    3    3    0    0 -0.53243547710E+01  0.13181792234E+02 -0.13610222763E+02  0.19681122025E+02  0.51100000000E-03 0. -1.
        -11    1    3    3    0    0  0.61642660940E-01  0.59244913681E+01  0.39290308953E+01  0.71091969888E+01  0.51100000000E-03 0.  1.
        -12    1    3    3    0    0  0.15282009797E+02  0.17467596322E+02 -0.49861401679E+01  0.23738541204E+02  0.00000000000E+00 0.  1.
</event>
<event>
 7    1  0.2838209E-011  0.5052886E+02  0.7816164E-02  0.1300439E+00
        -11   -1    0    0    0    0  0.00000000000E+00  0.00000000000E+00  0.45593999997E+02  0.45594000000E+02  0.51100000000E-03 0.  1.
         11   -1    0    0    0    0 -0.00000000000E+00 -0.00000000000E+00 -0.45593999997E+02  0.45594000000E+02  0.51100000000E-03 0. -1.
    9900012    2    1    2    0    0 -0.23638642104E+02  0.96874127892E+01  0.31631223734E+02  0.50528859797E+02  0.29999999840E+02 0.  0.
         12    1    1    2    0    0  0.23638642104E+02 -0.96874127892E+01 -0.31631223734E+02  0.40659140203E+02  0.00000000000E+00 0. -1.
         11    1    3    3    0    0 -0.67591323343E+01 -0.57058588489E+00 -0.28469084680E+01  0.73563799692E+01  0.51100000000E-03 0. -1.
        -11    1    3    3    0    0  0.85378118766E+00  0.80086074468E+01  0.94518190737E+01  0.12417875004E+02  0.51100000000E-03 0.  1.
        -12    1    3    3    0    0 -0.17733290958E+02  0.22493912273E+01  0.25026313129E+02  0.30754604824E+02  0.00000000000E+00 0.  1.
</event>
<event>
 7    1  0.2838209E-011  0.5052887E+02  0.7816164E-02  0.1300439E+00
        -11   -1    0    0    0    0  0.00000000000E+00  0.00000000000E+00  0.45593999997E+02  0.45594000000E+02  0.51100000000E-03 0.  1.
         11   -1    0    0    0    0 -0.00000000000E+00 -0.00000000000E+00 -0.45593999997E+02  0.45594000000E+02  0.51100000000E-03 0. -1.
    9900012    2    1    2    0    0  0.12074799063E+02 -0.38823699413E+02 -0.29092154282E+00  0.50528867645E+02  0.30000023694E+02 0.  0.
         12    1    1    2    0    0 -0.12074799063E+02  0.38823699413E+02  0.29092154282E+00  0.40659132355E+02  0.00000000000E+00 0. -1.
         11    1    3    3    0    0 -0.37020517530E+01 -0.17153084602E+02  0.10367120348E+00  0.17548340279E+02  0.51100000000E-03 0. -1.
        -11    1    3    3    0    0 -0.12071420957E+01 -0.13947442830E+02 -0.24420892571E+01  0.14210987078E+02  0.51100000000E-03 0.  1.
        -12    1    3    3    0    0  0.16983992912E+02 -0.77231719807E+01  0.20474965108E+01  0.18769540288E+02  0.00000000000E+00 0.  1.
</event>
<event>
 7    1  0.2838209E-011  0.5052886E+02  0.7816164E-02  0.1300439E+00
        -11   -1    0    0    0    0  0.00000000000E+00  0.00000000000E+00  0.45593999997E+02  0.45594000000E+02  0.51100000000E-03 0.  1.
         11   -1    0    0    0    0 -0.00000000000E+00 -0.00000000000E+00 -0.45593999997E+02  0.45594000000E+02  0.51100000000E-03 0. -1.
    9900012    2    1    2    0    0 -0.33668231389E+01  0.21235919743E+02  0.34508920939E+02  0.50528863146E+02  0.30000010019E+02 0.  0.
         12    1    1    2    0    0  0.33668231389E+01 -0.21235919743E+02 -0.34508920939E+02  0.40659136854E+02  0.00000000000E+00 0. -1.
         11    1    3    3    0    0 -0.28611313850E+01 -0.17197371384E+01 -0.14242478178E+01  0.36293319957E+01  0.51100000000E-03 0. -1.
        -11    1    3    3    0    0  0.76193104107E+00 -0.14409220254E+01 -0.14900477082E+01  0.22084016004E+01  0.51100000000E-03 0.  1.
        -12    1    3    3    0    0 -0.12676227950E+01  0.24396578907E+02  0.37423216465E+02  0.44691129550E+02  0.00000000000E+00 0.  1.
</event>
<event>
 7    1  0.2838209E-011  0.5052886E+02  0.7816164E-02  0.1300439E+00
        -11   -1    0    0    0    0  0.00000000000E+00  0.00000000000E+00  0.45593999997E+02  0.45594000000E+02  0.51100000000E-03 0.  1.
         11   -1    0    0    0    0 -0.00000000000E+00 -0.00000000000E+00 -0.45593999997E+02  0.45594000000E+02  0.51100000000E-03 0. -1.
    9900012    2    1    2    0    0  0.30601046629E+02  0.26714960183E+02 -0.17471544478E+01  0.50528859563E+02  0.29999999129E+02 0.  0.
         12    1    1    2    0    0 -0.30601046629E+02 -0.26714960183E+02  0.17471544478E+01  0.40659140437E+02  0.00000000000E+00 0. -1.
         11    1    3    3    0    0 -0.35683704979E+01  0.20346963275E+01 -0.28728363270E+01  0.50126286495E+01  0.51100000000E-03 0. -1.
        -11    1    3    3    0    0 -0.87566215213E+00  0.67855196531E+00  0.27955828828E+01  0.30070751387E+01  0.51100000000E-03 0.  1.
        -12    1    3    3    0    0  0.35045079279E+02  0.24001711890E+02 -0.16699010036E+01  0.42509155775E+02  0.00000000000E+00 0.  1.
</event>
<event>
 7    1  0.2838209E-011  0.5052881E+02  0.7816164E-02  0.1300439E+00
        -11   -1    0    0    0    0  0.00000000000E+00  0.00000000000E+00  0.45593999997E+02  0.45594000000E+02  0.51100000000E-03 0. -1.
         11   -1    0    0    0    0 -0.00000000000E+00 -0.00000000000E+00 -0.45593999997E+02  0.45594000000E+02  0.51100000000E-03 0.  1.
    9900012    2    1    2    0    0 -0.17608630238E+02  0.26064484485E+02  0.25763311026E+02  0.50528814010E+02  0.29999860666E+02 0.  0.
         12    1    1    2    0    0  0.17608630238E+02 -0.26064484485E+02 -0.25763311026E+02  0.40659185990E+02  0.00000000000E+00 0. -1.
         11    1    3    3    0    0 -0.86453455465E+01  0.10949349902E+02  0.22168152620E+02  0.26192694664E+02  0.51100000000E-03 0. -1.
        -11    1    3    3    0    0 -0.11136858907E+02  0.13180994742E+02  0.80293696121E+01  0.19032578001E+02  0.51100000000E-03 0.  1.
         12    1    3    3    0    0  0.21735742159E+01  0.19341398405E+01 -0.44342112059E+01  0.53035413464E+01  0.00000000000E+00 0. -1.
</event>
<event>
 7    1  0.2838209E-011  0.5052890E+02  0.7816164E-02  0.1300439E+00
        -11   -1    0    0    0    0  0.00000000000E+00  0.00000000000E+00  0.45593999997E+02  0.45594000000E+02  0.51100000000E-03 0.  1.
         11   -1    0    0    0    0 -0.00000000000E+00 -0.00000000000E+00 -0.45593999997E+02  0.45594000000E+02  0.51100000000E-03 0. -1.
    9900012    2    1    2    0    0 -0.27772682655E+02  0.23992205137E+02  0.17498978939E+02  0.50528904178E+02  0.30000134739E+02 0.  0.
         12    1    1    2    0    0  0.27772682655E+02 -0.23992205137E+02 -0.17498978939E+02  0.40659095822E+02  0.00000000000E+00 0. -1.
         11    1    3    3    0    0 -0.25034894234E+02  0.80727686156E+01  0.10980141388E+02  0.28504017745E+02  0.51100000000E-03 0. -1.
        -11    1    3    3    0    0 -0.43305133460E+01  0.82617871600E+01  0.98120374344E+01  0.13538336375E+02  0.51100000000E-03 0.  1.
        -12    1    3    3    0    0  0.15927249255E+01  0.76576493612E+01 -0.32931998832E+01  0.84865500587E+01  0.00000000000E+00 0.  1.
</event>
<event>
 7    1  0.2838209E-011  0.5052886E+02  0.7816164E-02  0.1300439E+00
        -11   -1    0    0    0    0  0.00000000000E+00  0.00000000000E+00  0.45593999997E+02  0.45594000000E+02  0.51100000000E-03 0.  1.
         11   -1    0    0    0    0 -0.00000000000E+00 -0.00000000000E+00 -0.45593999997E+02  0.45594000000E+02  0.51100000000E-03 0. -1.
    9900012    2    1    2    0    0 -0.39818931508E+01  0.40450255332E+02  0.10425315457E+01  0.50528862017E+02  0.30000006586E+02 0.  0.
         12    1    1    2    0    0  0.39818931508E+01 -0.40450255332E+02 -0.10425315457E+01  0.40659137983E+02  0.00000000000E+00 0. -1.
         11    1    3    3    0    0  0.50666295282E+01  0.11502228105E+02  0.38468275823E+01  0.13144202861E+02  0.51100000000E-03 0. -1.
        -11    1    3    3    0    0 -0.63046095276E+00  0.25146984239E+02 -0.84775859795E+01  0.26545013875E+02  0.51100000000E-03 0.  1.
        -12    1    3    3    0    0 -0.84180617263E+01  0.38010429884E+01  0.56732899429E+01  0.10839645280E+02  0.00000000000E+00 0.  1.
</event>
<event>
 7    1  0.2838209E-011  0.5052888E+02  0.7816164E-02  0.1300439E+00
        -11   -1    0    0    0    0  0.00000000000E+00  0.00000000000E+00  0.45593999997E+02  0.45594000000E+02  0.51100000000E-03 0. -1.
         11   -1    0    0    0    0 -0.00000000000E+00 -0.00000000000E+00 -0.45593999997E+02  0.45594000000E+02  0.51100000000E-03 0.  1.
    9900012    2    1    2    0    0 -0.90543177529E+01  0.19620110335E+02 -0.34441757332E+02  0.50528879896E+02  0.30000060932E+02 0.  0.
         12    1    1    2    0    0  0.90543177529E+01 -0.19620110335E+02  0.34441757332E+02  0.40659120104E+02  0.00000000000E+00 0. -1.
         11    1    3    3    0    0 -0.23497089228E+01  0.13885741379E+01 -0.76710658490E+01  0.81421447837E+01  0.51100000000E-03 0. -1.
        -11    1    3    3    0    0  0.58499021226E+01  0.17510741097E+02 -0.22502671088E+02  0.29107002851E+02  0.51100000000E-03 0.  1.
         12    1    3    3    0    0 -0.12554510953E+02  0.72079509984E+00 -0.42680203950E+01  0.13279732261E+02  0.00000000000E+00 0. -1.
</event>
<event>
 7    1  0.2838209E-011  0.5052886E+02  0.7816164E-02  0.1300439E+00
        -11   -1    0    0    0    0  0.00000000000E+00  0.00000000000E+00  0.45593999997E+02  0.45594000000E+02  0.51100000000E-03 0. -1.
         11   -1    0    0    0    0 -0.00000000000E+00 -0.00000000000E+00 -0.45593999997E+02  0.45594000000E+02  0.51100000000E-03 0.  1.
    9900012    2    1    2    0    0 -0.86479848298E+01 -0.12133053649E+02 -0.37830768956E+02  0.50528859425E+02  0.29999998709E+02 0.  0.
         12    1    1    2    0    0  0.86479848298E+01  0.12133053649E+02  0.37830768956E+02  0.40659140575E+02  0.00000000000E+00 0. -1.
         11    1    3    3    0    0 -0.12435958072E+02  0.22850763638E+01 -0.61980912815E+01  0.14081582402E+02  0.51100000000E-03 0. -1.
        -11    1    3    3    0    0 -0.30019427693E+01 -0.14977092367E+01 -0.79383324521E+01  0.86181155555E+01  0.51100000000E-03 0.  1.
        -12    1    3    3    0    0  0.67899160110E+01 -0.12920420776E+02 -0.23694345223E+02  0.27829161468E+02  0.00000000000E+00 0.  1.
</event>
<event>
 7    1  0.2838209E-011  0.5052886E+02  0.7816164E-02  0.1300439E+00
        -11   -1    0    0    0    0  0.00000000000E+00  0.00000000000E+00  0.45593999997E+02  0.45594000000E+02  0.51100000000E-03 0.  1.
         11   -1    0    0    0    0 -0.00000000000E+00 -0.00000000000E+00 -0.45593999997E+02  0.45594000000E+02  0.51100000000E-03 0. -1.
    9900012    2    1    2    0    0  0.92772395245E-01  0.60550279930E+01  0.40205640732E+02  0.50528861822E+02  0.30000005994E+02 0.  0.
         12    1    1    2    0    0 -0.92772395245E-01 -0.60550279930E+01 -0.40205640732E+02  0.40659138178E+02  0.00000000000E+00 0. -1.
         11    1    3    3    0    0 -0.16785597866E+00  0.15189793475E+01 -0.12251329151E+01  0.19586793532E+01  0.51100000000E-03 0. -1.
        -11    1    3    3    0    0  0.62991500106E+01  0.90269358470E+01  0.39207284148E+02  0.40723162845E+02  0.51100000000E-03 0.  1.
         12    1    3    3    0    0 -0.60385216367E+01 -0.44908872015E+01  0.22234894995E+01  0.78470196232E+01  0.00000000000E+00 0. -1.
</event>
<event>
 7    1  0.2838209E-011  0.5052887E+02  0.7816164E-02  0.1300439E+00
        -11   -1    0    0    0    0  0.00000000000E+00  0.00000000000E+00  0.45593999997E+02  0.45594000000E+02  0.51100000000E-03 0.  1.
         11   -1    0    0    0    0 -0.00000000000E+00 -0.00000000000E+00 -0.45593999997E+02  0.45594000000E+02  0.51100000000E-03 0. -1.
    9900012    2    1    2    0    0  0.89042415226E+01 -0.21148553289E+02  0.33565135962E+02  0.50528866027E+02  0.30000018775E+02 0.  0.
         12    1    1    2    0    0 -0.89042415226E+01  0.21148553289E+02 -0.33565135962E+02  0.40659133973E+02  0.00000000000E+00 0. -1.
         11    1    3    3    0    0  0.23857834354E+01 -0.49512865520E+00 -0.50716800398E+01  0.56266378658E+01  0.51100000000E-03 0. -1.
        -11    1    3    3    0    0 -0.30644546624E-01  0.17621830098E+00 -0.24833476177E+00  0.30604312256E+00  0.51100000000E-03 0.  1.
        -12    1    3    3    0    0  0.65491026339E+01 -0.20829642935E+02  0.38885150763E+02  0.44596185039E+02  0.00000000000E+00 0.  1.
</event>
<event>
 7    1  0.2838209E-011  0.5052882E+02  0.7816164E-02  0.1300439E+00
        -11   -1    0    0    0    0  0.00000000000E+00  0.00000000000E+00  0.45593999997E+02  0.45594000000E+02  0.51100000000E-03 0.  1.
         11   -1    0    0    0    0 -0.00000000000E+00 -0.00000000000E+00 -0.45593999997E+02  0.45594000000E+02  0.51100000000E-03 0. -1.
    9900012    2    1    2    0    0  0.24883282911E+02 -0.53583079588E+01  0.31706140246E+02  0.50528824382E+02  0.29999892193E+02 0.  0.
         12    1    1    2    0    0 -0.24883282911E+02  0.53583079588E+01 -0.31706140246E+02  0.40659175618E+02  0.00000000000E+00 0. -1.
         11    1    3    3    0    0  0.16721772855E+01 -0.52857480469E+01 -0.22617704459E+01  0.59875633692E+01  0.51100000000E-03 0. -1.
        -11    1    3    3    0    0  0.18939288555E+02 -0.51315444064E+01  0.15762483769E+02  0.25169133751E+02  0.51100000000E-03 0.  1.
         12    1    3    3    0    0  0.42718170701E+01  0.50589844944E+01  0.18205426923E+02  0.19372127262E+02  0.00000000000E+00 0. -1.
</event>
<event>
 7    1  0.2838209E-011  0.5052887E+02  0.7816164E-02  0.1300439E+00
        -11   -1    0    0    0    0  0.00000000000E+00  0.00000000000E+00  0.45593999997E+02  0.45594000000E+02  0.51100000000E-03 0.  1.
         11   -1    0    0    0    0 -0.00000000000E+00 -0.00000000000E+00 -0.45593999997E+02  0.45594000000E+02  0.51100000000E-03 0. -1.
    9900012    2    1    2    0    0  0.27280287047E+02 -0.26503677434E+02  0.14370321896E+02  0.50528866582E+02  0.30000020463E+02 0.  0.
         12    1    1    2    0    0 -0.27280287047E+02  0.26503677434E+02 -0.14370321896E+02  0.40659133418E+02  0.00000000000E+00 0. -1.
         11    1    3    3    0    0  0.91095465078E+01  0.36279366833E+01  0.48834214128E+01  0.10954157526E+02  0.51100000000E-03 0. -1.
        -11    1    3    3    0    0 -0.11814959822E+00 -0.76373205437E+01 -0.27345503287E+01  0.81129766532E+01  0.51100000000E-03 0.  1.
        -12    1    3    3    0    0  0.18288890138E+02 -0.22494293573E+02  0.12221450812E+02  0.31461732403E+02  0.00000000000E+00 0.  1.
</event>
<event>
 7    1  0.2838209E-011  0.5052886E+02  0.7816164E-02  0.1300439E+00
        -11   -1    0    0    0    0  0.00000000000E+00  0.00000000000E+00  0.45593999997E+02  0.45594000000E+02  0.51100000000E-03 0. -1.
         11   -1    0    0    0    0 -0.00000000000E+00 -0.00000000000E+00 -0.45593999997E+02  0.45594000000E+02  0.51100000000E-03 0.  1.
    9900012    2    1    2    0    0  0.40607117608E+02 -0.11258019029E+01 -0.17205516867E+01  0.50528859226E+02  0.29999998104E+02 0.  0.
         12    1    1    2    0    0 -0.40607117608E+02  0.11258019029E+01  0.17205516867E+01  0.40659140774E+02  0.00000000000E+00 0. -1.
         11    1    3    3    0    0 -0.11667413115E+01  0.44541777149E+01 -0.15759068261E+01  0.48666689830E+01  0.51100000000E-03 0. -1.
        -11    1    3    3    0    0  0.32522181955E+02  0.26440558324E+01 -0.35546805528E+01  0.32822539580E+02  0.51100000000E-03 0.  1.
         12    1    3    3    0    0  0.92516769644E+01 -0.82240354502E+01  0.34100356922E+01  0.12839650664E+02  0.00000000000E+00 0. -1.
</event>
<event>
 7    1  0.2838209E-011  0.5052886E+02  0.7816164E-02  0.1300439E+00
        -11   -1    0    0    0    0  0.00000000000E+00  0.00000000000E+00  0.45593999997E+02  0.45594000000E+02  0.51100000000E-03 0. -1.
         11   -1    0    0    0    0 -0.00000000000E+00 -0.00000000000E+00 -0.45593999997E+02  0.45594000000E+02  0.51100000000E-03 0.  1.
    9900012    2    1    2    0    0 -0.27364270431E+02 -0.82819602671E+01  0.28909709557E+02  0.50528862420E+02  0.30000007813E+02 0.  0.
         12    1    1    2    0    0  0.27364270431E+02  0.82819602671E+01 -0.28909709557E+02  0.40659137580E+02  0.00000000000E+00 0. -1.
         11    1    3    3    0    0 -0.79853608224E+00 -0.58251049827E+01  0.11686761345E+02  0.13082427104E+02  0.51100000000E-03 0. -1.
        -11    1    3    3    0    0  0.30222539704E+01 -0.16436442387E+01  0.57907417063E+00  0.34886835055E+01  0.51100000000E-03 0.  1.
         12    1    3    3    0    0 -0.29587988319E+02 -0.81321104567E+00  0.16643874041E+02  0.33957751811E+02  0.00000000000E+00 0. -1.
</event>
<event>
 7    1  0.2838209E-011  0.5052887E+02  0.7816164E-02  0.1300439E+00
        -11   -1    0    0    0    0  0.00000000000E+00  0.00000000000E+00  0.45593999997E+02  0.45594000000E+02  0.51100000000E-03 0.  1.
         11   -1    0    0    0    0 -0.00000000000E+00 -0.00000000000E+00 -0.45593999997E+02  0.45594000000E+02  0.51100000000E-03 0. -1.
    9900012    2    1    2    0    0 -0.22750488711E+01 -0.32391620056E+02  0.24469816767E+02  0.50528870277E+02  0.30000031694E+02 0.  0.
         12    1    1    2    0    0  0.22750488711E+01  0.32391620056E+02 -0.24469816767E+02  0.40659129723E+02  0.00000000000E+00 0. -1.
         11    1    3    3    0    0 -0.65861363348E+00  0.33518539601E+01  0.20941600780E+01  0.40067697190E+01  0.51100000000E-03 0. -1.
        -11    1    3    3    0    0 -0.53762591536E+01 -0.41051253193E+01 -0.12222413525E+01  0.68738701296E+01  0.51100000000E-03 0.  1.
        -12    1    3    3    0    0  0.37598239160E+01 -0.31638348697E+02  0.23597898041E+02  0.39648230429E+02  0.00000000000E+00 0.  1.
</event>
<event>
 7    1  0.2838209E-011  0.5052886E+02  0.7816164E-02  0.1300439E+00
        -11   -1    0    0    0    0  0.00000000000E+00  0.00000000000E+00  0.45593999997E+02  0.45594000000E+02  0.51100000000E-03 0.  1.
         11   -1    0    0    0    0 -0.00000000000E+00 -0.00000000000E+00 -0.45593999997E+02  0.45594000000E+02  0.51100000000E-03 0. -1.
    9900012    2    1    2    0    0  0.16169441642E+02 -0.27988962224E+02  0.24664403023E+02  0.50528860487E+02  0.30000001938E+02 0.  0.
         12    1    1    2    0    0 -0.16169441642E+02  0.27988962224E+02 -0.24664403023E+02  0.40659139513E+02  0.00000000000E+00 0. -1.
         11    1    3    3    0    0  0.20660756104E+00  0.46598027592E+01  0.83824009471E+00  0.47391027797E+01  0.51100000000E-03 0. -1.
        -11    1    3    3    0    0  0.10650137470E+01 -0.24712772745E+01  0.83021260201E+01  0.87273571237E+01  0.51100000000E-03 0.  1.
        -12    1    3    3    0    0  0.14897820334E+02 -0.30177487709E+02  0.15524036909E+02  0.37062400584E+02  0.00000000000E+00 0.  1.
</event>
<event>
 7    1  0.2838209E-011  0.5052886E+02  0.7816164E-02  0.1300439E+00
        -11   -1    0    0    0    0  0.00000000000E+00  0.00000000000E+00  0.45593999997E+02  0.45594000000E+02  0.51100000000E-03 0.  1.
         11   -1    0    0    0    0 -0.00000000000E+00 -0.00000000000E+00 -0.45593999997E+02  0.45594000000E+02  0.51100000000E-03 0. -1.
    9900012    2    1    2    0    0  0.56173555845E+01 -0.22692335638E+01  0.40205244206E+02  0.50528858760E+02  0.29999996685E+02 0.  0.
         12    1    1    2    0    0 -0.56173555845E+01  0.22692335638E+01 -0.40205244206E+02  0.40659141240E+02  0.00000000000E+00 0. -1.
         11    1    3    3    0    0  0.59726393322E+01  0.38624214003E+01  0.97942837761E+01  0.12104491506E+02  0.51100000000E-03 0. -1.
        -11    1    3    3    0    0 -0.46791409428E+00  0.15983889946E+00 -0.37025195530E+01  0.37353906590E+01  0.51100000000E-03 0.  1.
        -12    1    3    3    0    0  0.11263034653E+00 -0.62914938635E+01  0.34113479983E+02  0.34688976595E+02  0.00000000000E+00 0.  1.
</event>
<event>
 7    1  0.2838209E-011  0.5052886E+02  0.7816164E-02  0.1300439E+00
        -11   -1    0    0    0    0  0.00000000000E+00  0.00000000000E+00  0.45593999997E+02  0.45594000000E+02  0.51100000000E-03 0. -1.
         11   -1    0    0    0    0 -0.00000000000E+00 -0.00000000000E+00 -0.45593999997E+02  0.45594000000E+02  0.51100000000E-03 0.  1.
    9900012    2    1    2    0    0  0.16131516995E+02  0.34854054442E+02  0.13346711945E+02  0.50528859929E+02  0.30000000239E+02 0.  0.
         12    1    1    2    0    0 -0.16131516995E+02 -0.34854054442E+02 -0.13346711945E+02  0.40659140071E+02  0.00000000000E+00 0. -1.
         11    1    3    3    0    0  0.17279718662E+01  0.21753131018E+02  0.12565905560E+02  0.25181075805E+02  0.51100000000E-03 0. -1.
        -11    1    3    3    0    0  0.28454508324E+01  0.12807522732E+02 -0.24421391973E+01  0.13345159163E+02  0.51100000000E-03 0.  1.
         12    1    3    3    0    0  0.11558094296E+02  0.29340069168E+00  0.32229455826E+01  0.12002624961E+02  0.00000000000E+00 0. -1.
</event>
<event>
 7    1  0.2838209E-011  0.5052886E+02  0.7816164E-02  0.1300439E+00
        -11   -1    0    0    0    0  0.00000000000E+00  0.00000000000E+00  0.45593999997E+02  0.45594000000E+02  0.51100000000E-03 0.  1.
         11   -1    0    0    0    0 -0.00000000000E+00 -0.00000000000E+00 -0.45593999997E+02  0.45594000000E+02  0.51100000000E-03 0. -1.
    9900012    2    1    2    0    0 -0.65360754752E+01  0.19348578343E+02  0.35157893945E+02  0.50528864825E+02  0.30000015122E+02 0.  0.
         12    1    1    2    0    0  0.65360754752E+01 -0.19348578343E+02 -0.35157893945E+02  0.40659135175E+02  0.00000000000E+00 0. -1.
         11    1    3    3    0    0  0.68537972307E+01 -0.20357653674E+01  0.10212961978E+02  0.12466894951E+02  0.51100000000E-03 0. -1.
        -11    1    3    3    0    0 -0.48893001528E+01  0.16928009042E+02  0.98842446009E+01  0.20202995761E+02  0.51100000000E-03 0.  1.
         12    1    3    3    0    0 -0.85005725531E+01  0.44563346686E+01  0.15060687367E+02  0.17858974113E+02  0.00000000000E+00 0. -1.
</event>
<event>
 7    1  0.2838209E-011  0.5052883E+02  0.7816164E-02  0.1300439E+00
        -11   -1    0    0    0    0  0.00000000000E+00  0.00000000000E+00  0.45593999997E+02  0.45594000000E+02  0.51100000000E-03 0.  1.
         11   -1    0    0    0    0 -0.00000000000E+00 -0.00000000000E+00 -0.45593999997E+02  0.45594000000E+02  0.51100000000E-03 0. -1.
    9900012    2    1    2    0    0  0.40205213816E+02 -0.58947939515E+01 -0.13999753403E+01  0.50528834433E+02  0.29999922741E+02 0.  0.
         12    1    1    2    0    0 -0.40205213816E+02  0.58947939515E+01  0.13999753403E+01  0.40659165567E+02  0.00000000000E+00 0. -1.
         11    1    3    3    0    0  0.48494523074E+00 -0.37991690315E+01  0.10491891157E+01  0.39711025256E+01  0.51100000000E-03 0. -1.
        -11    1    3    3    0    0  0.15353943985E+02  0.99897591002E+01 -0.56547675660E+01  0.19170688023E+02  0.51100000000E-03 0.  1.
         12    1    3    3    0    0  0.24366324599E+02 -0.12085384020E+02  0.32056031101E+01  0.27387043884E+02  0.00000000000E+00 0. -1.
</event>
<event>
 7    1  0.2838209E-011  0.5052886E+02  0.7816164E-02  0.1300439E+00
        -11   -1    0    0    0    0  0.00000000000E+00  0.00000000000E+00  0.45593999997E+02  0.45594000000E+02  0.51100000000E-03 0.  1.
         11   -1    0    0    0    0 -0.00000000000E+00 -0.00000000000E+00 -0.45593999997E+02  0.45594000000E+02  0.51100000000E-03 0. -1.
    9900012    2    1    2    0    0 -0.14249892997E+02 -0.10176154195E+02  0.36695401023E+02  0.50528855630E+02  0.29999987174E+02 0.  0.
         12    1    1    2    0    0  0.14249892997E+02  0.10176154195E+02 -0.36695401023E+02  0.40659144370E+02  0.00000000000E+00 0. -1.
         11    1    3    3    0    0 -0.13165137689E+02  0.18639509441E+01  0.17204959085E+02  0.21744097610E+02  0.51100000000E-03 0. -1.
        -11    1    3    3    0    0 -0.83142366600E+01 -0.46900622582E+01  0.14426067890E+02  0.17298400222E+02  0.51100000000E-03 0.  1.
         12    1    3    3    0    0  0.72294813521E+01 -0.73500428805E+01  0.50643740488E+01  0.11486357798E+02  0.00000000000E+00 0. -1.
</event>
<event>
 7    1  0.2838209E-011  0.5052884E+02  0.7816164E-02  0.1300439E+00
        -11   -1    0    0    0    0  0.00000000000E+00  0.00000000000E+00  0.45593999997E+02  0.45594000000E+02  0.51100000000E-03 0. -1.
         11   -1    0    0    0    0 -0.00000000000E+00 -0.00000000000E+00 -0.45593999997E+02  0.45594000000E+02  0.51100000000E-03 0.  1.
    9900012    2    1    2    0    0  0.28727769360E+02  0.12112614672E+02 -0.26099171567E+02  0.50528844535E+02  0.29999953448E+02 0.  0.
         12    1    1    2    0    0 -0.28727769360E+02 -0.12112614672E+02  0.26099171567E+02  0.40659155465E+02  0.00000000000E+00 0. -1.
         11    1    3    3    0    0  0.49944831556E+01  0.50506436837E+01 -0.16086965184E+02  0.17585343690E+02  0.51100000000E-03 0. -1.
        -11    1    3    3    0    0  0.10203464671E+02  0.10435944840E+02 -0.11952702674E+02  0.18864960574E+02  0.51100000000E-03 0.  1.
         12    1    3    3    0    0  0.13529821534E+02 -0.33739738516E+01  0.19404962903E+01  0.14078540271E+02  0.00000000000E+00 0. -1.
</event>
<event>
 7    1  0.2838209E-011  0.5052886E+02  0.7816164E-02  0.1300439E+00
        -11   -1    0    0    0    0  0.00000000000E+00  0.00000000000E+00  0.45593999997E+02  0.45594000000E+02  0.51100000000E-03 0.  1.
         11   -1    0    0    0    0 -0.00000000000E+00 -0.00000000000E+00 -0.45593999997E+02  0.45594000000E+02  0.51100000000E-03 0. -1.
    9900012    2    1    2    0    0 -0.37885662275E+02  0.13527627706E+02  0.59029869011E+01  0.50528863613E+02  0.30000011438E+02 0.  0.
         12    1    1    2    0    0  0.37885662275E+02 -0.13527627706E+02 -0.59029869011E+01  0.40659136387E+02  0.00000000000E+00 0. -1.
         11    1    3    3    0    0 -0.35198994793E+01  0.55234844845E+01  0.83258366126E+01  0.10593305846E+02  0.51100000000E-03 0. -1.
        -11    1    3    3    0    0 -0.52770532613E+01 -0.55172039124E+01 -0.18370710329E+01  0.78524938952E+01  0.51100000000E-03 0.  1.
        -12    1    3    3    0    0 -0.29088709535E+02  0.13521347134E+02 -0.58577867855E+00  0.32083063871E+02  0.00000000000E+00 0.  1.
</event>
<event>
 7    1  0.2838209E-011  0.5052889E+02  0.7816164E-02  0.1300439E+00
        -11   -1    0    0    0    0  0.00000000000E+00  0.00000000000E+00  0.45593999997E+02  0.45594000000E+02  0.51100000000E-03 0.  1.
         11   -1    0    0    0    0 -0.00000000000E+00 -0.00000000000E+00 -0.45593999997E+02  0.45594000000E+02  0.51100000000E-03 0. -1.
    9900012    2    1    2    0    0  0.86945853824E+00  0.35891188819E+02 -0.19084814534E+02  0.50528886153E+02  0.30000079950E+02 0.  0.
         12    1    1    2    0    0 -0.86945853824E+00 -0.35891188819E+02  0.19084814534E+02  0.40659113847E+02  0.00000000000E+00 0. -1.
         11    1    3    3    0    0  0.18588142215E+01 -0.19087178268E+01 -0.50066692594E+00  0.27109152853E+01  0.51100000000E-03 0. -1.
        -11    1    3    3    0    0  0.65178176150E+00  0.36633024350E+01  0.50450351901E+01  0.62687306949E+01  0.51100000000E-03 0.  1.
         12    1    3    3    0    0 -0.16411374447E+01  0.34136604211E+02 -0.23629182799E+02  0.41549240173E+02  0.00000000000E+00 0. -1.
</event>
<event>
 7    1  0.2838209E-011  0.5052886E+02  0.7816164E-02  0.1300439E+00
        -11   -1    0    0    0    0  0.00000000000E+00  0.00000000000E+00  0.45593999997E+02  0.45594000000E+02  0.51100000000E-03 0.  1.
         11   -1    0    0    0    0 -0.00000000000E+00 -0.00000000000E+00 -0.45593999997E+02  0.45594000000E+02  0.51100000000E-03 0. -1.
    9900012    2    1    2    0    0  0.22843363539E+02 -0.21661686142E+02  0.25731654482E+02  0.50528856543E+02  0.29999989949E+02 0.  0.
         12    1    1    2    0    0 -0.22843363539E+02  0.21661686142E+02 -0.25731654482E+02  0.40659143457E+02  0.00000000000E+00 0. -1.
         11    1    3    3    0    0  0.18564866332E+01 -0.55663619229E+01  0.65067480449E+01  0.87617748235E+01  0.51100000000E-03 0. -1.
        -11    1    3    3    0    0  0.11700510850E+02 -0.15825792321E+01  0.21359706924E+02  0.24405810606E+02  0.51100000000E-03 0.  1.
         12    1    3    3    0    0  0.92863660560E+01 -0.14512744987E+02 -0.21348004875E+01  0.17361271114E+02  0.00000000000E+00 0. -1.
</event>
<event>
 7    1  0.2838209E-011  0.5052886E+02  0.7816164E-02  0.1300439E+00
        -11   -1    0    0    0    0  0.00000000000E+00  0.00000000000E+00  0.45593999997E+02  0.45594000000E+02  0.51100000000E-03 0.  1.
         11   -1    0    0    0    0 -0.00000000000E+00 -0.00000000000E+00 -0.45593999997E+02  0.45594000000E+02  0.51100000000E-03 0. -1.
    9900012    2    1    2    0    0  0.23932396791E+02 -0.26098681197E+02 -0.19981621248E+02  0.50528856328E+02  0.29999989295E+02 0.  0.
         12    1    1    2    0    0 -0.23932396791E+02  0.26098681197E+02  0.19981621248E+02  0.40659143672E+02  0.00000000000E+00 0. -1.
         11    1    3    3    0    0 -0.21792465943E+00 -0.87202522283E-01 -0.58442031986E+01  0.58489150041E+01  0.51100000000E-03 0. -1.
        -11    1    3    3    0    0 -0.77192522815E+00 -0.83621790661E+01 -0.11202260421E+02  0.14000448067E+02  0.51100000000E-03 0.  1.
        -12    1    3    3    0    0  0.24922246679E+02 -0.17649299609E+02 -0.29351576292E+01  0.30679493257E+02  0.00000000000E+00 0.  1.
</event>
<event>
 7    1  0.2838209E-011  0.5052887E+02  0.7816164E-02  0.1300439E+00
        -11   -1    0    0    0    0  0.00000000000E+00  0.00000000000E+00  0.45593999997E+02  0.45594000000E+02  0.51100000000E-03 0. -1.
         11   -1    0    0    0    0 -0.00000000000E+00 -0.00000000000E+00 -0.45593999997E+02  0.45594000000E+02  0.51100000000E-03 0.  1.
    9900012    2    1    2    0    0 -0.21397831797E+00  0.39398958820E+02 -0.10041975042E+02  0.50528868116E+02  0.30000025126E+02 0.  0.
         12    1    1    2    0    0  0.21397831797E+00 -0.39398958820E+02  0.10041975042E+02  0.40659131884E+02  0.00000000000E+00 0. -1.
         11    1    3    3    0    0  0.50652391812E+01  0.17740056731E+02  0.10527606354E+01  0.18479030440E+02  0.51100000000E-03 0. -1.
        -11    1    3    3    0    0  0.54154362927E+01  0.49980906850E+01  0.27776094035E+01  0.78754666525E+01  0.51100000000E-03 0.  1.
         12    1    3    3    0    0 -0.10694653792E+02  0.16660811404E+02 -0.13872345081E+02  0.24174371024E+02  0.00000000000E+00 0. -1.
</event>
<event>
 7    1  0.2838209E-011  0.5052885E+02  0.7816164E-02  0.1300439E+00
        -11   -1    0    0    0    0  0.00000000000E+00  0.00000000000E+00  0.45593999997E+02  0.45594000000E+02  0.51100000000E-03 0.  1.
         11   -1    0    0    0    0 -0.00000000000E+00 -0.00000000000E+00 -0.45593999997E+02  0.45594000000E+02  0.51100000000E-03 0. -1.
    9900012    2    1    2    0    0  0.12883067687E+02  0.76834220808E+01  0.37790974292E+02  0.50528854094E+02  0.29999982504E+02 0.  0.
         12    1    1    2    0    0 -0.12883067687E+02 -0.76834220808E+01 -0.37790974292E+02  0.40659145906E+02  0.00000000000E+00 0. -1.
         11    1    3    3    0    0 -0.99104675615E+00  0.12817940636E+02  0.25237157449E+02  0.28323062902E+02  0.51100000000E-03 0. -1.
        -11    1    3    3    0    0  0.25104830666E+01  0.32136655924E+01  0.40072842707E+01  0.57173857011E+01  0.51100000000E-03 0.  1.
         12    1    3    3    0    0  0.11363631377E+02 -0.83481841472E+01  0.85465325723E+01  0.16488405491E+02  0.00000000000E+00 0. -1.
</event>
<event>
 7    1  0.2838209E-011  0.5052887E+02  0.7816164E-02  0.1300439E+00
        -11   -1    0    0    0    0  0.00000000000E+00  0.00000000000E+00  0.45593999997E+02  0.45594000000E+02  0.51100000000E-03 0. -1.
         11   -1    0    0    0    0 -0.00000000000E+00 -0.00000000000E+00 -0.45593999997E+02  0.45594000000E+02  0.51100000000E-03 0.  1.
    9900012    2    1    2    0    0  0.30512757351E+02 -0.26848357759E+02 -0.11412367312E+01  0.50528866994E+02  0.30000021715E+02 0.  0.
         12    1    1    2    0    0 -0.30512757351E+02  0.26848357759E+02  0.11412367312E+01  0.40659133006E+02  0.00000000000E+00 0. -1.
         11    1    3    3    0    0  0.88768938255E+01 -0.10301297347E+01  0.32639056839E+01  0.95138578838E+01  0.51100000000E-03 0. -1.
        -11    1    3    3    0    0  0.19858267863E+02 -0.12791745586E+02 -0.11282396413E+02  0.26177700944E+02  0.51100000000E-03 0.  1.
         12    1    3    3    0    0  0.17775956625E+01 -0.13026482439E+02  0.68772539978E+01  0.14837308166E+02  0.00000000000E+00 0. -1.
</event>
<event>
 7    1  0.2838209E-011  0.5052885E+02  0.7816164E-02  0.1300439E+00
        -11   -1    0    0    0    0  0.00000000000E+00  0.00000000000E+00  0.45593999997E+02  0.45594000000E+02  0.51100000000E-03 0. -1.
         11   -1    0    0    0    0 -0.00000000000E+00 -0.00000000000E+00 -0.45593999997E+02  0.45594000000E+02  0.51100000000E-03 0.  1.
    9900012    2    1    2    0    0  0.14409661798E+02  0.36236409735E+02  0.11508730805E+02  0.50528848160E+02  0.29999964467E+02 0.  0.
         12    1    1    2    0    0 -0.14409661798E+02 -0.36236409735E+02 -0.11508730805E+02  0.40659151840E+02  0.00000000000E+00 0. -1.
         11    1    3    3    0    0 -0.25713169721E+01  0.96122942588E+01  0.57248377678E+01  0.11479618444E+02  0.51100000000E-03 0. -1.
        -11    1    3    3    0    0  0.28483337025E+01  0.24050998785E+02  0.28319565809E+01  0.24384083452E+02  0.51100000000E-03 0.  1.
         12    1    3    3    0    0  0.14132645067E+02  0.25731166908E+01  0.29519364563E+01  0.14665146264E+02  0.00000000000E+00 0. -1.
</event>
<event>
 7    1  0.2838209E-011  0.5052886E+02  0.7816164E-02  0.1300439E+00
        -11   -1    0    0    0    0  0.00000000000E+00  0.00000000000E+00  0.45593999997E+02  0.45594000000E+02  0.51100000000E-03 0.  1.
         11   -1    0    0    0    0 -0.00000000000E+00 -0.00000000000E+00 -0.45593999997E+02  0.45594000000E+02  0.51100000000E-03 0. -1.
    9900012    2    1    2    0    0 -0.31502434565E+01 -0.20897805234E+02  0.34735047072E+02  0.50528858438E+02  0.29999995709E+02 0.  0.
         12    1    1    2    0    0  0.31502434565E+01  0.20897805234E+02 -0.34735047072E+02  0.40659141562E+02  0.00000000000E+00 0. -1.
         11    1    3    3    0    0  0.13996316765E+01 -0.53509302031E+01 -0.36368024049E+01  0.66194980823E+01  0.51100000000E-03 0. -1.
        -11    1    3    3    0    0  0.24550480807E+01  0.10369371802E+01  0.96558042519E+01  0.10016838613E+02  0.51100000000E-03 0.  1.
        -12    1    3    3    0    0 -0.70049232138E+01 -0.16583812211E+02  0.28716045225E+02  0.33892521742E+02  0.00000000000E+00 0.  1.
</event>
<event>
 7    1  0.2838209E-011  0.5052886E+02  0.7816164E-02  0.1300439E+00
        -11   -1    0    0    0    0  0.00000000000E+00  0.00000000000E+00  0.45593999997E+02  0.45594000000E+02  0.51100000000E-03 0.  1.
         11   -1    0    0    0    0 -0.00000000000E+00 -0.00000000000E+00 -0.45593999997E+02  0.45594000000E+02  0.51100000000E-03 0. -1.
    9900012    2    1    2    0    0 -0.67748972156E+01  0.88550492947E+00  0.40080946062E+02  0.50528860947E+02  0.30000003335E+02 0.  0.
         12    1    1    2    0    0  0.67748972156E+01 -0.88550492947E+00 -0.40080946062E+02  0.40659139053E+02  0.00000000000E+00 0. -1.
         11    1    3    3    0    0  0.38344006274E+01 -0.22948902472E+01  0.49504807461E+01  0.66690635997E+01  0.51100000000E-03 0. -1.
        -11    1    3    3    0    0  0.51835737885E+01  0.66714461613E+01  0.20002436839E+02  0.21713477632E+02  0.51100000000E-03 0.  1.
         12    1    3    3    0    0 -0.15792871631E+02 -0.34910509847E+01  0.15128028477E+02  0.22146319716E+02  0.00000000000E+00 0. -1.
</event>
<event>
 7    1  0.2838209E-011  0.5052885E+02  0.7816164E-02  0.1300439E+00
        -11   -1    0    0    0    0  0.00000000000E+00  0.00000000000E+00  0.45593999997E+02  0.45594000000E+02  0.51100000000E-03 0. -1.
         11   -1    0    0    0    0 -0.00000000000E+00 -0.00000000000E+00 -0.45593999997E+02  0.45594000000E+02  0.51100000000E-03 0.  1.
    9900012    2    1    2    0    0 -0.12138338375E+02 -0.26467393499E+02 -0.28377883794E+02  0.50528850160E+02  0.29999970546E+02 0.  0.
         12    1    1    2    0    0  0.12138338375E+02  0.26467393499E+02  0.28377883794E+02  0.40659149840E+02  0.00000000000E+00 0. -1.
         11    1    3    3    0    0 -0.14010292458E+01 -0.15194441494E+02 -0.95902695428E+01  0.18022408424E+02  0.51100000000E-03 0. -1.
        -11    1    3    3    0    0 -0.16587265694E+01 -0.10976717352E+01 -0.18764694577E+02  0.18869817697E+02  0.51100000000E-03 0.  1.
         12    1    3    3    0    0 -0.90785825596E+01 -0.10175280270E+02 -0.22919673781E-01  0.13636624039E+02  0.00000000000E+00 0. -1.
</event>
<event>
 7    1  0.2838209E-011  0.5052887E+02  0.7816164E-02  0.1300439E+00
        -11   -1    0    0    0    0  0.00000000000E+00  0.00000000000E+00  0.45593999997E+02  0.45594000000E+02  0.51100000000E-03 0. -1.
         11   -1    0    0    0    0 -0.00000000000E+00 -0.00000000000E+00 -0.45593999997E+02  0.45594000000E+02  0.51100000000E-03 0.  1.
    9900012    2    1    2    0    0 -0.39669179940E+01  0.46831803245E+01 -0.40193234770E+02  0.50528871411E+02  0.30000035141E+02 0.  0.
         12    1    1    2    0    0  0.39669179940E+01 -0.46831803245E+01  0.40193234770E+02  0.40659128589E+02  0.00000000000E+00 0. -1.
         11    1    3    3    0    0 -0.79794453217E+01  0.87772447205E+01 -0.13686095976E+02  0.18111344397E+02  0.51100000000E-03 0. -1.
        -11    1    3    3    0    0 -0.37953117491E+01  0.39746712076E+01 -0.27599918201E+01  0.61497932965E+01  0.51100000000E-03 0.  1.
        -12    1    3    3    0    0  0.78078390767E+01 -0.80687356036E+01 -0.23747146974E+02  0.26267733718E+02  0.00000000000E+00 0.  1.
</event>
<event>
 7    1  0.2838209E-011  0.5052886E+02  0.7816164E-02  0.1300439E+00
        -11   -1    0    0    0    0  0.00000000000E+00  0.00000000000E+00  0.45593999997E+02  0.45594000000E+02  0.51100000000E-03 0.  1.
         11   -1    0    0    0    0 -0.00000000000E+00 -0.00000000000E+00 -0.45593999997E+02  0.45594000000E+02  0.51100000000E-03 0. -1.
    9900012    2    1    2    0    0 -0.98918372622E+01  0.17516477601E+01  0.39398589122E+02  0.50528861555E+02  0.30000005182E+02 0.  0.
         12    1    1    2    0    0  0.98918372622E+01 -0.17516477601E+01 -0.39398589122E+02  0.40659138445E+02  0.00000000000E+00 0. -1.
         11    1    3    3    0    0 -0.77029117749E+00 -0.26048733087E+01  0.18821994927E+01  0.33047524331E+01  0.51100000000E-03 0.  1.
        -11    1    3    3    0    0  0.89638042399E+01  0.43149995353E+01  0.87711864369E+01  0.13262832247E+02  0.51100000000E-03 0. -1.
         12    1    3    3    0    0 -0.18085350325E+02  0.41521533388E-01  0.28745203192E+02  0.33961276875E+02  0.00000000000E+00 0. -1.
</event>
<event>
 7    1  0.2838209E-011  0.5052886E+02  0.7816164E-02  0.1300439E+00
        -11   -1    0    0    0    0  0.00000000000E+00  0.00000000000E+00  0.45593999997E+02  0.45594000000E+02  0.51100000000E-03 0. -1.
         11   -1    0    0    0    0 -0.00000000000E+00 -0.00000000000E+00 -0.45593999997E+02  0.45594000000E+02  0.51100000000E-03 0.  1.
    9900012    2    1    2    0    0  0.70412603456E+01 -0.28236406291E+02 -0.28395274198E+02  0.50528860999E+02  0.30000003494E+02 0.  0.
         12    1    1    2    0    0 -0.70412603456E+01  0.28236406291E+02  0.28395274198E+02  0.40659139001E+02  0.00000000000E+00 0. -1.
         11    1    3    3    0    0 -0.27993567147E+01 -0.14480901106E+01  0.31947924415E+01  0.44877680410E+01  0.51100000000E-03 0. -1.
        -11    1    3    3    0    0 -0.88041855839E+00 -0.71462138952E+00  0.19320849165E+01  0.22402618048E+01  0.51100000000E-03 0.  1.
        -12    1    3    3    0    0  0.10721035619E+02 -0.26073694790E+02 -0.33522151557E+02  0.43800831154E+02  0.00000000000E+00 0.  1.
</event>
<event>
 7    1  0.2838209E-011  0.5052888E+02  0.7816164E-02  0.1300439E+00
        -11   -1    0    0    0    0  0.00000000000E+00  0.00000000000E+00  0.45593999997E+02  0.45594000000E+02  0.51100000000E-03 0.  1.
         11   -1    0    0    0    0 -0.00000000000E+00 -0.00000000000E+00 -0.45593999997E+02  0.45594000000E+02  0.51100000000E-03 0. -1.
    9900012    2    1    2    0    0 -0.23472788720E+02 -0.38428429690E+01  0.32976126561E+02  0.50528878325E+02  0.30000056157E+02 0.  0.
         12    1    1    2    0    0  0.23472788720E+02  0.38428429690E+01 -0.32976126561E+02  0.40659121675E+02  0.00000000000E+00 0. -1.
         11    1    3    3    0    0 -0.16168155011E+02 -0.14838259346E+01  0.19885680421E+02  0.25671993728E+02  0.51100000000E-03 0. -1.
        -11    1    3    3    0    0 -0.12790708582E+02  0.33278840008E+01  0.77792122921E+01  0.15336009328E+02  0.51100000000E-03 0.  1.
         12    1    3    3    0    0  0.54860748739E+01 -0.56869010352E+01  0.53112338480E+01  0.95208752693E+01  0.00000000000E+00 0. -1.
</event>
<event>
 7    1  0.2838209E-011  0.5052886E+02  0.7816164E-02  0.1300439E+00
        -11   -1    0    0    0    0  0.00000000000E+00  0.00000000000E+00  0.45593999997E+02  0.45594000000E+02  0.51100000000E-03 0.  1.
         11   -1    0    0    0    0 -0.00000000000E+00 -0.00000000000E+00 -0.45593999997E+02  0.45594000000E+02  0.51100000000E-03 0. -1.
    9900012    2    1    2    0    0 -0.20892040002E+02 -0.22979355048E+02  0.26241909962E+02  0.50528856719E+02  0.29999990483E+02 0.  0.
         12    1    1    2    0    0  0.20892040002E+02  0.22979355048E+02 -0.26241909962E+02  0.40659143281E+02  0.00000000000E+00 0. -1.
         11    1    3    3    0    0 -0.14302240208E+02 -0.76958769014E+01  0.19296401333E+00  0.16242469997E+02  0.51100000000E-03 0. -1.
        -11    1    3    3    0    0 -0.60598600765E+01 -0.49189424830E+01  0.19457162162E+01  0.80438617065E+01  0.51100000000E-03 0.  1.
         12    1    3    3    0    0 -0.52993971801E+00 -0.10364535664E+02  0.24103229733E+02  0.26242525015E+02  0.00000000000E+00 0. -1.
</event>
<event>
 7    1  0.2838209E-011  0.5052886E+02  0.7816164E-02  0.1300439E+00
        -11   -1    0    0    0    0  0.00000000000E+00  0.00000000000E+00  0.45593999997E+02  0.45594000000E+02  0.51100000000E-03 0.  1.
         11   -1    0    0    0    0 -0.00000000000E+00 -0.00000000000E+00 -0.45593999997E+02  0.45594000000E+02  0.51100000000E-03 0. -1.
    9900012    2    1    2    0    0 -0.82658021255E+00 -0.32410064114E+02  0.24537111378E+02  0.50528864182E+02  0.30000013166E+02 0.  0.
         12    1    1    2    0    0  0.82658021255E+00  0.32410064114E+02 -0.24537111378E+02  0.40659135818E+02  0.00000000000E+00 0. -1.
         11    1    3    3    0    0  0.47069879709E+01 -0.10402604595E+02  0.58337195897E+01  0.12821942233E+02  0.51100000000E-03 0. -1.
        -11    1    3    3    0    0 -0.81592776460E+01 -0.26291362195E+02  0.14275192237E+02  0.31009525172E+02  0.51100000000E-03 0.  1.
         12    1    3    3    0    0  0.26257094626E+01  0.42839026753E+01  0.44281995516E+01  0.66973967765E+01  0.00000000000E+00 0. -1.
</event>
<event>
 7    1  0.2838209E-011  0.5052895E+02  0.7816164E-02  0.1300438E+00
        -11   -1    0    0    0    0  0.00000000000E+00  0.00000000000E+00  0.45593999997E+02  0.45594000000E+02  0.51100000000E-03 0. -1.
         11   -1    0    0    0    0 -0.00000000000E+00 -0.00000000000E+00 -0.45593999997E+02  0.45594000000E+02  0.51100000000E-03 0.  1.
    9900012    2    1    2    0    0  0.26166342201E+02  0.27671056910E+02  0.14240558049E+02  0.50528949984E+02  0.30000273969E+02 0.  0.
         12    1    1    2    0    0 -0.26166342201E+02 -0.27671056910E+02 -0.14240558049E+02  0.40659050016E+02  0.00000000000E+00 0. -1.
         11    1    3    3    0    0 -0.28530897161E+01 -0.15572586064E+01  0.79489879234E+01  0.85878742749E+01  0.51100000000E-03 0.  1.
        -11    1    3    3    0    0  0.94218159794E+01  0.65444664219E+01  0.11941117965E+01  0.11533714074E+02  0.51100000000E-03 0. -1.
        -12    1    3    3    0    0  0.19597615938E+02  0.22683849094E+02  0.50974583287E+01  0.30407361635E+02  0.00000000000E+00 0.  1.
</event>
<event>
 7    1  0.2838209E-011  0.5052885E+02  0.7816164E-02  0.1300439E+00
        -11   -1    0    0    0    0  0.00000000000E+00  0.00000000000E+00  0.45593999997E+02  0.45594000000E+02  0.51100000000E-03 0. -1.
         11   -1    0    0    0    0 -0.00000000000E+00 -0.00000000000E+00 -0.45593999997E+02  0.45594000000E+02  0.51100000000E-03 0.  1.
    9900012    2    1    2    0    0  0.20051861961E+01  0.40396109271E+02  0.41592914200E+01  0.50528854398E+02  0.29999983429E+02 0.  0.
         12    1    1    2    0    0 -0.20051861961E+01 -0.40396109271E+02 -0.41592914200E+01  0.40659145602E+02  0.00000000000E+00 0. -1.
         11    1    3    3    0    0 -0.25456158919E+01  0.73832249517E+01 -0.26806219638E+01  0.82569913001E+01  0.51100000000E-03 0. -1.
        -11    1    3    3    0    0 -0.55333189046E+01  0.14844000293E+02 -0.69850242549E+01  0.17313362669E+02  0.51100000000E-03 0.  1.
         12    1    3    3    0    0  0.10084120993E+02  0.18168884026E+02  0.13824937639E+02  0.24958500429E+02  0.00000000000E+00 0. -1.
</event>
<event>
 7    1  0.2838209E-011  0.5052886E+02  0.7816164E-02  0.1300439E+00
        -11   -1    0    0    0    0  0.00000000000E+00  0.00000000000E+00  0.45593999997E+02  0.45594000000E+02  0.51100000000E-03 0. -1.
         11   -1    0    0    0    0 -0.00000000000E+00 -0.00000000000E+00 -0.45593999997E+02  0.45594000000E+02  0.51100000000E-03 0.  1.
    9900012    2    1    2    0    0 -0.29500361256E+02  0.70937169489E+01 -0.27066098763E+02  0.50528857896E+02  0.29999994060E+02 0.  0.
         12    1    1    2    0    0  0.29500361256E+02 -0.70937169489E+01  0.27066098763E+02  0.40659142104E+02  0.00000000000E+00 0. -1.
         11    1    3    3    0    0 -0.19002455112E+02  0.44118574093E+01 -0.71709266621E+01  0.20784127972E+02  0.51100000000E-03 0. -1.
        -11    1    3    3    0    0 -0.12877616990E+02 -0.25916918758E+01 -0.55191866376E+01  0.14248203659E+02  0.51100000000E-03 0.  1.
        -12    1    3    3    0    0  0.23797108455E+01  0.52735514154E+01 -0.14375985463E+02  0.15496526265E+02  0.00000000000E+00 0.  1.
</event>
<event>
 7    1  0.2838209E-011  0.5052885E+02  0.7816164E-02  0.1300439E+00
        -11   -1    0    0    0    0  0.00000000000E+00  0.00000000000E+00  0.45593999997E+02  0.45594000000E+02  0.51100000000E-03 0. -1.
         11   -1    0    0    0    0 -0.00000000000E+00 -0.00000000000E+00 -0.45593999997E+02  0.45594000000E+02  0.51100000000E-03 0.  1.
    9900012    2    1    2    0    0  0.10726724948E+01  0.10369459879E+02 -0.39300003924E+02  0.50528848104E+02  0.29999964296E+02 0.  0.
         12    1    1    2    0    0 -0.10726724948E+01 -0.10369459879E+02  0.39300003924E+02  0.40659151896E+02  0.00000000000E+00 0. -1.
         11    1    3    3    0    0 -0.43969713745E+01  0.24354875493E+01 -0.15587997484E+00  0.50288423815E+01  0.51100000000E-03 0. -1.
        -11    1    3    3    0    0 -0.21659287728E+00 -0.28864356165E+01  0.13552987475E+01  0.31961317243E+01  0.51100000000E-03 0.  1.
        -12    1    3    3    0    0  0.56862367466E+01  0.10820407946E+02 -0.40499422697E+02  0.42303873998E+02  0.00000000000E+00 0.  1.
</event>
<event>
 7    1  0.2838209E-011  0.5052894E+02  0.7816164E-02  0.1300439E+00
        -11   -1    0    0    0    0  0.00000000000E+00  0.00000000000E+00  0.45593999997E+02  0.45594000000E+02  0.51100000000E-03 0.  1.
         11   -1    0    0    0    0 -0.00000000000E+00 -0.00000000000E+00 -0.45593999997E+02  0.45594000000E+02  0.51100000000E-03 0. -1.
    9900012    2    1    2    0    0 -0.20475092521E+02 -0.34949103099E+02 -0.35341188895E+01  0.50528939294E+02  0.30000241477E+02 0.  0.
         12    1    1    2    0    0  0.20475092521E+02  0.34949103099E+02  0.35341188895E+01  0.40659060706E+02  0.00000000000E+00 0. -1.
         11    1    3    3    0    0 -0.63733492446E+01 -0.26798287226E+01  0.93979198750E-01  0.69144699672E+01  0.51100000000E-03 0. -1.
        -11    1    3    3    0    0 -0.16348616512E+02 -0.13289012158E+02 -0.10194452126E+02  0.23405169523E+02  0.51100000000E-03 0.  1.
         12    1    3    3    0    0  0.22468732352E+01 -0.18980262218E+02  0.65663540378E+01  0.20209299804E+02  0.00000000000E+00 0. -1.
</event>
<event>
 7    1  0.2838209E-011  0.5052885E+02  0.7816164E-02  0.1300439E+00
        -11   -1    0    0    0    0  0.00000000000E+00  0.00000000000E+00  0.45593999997E+02  0.45594000000E+02  0.51100000000E-03 0.  1.
         11   -1    0    0    0    0 -0.00000000000E+00 -0.00000000000E+00 -0.45593999997E+02  0.45594000000E+02  0.51100000000E-03 0. -1.
    9900012    2    1    2    0    0 -0.35198606530E+02 -0.15268269546E+02  0.13457497862E+02  0.50528853363E+02  0.29999980282E+02 0.  0.
         12    1    1    2    0    0  0.35198606530E+02  0.15268269546E+02 -0.13457497862E+02  0.40659146637E+02  0.00000000000E+00 0. -1.
         11    1    3    3    0    0 -0.22847616214E+02 -0.43959003030E+01  0.29585201477E+01  0.23454004942E+02  0.51100000000E-03 0.  1.
        -11    1    3    3    0    0 -0.15714110878E+01 -0.63099334555E+01 -0.46035186678E+01  0.79672440282E+01  0.51100000000E-03 0. -1.
        -12    1    3    3    0    0 -0.10779579228E+02 -0.45624357874E+01  0.15102496382E+02  0.19107604392E+02  0.00000000000E+00 0.  1.
</event>
<event>
 7    1  0.2838209E-011  0.5052886E+02  0.7816164E-02  0.1300439E+00
        -11   -1    0    0    0    0  0.00000000000E+00  0.00000000000E+00  0.45593999997E+02  0.45594000000E+02  0.51100000000E-03 0.  1.
         11   -1    0    0    0    0 -0.00000000000E+00 -0.00000000000E+00 -0.45593999997E+02  0.45594000000E+02  0.51100000000E-03 0. -1.
    9900012    2    1    2    0    0  0.24341799271E+02 -0.26723060573E+01  0.32457684508E+02  0.50528859637E+02  0.29999999352E+02 0.  0.
         12    1    1    2    0    0 -0.24341799271E+02  0.26723060573E+01 -0.32457684508E+02  0.40659140363E+02  0.00000000000E+00 0. -1.
         11    1    3    3    0    0  0.53790558559E+01  0.10252020812E+02  0.11186217632E+02  0.16098746467E+02  0.51100000000E-03 0. -1.
        -11    1    3    3    0    0  0.82379852660E-01 -0.67087988504E+01  0.83951274816E+01  0.10746763892E+02  0.51100000000E-03 0.  1.
        -12    1    3    3    0    0  0.18880363563E+02 -0.62155280186E+01  0.12876339395E+02  0.23683349278E+02  0.00000000000E+00 0.  1.
</event>
<event>
 7    1  0.2838209E-011  0.5052889E+02  0.7816164E-02  0.1300439E+00
        -11   -1    0    0    0    0  0.00000000000E+00  0.00000000000E+00  0.45593999997E+02  0.45594000000E+02  0.51100000000E-03 0.  1.
         11   -1    0    0    0    0 -0.00000000000E+00 -0.00000000000E+00 -0.45593999997E+02  0.45594000000E+02  0.51100000000E-03 0. -1.
    9900012    2    1    2    0    0  0.17270674440E+02 -0.57563466064E+00  0.36804292702E+02  0.50528886481E+02  0.30000080948E+02 0.  0.
         12    1    1    2    0    0 -0.17270674440E+02  0.57563466064E+00 -0.36804292702E+02  0.40659113519E+02  0.00000000000E+00 0. -1.
         11    1    3    3    0    0  0.82931971706E+01 -0.97636210889E+01  0.24780065410E+02  0.27895466622E+02  0.51100000000E-03 0. -1.
        -11    1    3    3    0    0  0.99103014088E+00 -0.21547021744E+01  0.77693629102E+01  0.81232925893E+01  0.51100000000E-03 0.  1.
         12    1    3    3    0    0  0.79864471288E+01  0.11342688603E+02  0.42548643814E+01  0.14510127270E+02  0.00000000000E+00 0. -1.
</event>
<event>
 7    1  0.2838209E-011  0.5052888E+02  0.7816164E-02  0.1300439E+00
        -11   -1    0    0    0    0  0.00000000000E+00  0.00000000000E+00  0.45593999997E+02  0.45594000000E+02  0.51100000000E-03 0. -1.
         11   -1    0    0    0    0 -0.00000000000E+00 -0.00000000000E+00 -0.45593999997E+02  0.45594000000E+02  0.51100000000E-03 0.  1.
    9900012    2    1    2    0    0 -0.11612039093E+02  0.29402230566E+02 -0.25570173327E+02  0.50528875832E+02  0.30000048578E+02 0.  0.
         12    1    1    2    0    0  0.11612039093E+02 -0.29402230566E+02  0.25570173327E+02  0.40659124168E+02  0.00000000000E+00 0. -1.
         11    1    3    3    0    0 -0.65195169880E+01  0.19851370288E+02 -0.11849125502E+02  0.24020465847E+02  0.51100000000E-03 0. -1.
        -11    1    3    3    0    0 -0.80185957390E+01  0.99345305569E+01 -0.30383178623E+00  0.12770477243E+02  0.51100000000E-03 0.  1.
         12    1    3    3    0    0  0.29260736338E+01 -0.38367027862E+00 -0.13417216039E+02  0.13737932742E+02  0.00000000000E+00 0. -1.
</event>
<event>
 7    1  0.2838209E-011  0.5052884E+02  0.7816164E-02  0.1300439E+00
        -11   -1    0    0    0    0  0.00000000000E+00  0.00000000000E+00  0.45593999997E+02  0.45594000000E+02  0.51100000000E-03 0. -1.
         11   -1    0    0    0    0 -0.00000000000E+00 -0.00000000000E+00 -0.45593999997E+02  0.45594000000E+02  0.51100000000E-03 0.  1.
    9900012    2    1    2    0    0 -0.42358795705E+01  0.38712612375E+02  0.11685829916E+02  0.50528835554E+02  0.29999926151E+02 0.  0.
         12    1    1    2    0    0  0.42358795705E+01 -0.38712612375E+02 -0.11685829916E+02  0.40659164446E+02  0.00000000000E+00 0. -1.
         11    1    3    3    0    0  0.50030830260E+01  0.82853719139E+01  0.11598752516E+02  0.15106597489E+02  0.51100000000E-03 0. -1.
        -11    1    3    3    0    0 -0.45304032979E+01  0.25579316437E+02  0.57487709792E+01  0.26605908205E+02  0.51100000000E-03 0.  1.
        -12    1    3    3    0    0 -0.47085592986E+01  0.48479240241E+01 -0.56616935790E+01  0.88163298597E+01  0.00000000000E+00 0.  1.
</event>
<event>
 7    1  0.2838209E-011  0.5052882E+02  0.7816164E-02  0.1300439E+00
        -11   -1    0    0    0    0  0.00000000000E+00  0.00000000000E+00  0.45593999997E+02  0.45594000000E+02  0.51100000000E-03 0.  1.
         11   -1    0    0    0    0 -0.00000000000E+00 -0.00000000000E+00 -0.45593999997E+02  0.45594000000E+02  0.51100000000E-03 0. -1.
    9900012    2    1    2    0    0  0.67986562950E+01  0.14267072999E+02  0.37461954747E+02  0.50528817116E+02  0.29999870105E+02 0.  0.
         12    1    1    2    0    0 -0.67986562950E+01 -0.14267072999E+02 -0.37461954747E+02  0.40659182884E+02  0.00000000000E+00 0. -1.
         11    1    3    3    0    0  0.59483506423E+01  0.16034385261E+02  0.88560085640E+01  0.19259108859E+02  0.51100000000E-03 0. -1.
        -11    1    3    3    0    0 -0.20194885993E+01  0.13646974718E+01  0.89926850759E-01  0.24390203960E+01  0.51100000000E-03 0.  1.
        -12    1    3    3    0    0  0.28697942521E+01 -0.31320097341E+01  0.28516019332E+02  0.28830687861E+02  0.00000000000E+00 0.  1.
</event>
<event>
 7    1  0.2838209E-011  0.5052882E+02  0.7816164E-02  0.1300439E+00
        -11   -1    0    0    0    0  0.00000000000E+00  0.00000000000E+00  0.45593999997E+02  0.45594000000E+02  0.51100000000E-03 0.  1.
         11   -1    0    0    0    0 -0.00000000000E+00 -0.00000000000E+00 -0.45593999997E+02  0.45594000000E+02  0.51100000000E-03 0. -1.
    9900012    2    1    2    0    0  0.24360777577E+02  0.11386794247E+02  0.30496925381E+02  0.50528818687E+02  0.29999874879E+02 0.  0.
         12    1    1    2    0    0 -0.24360777577E+02 -0.11386794247E+02 -0.30496925381E+02  0.40659181313E+02  0.00000000000E+00 0. -1.
         11    1    3    3    0    0  0.67075765983E+00  0.10473968358E+02  0.99415001729E+01  0.14456394950E+02  0.51100000000E-03 0. -1.
        -11    1    3    3    0    0  0.10243050703E+02  0.74514277867E+01  0.30088908955E+01  0.13019112430E+02  0.51100000000E-03 0.  1.
        -12    1    3    3    0    0  0.13446969213E+02 -0.65386018982E+01  0.17546534313E+02  0.23053311307E+02  0.00000000000E+00 0.  1.
</event>
<event>
 7    1  0.2838209E-011  0.5052887E+02  0.7816164E-02  0.1300439E+00
        -11   -1    0    0    0    0  0.00000000000E+00  0.00000000000E+00  0.45593999997E+02  0.45594000000E+02  0.51100000000E-03 0. -1.
         11   -1    0    0    0    0 -0.00000000000E+00 -0.00000000000E+00 -0.45593999997E+02  0.45594000000E+02  0.51100000000E-03 0.  1.
    9900012    2    1    2    0    0 -0.28232696145E+02  0.13195998360E+02 -0.26114079356E+02  0.50528872550E+02  0.30000038604E+02 0.  0.
         12    1    1    2    0    0  0.28232696145E+02 -0.13195998360E+02  0.26114079356E+02  0.40659127450E+02  0.00000000000E+00 0. -1.
         11    1    3    3    0    0  0.10931829776E+01 -0.45515254017E+01 -0.71282176266E+01  0.85277734080E+01  0.51100000000E-03 0.  1.
        -11    1    3    3    0    0 -0.21669696426E+02  0.46932595238E+01 -0.93694453644E+01  0.24070499265E+02  0.51100000000E-03 0. -1.
         12    1    3    3    0    0 -0.76561826969E+01  0.13054264238E+02 -0.96164163649E+01  0.17930599878E+02  0.00000000000E+00 0. -1.
</event>
<event>
 7    1  0.2838209E-011  0.5052890E+02  0.7816164E-02  0.1300439E+00
        -11   -1    0    0    0    0  0.00000000000E+00  0.00000000000E+00  0.45593999997E+02  0.45594000000E+02  0.51100000000E-03 0. -1.
         11   -1    0    0    0    0 -0.00000000000E+00 -0.00000000000E+00 -0.45593999997E+02  0.45594000000E+02  0.51100000000E-03 0.  1.
    9900012    2    1    2    0    0  0.39529213438E+02  0.12970800925E+01  0.94297923383E+01  0.50528903658E+02  0.30000133159E+02 0.  0.
         12    1    1    2    0    0 -0.39529213438E+02 -0.12970800925E+01 -0.94297923383E+01  0.40659096342E+02  0.00000000000E+00 0. -1.
         11    1    3    3    0    0 -0.83964093982E-02  0.10309349593E+01 -0.88070243012E-01  0.10347241269E+01  0.51100000000E-03 0. -1.
        -11    1    3    3    0    0  0.14952892689E+02 -0.11300876763E+02  0.11929608905E+02  0.22217434241E+02  0.51100000000E-03 0.  1.
        -12    1    3    3    0    0  0.24584717159E+02  0.11567021896E+02 -0.24117463238E+01  0.27276745290E+02  0.00000000000E+00 0.  1.
</event>
<event>
 7    1  0.2838209E-011  0.5052886E+02  0.7816164E-02  0.1300439E+00
        -11   -1    0    0    0    0  0.00000000000E+00  0.00000000000E+00  0.45593999997E+02  0.45594000000E+02  0.51100000000E-03 0.  1.
         11   -1    0    0    0    0 -0.00000000000E+00 -0.00000000000E+00 -0.45593999997E+02  0.45594000000E+02  0.51100000000E-03 0. -1.
    9900012    2    1    2    0    0 -0.12517057729E+02  0.94421878974E+01  0.37514453181E+02  0.50528857806E+02  0.29999993786E+02 0.  0.
         12    1    1    2    0    0  0.12517057729E+02 -0.94421878974E+01 -0.37514453181E+02  0.40659142194E+02  0.00000000000E+00 0. -1.
         11    1    3    3    0    0 -0.55974331529E+00 -0.36282019973E+01  0.67621716226E+01  0.76944218514E+01  0.51100000000E-03 0. -1.
        -11    1    3    3    0    0 -0.11390627488E+02  0.71938678896E+01  0.33658171870E+02  0.36254250285E+02  0.51100000000E-03 0.  1.
        -12    1    3    3    0    0 -0.56668692532E+00  0.58765220051E+01 -0.29058903115E+01  0.65801856699E+01  0.00000000000E+00 0.  1.
</event>
<event>
 7    1  0.2838209E-011  0.5052874E+02  0.7816164E-02  0.1300439E+00
        -11   -1    0    0    0    0  0.00000000000E+00  0.00000000000E+00  0.45593999997E+02  0.45594000000E+02  0.51100000000E-03 0.  1.
         11   -1    0    0    0    0 -0.00000000000E+00 -0.00000000000E+00 -0.45593999997E+02  0.45594000000E+02  0.51100000000E-03 0. -1.
    9900012    2    1    2    0    0  0.38492449632E+02  0.12047555306E+02  0.51345055316E+01  0.50528740113E+02  0.29999636045E+02 0.  0.
         12    1    1    2    0    0 -0.38492449632E+02 -0.12047555306E+02 -0.51345055316E+01  0.40659259887E+02  0.00000000000E+00 0. -1.
         11    1    3    3    0    0  0.60989002040E+00 -0.52395863182E+01  0.63512463325E-01  0.52753449856E+01  0.51100000000E-03 0. -1.
        -11    1    3    3    0    0  0.21107301652E+02  0.10310477662E+01  0.56918261522E+01  0.21885568938E+02  0.51100000000E-03 0.  1.
         12    1    3    3    0    0  0.16775257959E+02  0.16256093857E+02 -0.62083308385E+00  0.23367826189E+02  0.00000000000E+00 0. -1.
</event>
<event>
 7    1  0.2838209E-011  0.5052886E+02  0.7816164E-02  0.1300439E+00
        -11   -1    0    0    0    0  0.00000000000E+00  0.00000000000E+00  0.45593999997E+02  0.45594000000E+02  0.51100000000E-03 0. -1.
         11   -1    0    0    0    0 -0.00000000000E+00 -0.00000000000E+00 -0.45593999997E+02  0.45594000000E+02  0.51100000000E-03 0.  1.
    9900012    2    1    2    0    0  0.38751352749E+01 -0.35006347620E+02  0.20315124735E+02  0.50528864002E+02  0.30000012619E+02 0.  0.
         12    1    1    2    0    0 -0.38751352749E+01  0.35006347620E+02 -0.20315124735E+02  0.40659135998E+02  0.00000000000E+00 0. -1.
         11    1    3    3    0    0 -0.45243187872E+01 -0.16815860573E+02  0.13443436923E+02  0.21999286895E+02  0.51100000000E-03 0. -1.
        -11    1    3    3    0    0  0.67273718132E+01  0.20987681112E+01  0.12800839516E-01  0.70471641970E+01  0.51100000000E-03 0.  1.
         12    1    3    3    0    0  0.16720822489E+01 -0.20289255158E+02  0.68588869730E+01  0.21482412910E+02  0.00000000000E+00 0. -1.
</event>
<event>
 7    1  0.2838209E-011  0.5052882E+02  0.7816164E-02  0.1300439E+00
        -11   -1    0    0    0    0  0.00000000000E+00  0.00000000000E+00  0.45593999997E+02  0.45594000000E+02  0.51100000000E-03 0.  1.
         11   -1    0    0    0    0 -0.00000000000E+00 -0.00000000000E+00 -0.45593999997E+02  0.45594000000E+02  0.51100000000E-03 0. -1.
    9900012    2    1    2    0    0 -0.12579859049E+02  0.12159295633E+02  0.36702424789E+02  0.50528815190E+02  0.29999864252E+02 0.  0.
         12    1    1    2    0    0  0.12579859049E+02 -0.12159295633E+02 -0.36702424789E+02  0.40659184810E+02  0.00000000000E+00 0. -1.
         11    1    3    3    0    0 -0.37120915757E+01 -0.92179575796E+00  0.14951892359E+02  0.15433354031E+02  0.51100000000E-03 0.  1.
        -11    1    3    3    0    0 -0.68073881695E+01  0.12796139037E+02  0.26335579965E+02  0.30060679971E+02  0.51100000000E-03 0. -1.
         12    1    3    3    0    0 -0.20603793036E+01  0.28495235333E+00 -0.45850475345E+01  0.50347811881E+01  0.00000000000E+00 0. -1.
</event>
<event>
 7    1  0.2838209E-011  0.5052887E+02  0.7816164E-02  0.1300439E+00
        -11   -1    0    0    0    0  0.00000000000E+00  0.00000000000E+00  0.45593999997E+02  0.45594000000E+02  0.51100000000E-03 0. -1.
         11   -1    0    0    0    0 -0.00000000000E+00 -0.00000000000E+00 -0.45593999997E+02  0.45594000000E+02  0.51100000000E-03 0.  1.
    9900012    2    1    2    0    0  0.21457383656E+02 -0.26971358889E+02  0.21570609786E+02  0.50528871624E+02  0.30000035789E+02 0.  0.
         12    1    1    2    0    0 -0.21457383656E+02  0.26971358889E+02 -0.21570609786E+02  0.40659128376E+02  0.00000000000E+00 0. -1.
         11    1    3    3    0    0  0.30810918482E+01  0.13350438647E+00 -0.10550760697E+01  0.32594686947E+01  0.51100000000E-03 0. -1.
        -11    1    3    3    0    0  0.66730035279E+01  0.41549197995E+01  0.64968907803E+01  0.10198133393E+02  0.51100000000E-03 0.  1.
         12    1    3    3    0    0  0.11703288280E+02 -0.31259783075E+02  0.16128795076E+02  0.37071269537E+02  0.00000000000E+00 0. -1.
</event>
<event>
 7    1  0.2838209E-011  0.5052886E+02  0.7816164E-02  0.1300439E+00
        -11   -1    0    0    0    0  0.00000000000E+00  0.00000000000E+00  0.45593999997E+02  0.45594000000E+02  0.51100000000E-03 0.  1.
         11   -1    0    0    0    0 -0.00000000000E+00 -0.00000000000E+00 -0.45593999997E+02  0.45594000000E+02  0.51100000000E-03 0. -1.
    9900012    2    1    2    0    0 -0.95373664005E+01  0.37058766217E+02  0.13742359744E+02  0.50528856345E+02  0.29999989348E+02 0.  0.
         12    1    1    2    0    0  0.95373664005E+01 -0.37058766217E+02 -0.13742359744E+02  0.40659143655E+02  0.00000000000E+00 0. -1.
         11    1    3    3    0    0  0.39817481201E+01  0.25940634078E+02  0.15686843562E+02  0.30575282103E+02  0.51100000000E-03 0. -1.
        -11    1    3    3    0    0 -0.10622820199E+01  0.51078589338E+01 -0.31096545861E+01  0.60736000760E+01  0.51100000000E-03 0.  1.
        -12    1    3    3    0    0 -0.12456832501E+02  0.60102732051E+01  0.11651707687E+01  0.13879974167E+02  0.00000000000E+00 0.  1.
</event>
<event>
 7    1  0.2838209E-011  0.5052890E+02  0.7816164E-02  0.1300439E+00
        -11   -1    0    0    0    0  0.00000000000E+00  0.00000000000E+00  0.45593999997E+02  0.45594000000E+02  0.51100000000E-03 0.  1.
         11   -1    0    0    0    0 -0.00000000000E+00 -0.00000000000E+00 -0.45593999997E+02  0.45594000000E+02  0.51100000000E-03 0. -1.
    9900012    2    1    2    0    0 -0.96093634030E+00 -0.29140760951E+02  0.28338232830E+02  0.50528895393E+02  0.30000108038E+02 0.  0.
         12    1    1    2    0    0  0.96093634030E+00  0.29140760951E+02 -0.28338232830E+02  0.40659104607E+02  0.00000000000E+00 0. -1.
         11    1    3    3    0    0  0.90237741150E+01 -0.14188130586E+02  0.48584447964E+01  0.17502457968E+02  0.51100000000E-03 0.  1.
        -11    1    3    3    0    0  0.37111854331E+01 -0.45744343711E+01  0.44228909927E+01  0.73661599310E+01  0.51100000000E-03 0. -1.
        -12    1    3    3    0    0 -0.13695895888E+02 -0.10378195994E+02  0.19056897041E+02  0.25660277495E+02  0.00000000000E+00 0.  1.
</event>
<event>
 7    1  0.2838209E-011  0.5052877E+02  0.7816164E-02  0.1300439E+00
        -11   -1    0    0    0    0  0.00000000000E+00  0.00000000000E+00  0.45593999997E+02  0.45594000000E+02  0.51100000000E-03 0.  1.
         11   -1    0    0    0    0 -0.00000000000E+00 -0.00000000000E+00 -0.45593999997E+02  0.45594000000E+02  0.51100000000E-03 0. -1.
    9900012    2    1    2    0    0  0.10185124736E+02 -0.36637150811E+02  0.14392889235E+02  0.50528771700E+02  0.29999732058E+02 0.  0.
         12    1    1    2    0    0 -0.10185124736E+02  0.36637150811E+02 -0.14392889235E+02  0.40659228300E+02  0.00000000000E+00 0. -1.
         11    1    3    3    0    0  0.43383709715E+01  0.23399584728E+01  0.27361370750E+01  0.56376692609E+01  0.51100000000E-03 0. -1.
        -11    1    3    3    0    0  0.82904795080E+01 -0.66554607328E+01  0.52219450589E+01  0.11844657804E+02  0.51100000000E-03 0.  1.
        -12    1    3    3    0    0 -0.24437257439E+01 -0.32321648551E+02  0.64348071009E+01  0.33046444635E+02  0.00000000000E+00 0.  1.
</event>
<event>
 7    1  0.2838209E-011  0.5052886E+02  0.7816164E-02  0.1300439E+00
        -11   -1    0    0    0    0  0.00000000000E+00  0.00000000000E+00  0.45593999997E+02  0.45594000000E+02  0.51100000000E-03 0.  1.
         11   -1    0    0    0    0 -0.00000000000E+00 -0.00000000000E+00 -0.45593999997E+02  0.45594000000E+02  0.51100000000E-03 0. -1.
    9900012    2    1    2    0    0 -0.28108693042E+02  0.80858669491E+01  0.28243335335E+02  0.50528857612E+02  0.29999993199E+02 0.  0.
         12    1    1    2    0    0  0.28108693042E+02 -0.80858669491E+01 -0.28243335335E+02  0.40659142388E+02  0.00000000000E+00 0. -1.
         11    1    3    3    0    0 -0.56806432590E+01  0.19689275809E+01  0.11721266278E+01  0.61253787432E+01  0.51100000000E-03 0.  1.
        -11    1    3    3    0    0 -0.14196578177E+02 -0.24174600714E+01 -0.48018549617E+00  0.14408939014E+02  0.51100000000E-03 0. -1.
        -12    1    3    3    0    0 -0.82314716060E+01  0.85343994396E+01  0.27551394203E+02  0.29994539855E+02  0.00000000000E+00 0.  1.
</event>
<event>
 7    1  0.2838209E-011  0.5052886E+02  0.7816164E-02  0.1300439E+00
        -11   -1    0    0    0    0  0.00000000000E+00  0.00000000000E+00  0.45593999997E+02  0.45594000000E+02  0.51100000000E-03 0. -1.
         11   -1    0    0    0    0 -0.00000000000E+00 -0.00000000000E+00 -0.45593999997E+02  0.45594000000E+02  0.51100000000E-03 0.  1.
    9900012    2    1    2    0    0 -0.35552115710E+02 -0.36666086194E+01 -0.19384750470E+02  0.50528862023E+02  0.30000006605E+02 0.  0.
         12    1    1    2    0    0  0.35552115710E+02  0.36666086194E+01  0.19384750470E+02  0.40659137977E+02  0.00000000000E+00 0. -1.
         11    1    3    3    0    0 -0.20706489456E+02 -0.90506554582E+01 -0.70671192497E+01  0.23677357213E+02  0.51100000000E-03 0. -1.
        -11    1    3    3    0    0 -0.44801253011E+01 -0.29287704858E+01  0.33453161257E+01  0.63119220142E+01  0.51100000000E-03 0.  1.
        -12    1    3    3    0    0 -0.10365500953E+02  0.83128173246E+01 -0.15662947346E+02  0.20539582796E+02  0.00000000000E+00 0.  1.
</event>
<event>
 7    1  0.2838209E-011  0.5052885E+02  0.7816164E-02  0.1300439E+00
        -11   -1    0    0    0    0  0.00000000000E+00  0.00000000000E+00  0.45593999997E+02  0.45594000000E+02  0.51100000000E-03 0.  1.
         11   -1    0    0    0    0 -0.00000000000E+00 -0.00000000000E+00 -0.45593999997E+02  0.45594000000E+02  0.51100000000E-03 0. -1.
    9900012    2    1    2    0    0  0.28342055357E+02 -0.25258222482E+02  0.14557352258E+02  0.50528850850E+02  0.29999972645E+02 0.  0.
         12    1    1    2    0    0 -0.28342055357E+02  0.25258222482E+02 -0.14557352258E+02  0.40659149150E+02  0.00000000000E+00 0. -1.
         11    1    3    3    0    0  0.11539121203E+02 -0.11692374824E+02  0.50670796973E+01  0.17191225788E+02  0.51100000000E-03 0. -1.
        -11    1    3    3    0    0  0.93263300980E+01 -0.13546912108E+02  0.16349946046E+02  0.23190946439E+02  0.51100000000E-03 0.  1.
         12    1    3    3    0    0  0.74766040559E+01 -0.18935550153E-01 -0.68596734857E+01  0.10146678624E+02  0.00000000000E+00 0. -1.
</event>
<event>
 7    1  0.2838209E-011  0.5052884E+02  0.7816164E-02  0.1300439E+00
        -11   -1    0    0    0    0  0.00000000000E+00  0.00000000000E+00  0.45593999997E+02  0.45594000000E+02  0.51100000000E-03 0. -1.
         11   -1    0    0    0    0 -0.00000000000E+00 -0.00000000000E+00 -0.45593999997E+02  0.45594000000E+02  0.51100000000E-03 0.  1.
    9900012    2    1    2    0    0  0.21403829647E+02  0.34395498635E+02  0.34631476974E+01  0.50528835696E+02  0.29999926582E+02 0.  0.
         12    1    1    2    0    0 -0.21403829647E+02 -0.34395498635E+02 -0.34631476974E+01  0.40659164304E+02  0.00000000000E+00 0. -1.
         11    1    3    3    0    0 -0.59279940505E+01  0.92062999959E+01 -0.77748956214E+00  0.10977320409E+02  0.51100000000E-03 0. -1.
        -11    1    3    3    0    0 -0.53604985840E+00  0.17119872065E+01 -0.18839389273E+01  0.26014372544E+01  0.51100000000E-03 0.  1.
        -12    1    3    3    0    0  0.27867873555E+02  0.23477211433E+02  0.61245761869E+01  0.36950078033E+02  0.00000000000E+00 0.  1.
</event>
<event>
 7    1  0.2838209E-011  0.5052885E+02  0.7816164E-02  0.1300439E+00
        -11   -1    0    0    0    0  0.00000000000E+00  0.00000000000E+00  0.45593999997E+02  0.45594000000E+02  0.51100000000E-03 0.  1.
         11   -1    0    0    0    0 -0.00000000000E+00 -0.00000000000E+00 -0.45593999997E+02  0.45594000000E+02  0.51100000000E-03 0. -1.
    9900012    2    1    2    0    0 -0.16719180590E+02  0.21236628125E+02  0.30375010162E+02  0.50528848312E+02  0.29999964928E+02 0.  0.
         12    1    1    2    0    0  0.16719180590E+02 -0.21236628125E+02 -0.30375010162E+02  0.40659151688E+02  0.00000000000E+00 0. -1.
         11    1    3    3    0    0  0.57045873249E+01  0.71037916860E+01  0.12560639597E+02  0.15516953316E+02  0.51100000000E-03 0. -1.
        -11    1    3    3    0    0  0.92140986212E+00  0.47568370786E+01  0.16952471707E+01  0.51332600127E+01  0.51100000000E-03 0.  1.
        -12    1    3    3    0    0 -0.23345177777E+02  0.93759993599E+01  0.16119123394E+02  0.29878634983E+02  0.00000000000E+00 0.  1.
</event>
<event>
 7    1  0.2838209E-011  0.5052886E+02  0.7816164E-02  0.1300439E+00
        -11   -1    0    0    0    0  0.00000000000E+00  0.00000000000E+00  0.45593999997E+02  0.45594000000E+02  0.51100000000E-03 0.  1.
         11   -1    0    0    0    0 -0.00000000000E+00 -0.00000000000E+00 -0.45593999997E+02  0.45594000000E+02  0.51100000000E-03 0. -1.
    9900012    2    1    2    0    0 -0.19120490563E+02 -0.12648397900E+02  0.33579613563E+02  0.50528861103E+02  0.30000003808E+02 0.  0.
         12    1    1    2    0    0  0.19120490563E+02  0.12648397900E+02 -0.33579613563E+02  0.40659138897E+02  0.00000000000E+00 0. -1.
         11    1    3    3    0    0  0.76680891279E+00 -0.38195816774E+01  0.52301652476E+01  0.65216431118E+01  0.51100000000E-03 0. -1.
        -11    1    3    3    0    0 -0.88362520326E+01 -0.13717046541E+02  0.39631092071E+01  0.16791156918E+02  0.51100000000E-03 0.  1.
        -12    1    3    3    0    0 -0.11051047443E+02  0.48882303179E+01  0.24386339108E+02  0.27216061073E+02  0.00000000000E+00 0.  1.
</event>
<event>
 7    1  0.2838209E-011  0.5052886E+02  0.7816164E-02  0.1300439E+00
        -11   -1    0    0    0    0  0.00000000000E+00  0.00000000000E+00  0.45593999997E+02  0.45594000000E+02  0.51100000000E-03 0.  1.
         11   -1    0    0    0    0 -0.00000000000E+00 -0.00000000000E+00 -0.45593999997E+02  0.45594000000E+02  0.51100000000E-03 0. -1.
    9900012    2    1    2    0    0 -0.83103635465E+00 -0.40294996895E+02 -0.53654759291E+01  0.50528859230E+02  0.29999998115E+02 0.  0.
         12    1    1    2    0    0  0.83103635465E+00  0.40294996895E+02  0.53654759291E+01  0.40659140770E+02  0.00000000000E+00 0. -1.
         11    1    3    3    0    0 -0.11295942973E+02 -0.18977819670E+02 -0.86132964512E+01  0.23705375827E+02  0.51100000000E-03 0. -1.
        -11    1    3    3    0    0  0.59580977349E+01 -0.16313101903E+01 -0.79283653463E+00  0.62280568067E+01  0.51100000000E-03 0.  1.
        -12    1    3    3    0    0  0.45068088834E+01 -0.19685867035E+02  0.40406570567E+01  0.20595426596E+02  0.00000000000E+00 0.  1.
</event>
<event>
 7    1  0.2838209E-011  0.5052891E+02  0.7816164E-02  0.1300439E+00
        -11   -1    0    0    0    0  0.00000000000E+00  0.00000000000E+00  0.45593999997E+02  0.45594000000E+02  0.51100000000E-03 0. -1.
         11   -1    0    0    0    0 -0.00000000000E+00 -0.00000000000E+00 -0.45593999997E+02  0.45594000000E+02  0.51100000000E-03 0.  1.
    9900012    2    1    2    0    0 -0.29445054353E+02  0.27232993555E+02  0.66719432832E+01  0.50528905187E+02  0.30000137807E+02 0.  0.
         12    1    1    2    0    0  0.29445054353E+02 -0.27232993555E+02 -0.66719432832E+01  0.40659094813E+02  0.00000000000E+00 0. -1.
         11    1    3    3    0    0 -0.97250393196E+00  0.21883214283E+00  0.67948593881E+00  0.12063800423E+01  0.51100000000E-03 0.  1.
        -11    1    3    3    0    0 -0.25066750543E+02  0.13010763414E+02 -0.78780388151E+01  0.29320392959E+02  0.51100000000E-03 0. -1.
         12    1    3    3    0    0 -0.34057998777E+01  0.14003397998E+02  0.13870496159E+02  0.20002132186E+02  0.00000000000E+00 0. -1.
</event>
<event>
 7    1  0.2838209E-011  0.5052886E+02  0.7816164E-02  0.1300439E+00
        -11   -1    0    0    0    0  0.00000000000E+00  0.00000000000E+00  0.45593999997E+02  0.45594000000E+02  0.51100000000E-03 0.  1.
         11   -1    0    0    0    0 -0.00000000000E+00 -0.00000000000E+00 -0.45593999997E+02  0.45594000000E+02  0.51100000000E-03 0. -1.
    9900012    2    1    2    0    0  0.30238196064E+02 -0.69162993781E+01  0.26286531783E+02  0.50528862632E+02  0.30000008457E+02 0.  0.
         12    1    1    2    0    0 -0.30238196064E+02  0.69162993781E+01 -0.26286531783E+02  0.40659137368E+02  0.00000000000E+00 0. -1.
         11    1    3    3    0    0  0.26913655283E+01  0.45153909715E+01  0.15335260946E+02  0.16211182331E+02  0.51100000000E-03 0. -1.
        -11    1    3    3    0    0  0.63637907068E+00  0.11306866666E+01 -0.16138170546E+01  0.20707091554E+01  0.51100000000E-03 0.  1.
        -12    1    3    3    0    0  0.26910451465E+02 -0.12562377016E+02  0.12565087892E+02  0.32246971146E+02  0.00000000000E+00 0.  1.
</event>
<event>
 7    1  0.2838209E-011  0.5052886E+02  0.7816164E-02  0.1300439E+00
        -11   -1    0    0    0    0  0.00000000000E+00  0.00000000000E+00  0.45593999997E+02  0.45594000000E+02  0.51100000000E-03 0.  1.
         11   -1    0    0    0    0 -0.00000000000E+00 -0.00000000000E+00 -0.45593999997E+02  0.45594000000E+02  0.51100000000E-03 0. -1.
    9900012    2    1    2    0    0  0.48382689919E+01  0.94290204278E+01  0.39253663092E+02  0.50528864013E+02  0.30000012653E+02 0.  0.
         12    1    1    2    0    0 -0.48382689919E+01 -0.94290204278E+01 -0.39253663092E+02  0.40659135987E+02  0.00000000000E+00 0. -1.
         11    1    3    3    0    0  0.95942806150E+01  0.70644348904E+00  0.34865537872E+02  0.36168425654E+02  0.51100000000E-03 0.  1.
        -11    1    3    3    0    0  0.25185497969E+01  0.31752397513E+00  0.52386644507E+00  0.25919781766E+01  0.51100000000E-03 0. -1.
         12    1    3    3    0    0 -0.72745614200E+01  0.84050529637E+01  0.38642587748E+01  0.11768460182E+02  0.00000000000E+00 0. -1.
</event>
<event>
 7    1  0.2838209E-011  0.5052887E+02  0.7816164E-02  0.1300439E+00
        -11   -1    0    0    0    0  0.00000000000E+00  0.00000000000E+00  0.45593999997E+02  0.45594000000E+02  0.51100000000E-03 0. -1.
         11   -1    0    0    0    0 -0.00000000000E+00 -0.00000000000E+00 -0.45593999997E+02  0.45594000000E+02  0.51100000000E-03 0.  1.
    9900012    2    1    2    0    0  0.84971110016E+00 -0.37900585960E+02 -0.14696556079E+02  0.50528865902E+02  0.30000018395E+02 0.  0.
         12    1    1    2    0    0 -0.84971110016E+00  0.37900585960E+02  0.14696556079E+02  0.40659134098E+02  0.00000000000E+00 0. -1.
         11    1    3    3    0    0 -0.55390625638E+01 -0.19869369410E+02 -0.32254563916E+01  0.20877658490E+02  0.51100000000E-03 0. -1.
        -11    1    3    3    0    0 -0.63099074874E+01 -0.37765557037E+01  0.49247747304E-01  0.73538922405E+01  0.51100000000E-03 0.  1.
         12    1    3    3    0    0  0.12698681151E+02 -0.14254660846E+02 -0.11520347435E+02  0.22297315171E+02  0.00000000000E+00 0. -1.
</event>
<event>
 7    1  0.2838209E-011  0.5052886E+02  0.7816164E-02  0.1300439E+00
        -11   -1    0    0    0    0  0.00000000000E+00  0.00000000000E+00  0.45593999997E+02  0.45594000000E+02  0.51100000000E-03 0. -1.
         11   -1    0    0    0    0 -0.00000000000E+00 -0.00000000000E+00 -0.45593999997E+02  0.45594000000E+02  0.51100000000E-03 0.  1.
    9900012    2    1    2    0    0  0.15141900133E+02  0.30739619388E+01 -0.37609031463E+02  0.50528860447E+02  0.30000001814E+02 0.  0.
         12    1    1    2    0    0 -0.15141900133E+02 -0.30739619388E+01  0.37609031463E+02  0.40659139553E+02  0.00000000000E+00 0. -1.
         11    1    3    3    0    0  0.43260167145E+01 -0.48886457469E+01  0.79390487353E+00  0.65759838095E+01  0.51100000000E-03 0. -1.
        -11    1    3    3    0    0  0.94459959393E+01 -0.13272925427E+01 -0.91044714012E+01  0.13186354482E+02  0.51100000000E-03 0.  1.
        -12    1    3    3    0    0  0.13698874788E+01  0.92899002285E+01 -0.29298464935E+02  0.30766522155E+02  0.00000000000E+00 0.  1.
</event>
<event>
 7    1  0.2838209E-011  0.5052889E+02  0.7816164E-02  0.1300439E+00
        -11   -1    0    0    0    0  0.00000000000E+00  0.00000000000E+00  0.45593999997E+02  0.45594000000E+02  0.51100000000E-03 0. -1.
         11   -1    0    0    0    0 -0.00000000000E+00 -0.00000000000E+00 -0.45593999997E+02  0.45594000000E+02  0.51100000000E-03 0.  1.
    9900012    2    1    2    0    0  0.22784387506E+02 -0.30044721162E+02 -0.15210177313E+02  0.50528891825E+02  0.30000097192E+02 0.  0.
         12    1    1    2    0    0 -0.22784387506E+02  0.30044721162E+02  0.15210177313E+02  0.40659108175E+02  0.00000000000E+00 0. -1.
         11    1    3    3    0    0  0.46678320164E+01 -0.39770581363E+01  0.46900694394E+00  0.61502532409E+01  0.51100000000E-03 0. -1.
        -11    1    3    3    0    0  0.22302728355E+02 -0.26461742947E+02 -0.18571587384E+02  0.39275175240E+02  0.51100000000E-03 0.  1.
         12    1    3    3    0    0 -0.41861728661E+01  0.39407992187E+00  0.28924031280E+01  0.51034633441E+01  0.00000000000E+00 0. -1.
</event>
<event>
 7    1  0.2838209E-011  0.5052886E+02  0.7816164E-02  0.1300439E+00
        -11   -1    0    0    0    0  0.00000000000E+00  0.00000000000E+00  0.45593999997E+02  0.45594000000E+02  0.51100000000E-03 0.  1.
         11   -1    0    0    0    0 -0.00000000000E+00 -0.00000000000E+00 -0.45593999997E+02  0.45594000000E+02  0.51100000000E-03 0. -1.
    9900012    2    1    2    0    0  0.11963229981E+02  0.12062471290E+02  0.36939732846E+02  0.50528856527E+02  0.29999989900E+02 0.  0.
         12    1    1    2    0    0 -0.11963229981E+02 -0.12062471290E+02 -0.36939732846E+02  0.40659143473E+02  0.00000000000E+00 0. -1.
         11    1    3    3    0    0 -0.32181790876E+01  0.11210723444E+02  0.17169458347E+02  0.20756379669E+02  0.51100000000E-03 0. -1.
        -11    1    3    3    0    0  0.89011710237E+01 -0.16335384301E+00  0.21423308510E+02  0.23199475809E+02  0.51100000000E-03 0.  1.
        -12    1    3    3    0    0  0.62802380452E+01  0.10151016888E+01 -0.16530340105E+01  0.65730010485E+01  0.00000000000E+00 0.  1.
</event>
<event>
 7    1  0.2838209E-011  0.5052886E+02  0.7816164E-02  0.1300439E+00
        -11   -1    0    0    0    0  0.00000000000E+00  0.00000000000E+00  0.45593999997E+02  0.45594000000E+02  0.51100000000E-03 0. -1.
         11   -1    0    0    0    0 -0.00000000000E+00 -0.00000000000E+00 -0.45593999997E+02  0.45594000000E+02  0.51100000000E-03 0.  1.
    9900012    2    1    2    0    0  0.12376867355E+02  0.26265420427E+02  0.28462376685E+02  0.50528855367E+02  0.29999986375E+02 0.  0.
         12    1    1    2    0    0 -0.12376867355E+02 -0.26265420427E+02 -0.28462376685E+02  0.40659144633E+02  0.00000000000E+00 0. -1.
         11    1    3    3    0    0 -0.21754472993E+01  0.23625963737E+01 -0.17250698666E+01  0.36455862194E+01  0.51100000000E-03 0. -1.
        -11    1    3    3    0    0  0.26819597733E+01  0.17326825713E+02  0.49331038524E+01  0.18213931794E+02  0.51100000000E-03 0.  1.
        -12    1    3    3    0    0  0.11870354881E+02  0.65759983401E+01  0.25254342699E+02  0.28669337354E+02  0.00000000000E+00 0.  1.
</event>
<event>
 7    1  0.2838209E-011  0.5052889E+02  0.7816164E-02  0.1300439E+00
        -11   -1    0    0    0    0  0.00000000000E+00  0.00000000000E+00  0.45593999997E+02  0.45594000000E+02  0.51100000000E-03 0. -1.
         11   -1    0    0    0    0 -0.00000000000E+00 -0.00000000000E+00 -0.45593999997E+02  0.45594000000E+02  0.51100000000E-03 0.  1.
    9900012    2    1    2    0    0  0.39054474222E+02 -0.74141215156E+01  0.85405914931E+01  0.50528894530E+02  0.30000105413E+02 0.  0.
         12    1    1    2    0    0 -0.39054474222E+02  0.74141215156E+01 -0.85405914931E+01  0.40659105470E+02  0.00000000000E+00 0. -1.
         11    1    3    3    0    0  0.59494721818E+01 -0.66000744649E+01  0.25707417748E+01  0.92501846315E+01  0.51100000000E-03 0. -1.
        -11    1    3    3    0    0 -0.13712494299E+00 -0.65200036296E+01 -0.15924172195E+01  0.67130502338E+01  0.51100000000E-03 0.  1.
         12    1    3    3    0    0  0.33242126983E+02  0.57059565789E+01  0.75622669378E+01  0.34565659665E+02  0.00000000000E+00 0. -1.
</event>
<event>
 7    1  0.2838209E-011  0.5052886E+02  0.7816164E-02  0.1300439E+00
        -11   -1    0    0    0    0  0.00000000000E+00  0.00000000000E+00  0.45593999997E+02  0.45594000000E+02  0.51100000000E-03 0.  1.
         11   -1    0    0    0    0 -0.00000000000E+00 -0.00000000000E+00 -0.45593999997E+02  0.45594000000E+02  0.51100000000E-03 0. -1.
    9900012    2    1    2    0    0 -0.40243174732E+02 -0.50934762333E+01  0.27765759513E+01  0.50528856051E+02  0.29999988454E+02 0.  0.
         12    1    1    2    0    0  0.40243174732E+02  0.50934762333E+01 -0.27765759513E+01  0.40659143949E+02  0.00000000000E+00 0. -1.
         11    1    3    3    0    0 -0.21200809117E+02 -0.34646873890E+01 -0.10398654974E+02  0.23866511924E+02  0.51100000000E-03 0. -1.
        -11    1    3    3    0    0  0.32155456578E-01  0.32692301968E+01  0.67980494962E+00  0.33393165593E+01  0.51100000000E-03 0.  1.
        -12    1    3    3    0    0 -0.19074521071E+02 -0.48980190410E+01  0.12495425975E+02  0.23323027568E+02  0.00000000000E+00 0.  1.
</event>
<event>
 7    1  0.2838209E-011  0.5052886E+02  0.7816164E-02  0.1300439E+00
        -11   -1    0    0    0    0  0.00000000000E+00  0.00000000000E+00  0.45593999997E+02  0.45594000000E+02  0.51100000000E-03 0.  1.
         11   -1    0    0    0    0 -0.00000000000E+00 -0.00000000000E+00 -0.45593999997E+02  0.45594000000E+02  0.51100000000E-03 0. -1.
    9900012    2    1    2    0    0  0.37276147277E+01 -0.18087349164E+02  0.36223174396E+02  0.50528859888E+02  0.30000000115E+02 0.  0.
         12    1    1    2    0    0 -0.37276147277E+01  0.18087349164E+02 -0.36223174396E+02  0.40659140112E+02  0.00000000000E+00 0. -1.
         11    1    3    3    0    0 -0.26085611020E+00  0.56037978032E+01  0.12859630773E+02  0.14029992859E+02  0.51100000000E-03 0. -1.
        -11    1    3    3    0    0  0.19604563204E+01  0.16636768817E+01  0.16463413370E+01  0.30531376992E+01  0.51100000000E-03 0.  1.
        -12    1    3    3    0    0  0.20280145175E+01 -0.25354823849E+02  0.21717202286E+02  0.33445729330E+02  0.00000000000E+00 0.  1.
</event>
<event>
 7    1  0.2838209E-011  0.5052886E+02  0.7816164E-02  0.1300439E+00
        -11   -1    0    0    0    0  0.00000000000E+00  0.00000000000E+00  0.45593999997E+02  0.45594000000E+02  0.51100000000E-03 0.  1.
         11   -1    0    0    0    0 -0.00000000000E+00 -0.00000000000E+00 -0.45593999997E+02  0.45594000000E+02  0.51100000000E-03 0. -1.
    9900012    2    1    2    0    0  0.40543923371E+02  0.46421761546E+00  0.30233056320E+01  0.50528860840E+02  0.30000003010E+02 0.  0.
         12    1    1    2    0    0 -0.40543923371E+02 -0.46421761546E+00 -0.30233056320E+01  0.40659139160E+02  0.00000000000E+00 0. -1.
         11    1    3    3    0    0  0.46861953326E+01 -0.24326920082E+01 -0.19805048724E+01  0.56392213038E+01  0.51100000000E-03 0. -1.
        -11    1    3    3    0    0  0.38785704953E+02 -0.18847311309E+01  0.30459322214E+01  0.38950748690E+02  0.51100000000E-03 0.  1.
         12    1    3    3    0    0 -0.29279769148E+01  0.47816407546E+01  0.19578782830E+01  0.59388908469E+01  0.00000000000E+00 0. -1.
</event>
<event>
 7    1  0.2838209E-011  0.5052886E+02  0.7816164E-02  0.1300439E+00
        -11   -1    0    0    0    0  0.00000000000E+00  0.00000000000E+00  0.45593999997E+02  0.45594000000E+02  0.51100000000E-03 0.  1.
         11   -1    0    0    0    0 -0.00000000000E+00 -0.00000000000E+00 -0.45593999997E+02  0.45594000000E+02  0.51100000000E-03 0. -1.
    9900012    2    1    2    0    0 -0.34173668313E+02 -0.21957442179E+02 -0.17880110867E+01  0.50528857650E+02  0.29999993311E+02 0.  0.
         12    1    1    2    0    0  0.34173668313E+02  0.21957442179E+02  0.17880110867E+01  0.40659142350E+02  0.00000000000E+00 0. -1.
         11    1    3    3    0    0 -0.89411023488E+01 -0.93555259761E+01 -0.63414496380E+01  0.14411216509E+02  0.51100000000E-03 0. -1.
        -11    1    3    3    0    0  0.22758074401E+01 -0.16575225553E+01 -0.43682823244E+01  0.51969771264E+01  0.51100000000E-03 0.  1.
        -12    1    3    3    0    0 -0.27508373405E+02 -0.10944393647E+02  0.89217208757E+01  0.30920664014E+02  0.00000000000E+00 0.  1.
</event>
<event>
 7    1  0.2838209E-011  0.5052889E+02  0.7816164E-02  0.1300439E+00
        -11   -1    0    0    0    0  0.00000000000E+00  0.00000000000E+00  0.45593999997E+02  0.45594000000E+02  0.51100000000E-03 0. -1.
         11   -1    0    0    0    0 -0.00000000000E+00 -0.00000000000E+00 -0.45593999997E+02  0.45594000000E+02  0.51100000000E-03 0.  1.
    9900012    2    1    2    0    0  0.50484428748E+01  0.40018742488E+02  0.51163566287E+01  0.50528885020E+02  0.30000076507E+02 0.  0.
         12    1    1    2    0    0 -0.50484428748E+01 -0.40018742488E+02 -0.51163566287E+01  0.40659114980E+02  0.00000000000E+00 0. -1.
         11    1    3    3    0    0  0.10571689312E+01  0.16322423646E+02  0.63739420816E+01  0.17554664843E+02  0.51100000000E-03 0. -1.
        -11    1    3    3    0    0  0.74287475223E+01  0.21293292513E+02  0.70833199452E+01  0.23638189810E+02  0.51100000000E-03 0.  1.
         12    1    3    3    0    0 -0.34374735786E+01  0.24030263288E+01 -0.83409053981E+01  0.93360303663E+01  0.00000000000E+00 0. -1.
</event>
<event>
 7    1  0.2838209E-011  0.5052886E+02  0.7816164E-02  0.1300439E+00
        -11   -1    0    0    0    0  0.00000000000E+00  0.00000000000E+00  0.45593999997E+02  0.45594000000E+02  0.51100000000E-03 0.  1.
         11   -1    0    0    0    0 -0.00000000000E+00 -0.00000000000E+00 -0.45593999997E+02  0.45594000000E+02  0.51100000000E-03 0. -1.
    9900012    2    1    2    0    0  0.56084820402E+01 -0.67155317599E+01  0.39706571560E+02  0.50528864954E+02  0.30000015514E+02 0.  0.
         12    1    1    2    0    0 -0.56084820402E+01  0.67155317599E+01 -0.39706571560E+02  0.40659135046E+02  0.00000000000E+00 0. -1.
         11    1    3    3    0    0 -0.64339505225E+00 -0.24355056561E+01  0.46423229229E-01  0.25194841479E+01  0.51100000000E-03 0. -1.
        -11    1    3    3    0    0 -0.62737545651E+01 -0.10975449190E+02  0.15713669046E+02  0.20167793048E+02  0.51100000000E-03 0.  1.
        -12    1    3    3    0    0  0.12525631657E+02  0.66954230867E+01  0.23946479286E+02  0.27841587758E+02  0.00000000000E+00 0.  1.
</event>
<event>
 7    1  0.2838209E-011  0.5052885E+02  0.7816164E-02  0.1300439E+00
        -11   -1    0    0    0    0  0.00000000000E+00  0.00000000000E+00  0.45593999997E+02  0.45594000000E+02  0.51100000000E-03 0.  1.
         11   -1    0    0    0    0 -0.00000000000E+00 -0.00000000000E+00 -0.45593999997E+02  0.45594000000E+02  0.51100000000E-03 0. -1.
    9900012    2    1    2    0    0  0.86627679652E+01  0.26706964389E+02  0.29408523062E+02  0.50528846979E+02  0.29999960877E+02 0.  0.
         12    1    1    2    0    0 -0.86627679652E+01 -0.26706964389E+02 -0.29408523062E+02  0.40659153021E+02  0.00000000000E+00 0. -1.
         11    1    3    3    0    0 -0.11422220357E+01  0.81583229501E+01  0.14427457105E+02  0.16613681811E+02  0.51100000000E-03 0. -1.
        -11    1    3    3    0    0 -0.61513478148E+01  0.11021690393E+02  0.79870817827E+01  0.14936874329E+02  0.51100000000E-03 0.  1.
         12    1    3    3    0    0  0.15956337816E+02  0.75269510454E+01  0.69939841747E+01  0.18978290839E+02  0.00000000000E+00 0. -1.
</event>
<event>
 7    1  0.2838209E-011  0.5052886E+02  0.7816164E-02  0.1300439E+00
        -11   -1    0    0    0    0  0.00000000000E+00  0.00000000000E+00  0.45593999997E+02  0.45594000000E+02  0.51100000000E-03 0.  1.
         11   -1    0    0    0    0 -0.00000000000E+00 -0.00000000000E+00 -0.45593999997E+02  0.45594000000E+02  0.51100000000E-03 0. -1.
    9900012    2    1    2    0    0 -0.26227066043E+02 -0.21008541883E+02  0.22889904303E+02  0.50528861491E+02  0.30000004988E+02 0.  0.
         12    1    1    2    0    0  0.26227066043E+02  0.21008541883E+02 -0.22889904303E+02  0.40659138509E+02  0.00000000000E+00 0. -1.
         11    1    3    3    0    0 -0.25122310058E+02 -0.22725663458E+02  0.20473879569E+02  0.39582394914E+02  0.51100000000E-03 0.  1.
        -11    1    3    3    0    0 -0.28346587003E+01 -0.12540144288E+01  0.55094811166E+01  0.63215682050E+01  0.51100000000E-03 0. -1.
         12    1    3    3    0    0  0.17299027149E+01  0.29711360042E+01 -0.30934563827E+01  0.46248983719E+01  0.00000000000E+00 0. -1.
</event>
<event>
 7    1  0.2838209E-011  0.5052886E+02  0.7816164E-02  0.1300439E+00
        -11   -1    0    0    0    0  0.00000000000E+00  0.00000000000E+00  0.45593999997E+02  0.45594000000E+02  0.51100000000E-03 0. -1.
         11   -1    0    0    0    0 -0.00000000000E+00 -0.00000000000E+00 -0.45593999997E+02  0.45594000000E+02  0.51100000000E-03 0.  1.
    9900012    2    1    2    0    0  0.22588797331E+01 -0.38156548535E+02 -0.13861483170E+02  0.50528862657E+02  0.30000008533E+02 0.  0.
         12    1    1    2    0    0 -0.22588797331E+01  0.38156548535E+02  0.13861483170E+02  0.40659137343E+02  0.00000000000E+00 0. -1.
         11    1    3    3    0    0  0.34232838283E+01 -0.90724852104E+01 -0.77924741186E+01  0.12439916126E+02  0.51100000000E-03 0. -1.
        -11    1    3    3    0    0  0.60454037419E+01 -0.28561951328E+02 -0.85917212193E+01  0.30432706810E+02  0.51100000000E-03 0.  1.
         12    1    3    3    0    0 -0.72098078371E+01 -0.52211199747E+00  0.25227121676E+01  0.76562397211E+01  0.00000000000E+00 0. -1.
</event>
<event>
 7    1  0.2838209E-011  0.5052887E+02  0.7816164E-02  0.1300439E+00
        -11   -1    0    0    0    0  0.00000000000E+00  0.00000000000E+00  0.45593999997E+02  0.45594000000E+02  0.51100000000E-03 0. -1.
         11   -1    0    0    0    0 -0.00000000000E+00 -0.00000000000E+00 -0.45593999997E+02  0.45594000000E+02  0.51100000000E-03 0.  1.
    9900012    2    1    2    0    0 -0.95377276939E+01  0.34699004939E+02 -0.18925538270E+02  0.50528865822E+02  0.30000018152E+02 0.  0.
         12    1    1    2    0    0  0.95377276939E+01 -0.34699004939E+02  0.18925538270E+02  0.40659134178E+02  0.00000000000E+00 0. -1.
         11    1    3    3    0    0 -0.29117286598E+01  0.17610503434E+02 -0.17375113523E+02  0.24909888904E+02  0.51100000000E-03 0. -1.
        -11    1    3    3    0    0 -0.45855939725E+01  0.15692579353E+01 -0.74529505607E+01  0.88902595502E+01  0.51100000000E-03 0.  1.
         12    1    3    3    0    0 -0.20404050615E+01  0.15519243570E+02  0.59025258139E+01  0.16728717368E+02  0.00000000000E+00 0. -1.
</event>
<event>
 7    1  0.2838209E-011  0.5052886E+02  0.7816164E-02  0.1300439E+00
        -11   -1    0    0    0    0  0.00000000000E+00  0.00000000000E+00  0.45593999997E+02  0.45594000000E+02  0.51100000000E-03 0.  1.
         11   -1    0    0    0    0 -0.00000000000E+00 -0.00000000000E+00 -0.45593999997E+02  0.45594000000E+02  0.51100000000E-03 0. -1.
    9900012    2    1    2    0    0 -0.85883778467E+01  0.36131461635E+02  0.16550606580E+02  0.50528864101E+02  0.30000012921E+02 0.  0.
         12    1    1    2    0    0  0.85883778467E+01 -0.36131461635E+02 -0.16550606580E+02  0.40659135899E+02  0.00000000000E+00 0. -1.
         11    1    3    3    0    0 -0.59946912246E+01  0.21402546518E+02 -0.12522325886E+01  0.22261478096E+02  0.51100000000E-03 0. -1.
        -11    1    3    3    0    0 -0.19100062700E+01  0.24845927083E+01 -0.28578207909E+01  0.42412810343E+01  0.51100000000E-03 0.  1.
        -12    1    3    3    0    0 -0.68368035204E+00  0.12244322409E+02  0.20660659959E+02  0.24026104970E+02  0.00000000000E+00 0.  1.
</event>
<event>
 7    1  0.2838209E-011  0.5052886E+02  0.7816164E-02  0.1300439E+00
        -11   -1    0    0    0    0  0.00000000000E+00  0.00000000000E+00  0.45593999997E+02  0.45594000000E+02  0.51100000000E-03 0.  1.
         11   -1    0    0    0    0 -0.00000000000E+00 -0.00000000000E+00 -0.45593999997E+02  0.45594000000E+02  0.51100000000E-03 0. -1.
    9900012    2    1    2    0    0 -0.15361483640E+02 -0.36738004094E+02  0.82164079327E+01  0.50528862236E+02  0.30000007251E+02 0.  0.
         12    1    1    2    0    0  0.15361483640E+02  0.36738004094E+02 -0.82164079327E+01  0.40659137764E+02  0.00000000000E+00 0. -1.
         11    1    3    3    0    0 -0.56929719965E+01  0.24310532767E+01  0.41394622739E+00  0.62041358727E+01  0.51100000000E-03 0. -1.
        -11    1    3    3    0    0  0.19638451883E+01 -0.13926177071E+01  0.39298047883E+01  0.46086264697E+01  0.51100000000E-03 0.  1.
         12    1    3    3    0    0 -0.11632356832E+02 -0.37776439663E+02  0.38726569170E+01  0.39716099893E+02  0.00000000000E+00 0. -1.
</event>
<event>
 7    1  0.2838209E-011  0.5052886E+02  0.7816164E-02  0.1300439E+00
        -11   -1    0    0    0    0  0.00000000000E+00  0.00000000000E+00  0.45593999997E+02  0.45594000000E+02  0.51100000000E-03 0.  1.
         11   -1    0    0    0    0 -0.00000000000E+00 -0.00000000000E+00 -0.45593999997E+02  0.45594000000E+02  0.51100000000E-03 0. -1.
    9900012    2    1    2    0    0  0.40274694815E+02 -0.19640043784E+01 -0.52208508265E+01  0.50528860327E+02  0.30000001450E+02 0.  0.
         12    1    1    2    0    0 -0.40274694815E+02  0.19640043784E+01  0.52208508265E+01  0.40659139673E+02  0.00000000000E+00 0. -1.
         11    1    3    3    0    0  0.16383141131E+02 -0.30143064164E+01  0.15470130839E+01  0.16729811901E+02  0.51100000000E-03 0. -1.
        -11    1    3    3    0    0  0.24512936474E+02  0.83117381158E+00  0.23665235282E+01  0.24640928115E+02  0.51100000000E-03 0.  1.
         12    1    3    3    0    0 -0.62138279081E+00  0.21912822642E+00 -0.91343874386E+01  0.91581203110E+01  0.00000000000E+00 0. -1.
</event>
<event>
 7    1  0.2838209E-011  0.5052887E+02  0.7816164E-02  0.1300439E+00
        -11   -1    0    0    0    0  0.00000000000E+00  0.00000000000E+00  0.45593999997E+02  0.45594000000E+02  0.51100000000E-03 0.  1.
         11   -1    0    0    0    0 -0.00000000000E+00 -0.00000000000E+00 -0.45593999997E+02  0.45594000000E+02  0.51100000000E-03 0. -1.
    9900012    2    1    2    0    0 -0.68430822971E+01  0.35020852379E+02  0.19490437744E+02  0.50528867691E+02  0.30000023834E+02 0.  0.
         12    1    1    2    0    0  0.68430822971E+01 -0.35020852379E+02 -0.19490437744E+02  0.40659132309E+02  0.00000000000E+00 0. -1.
         11    1    3    3    0    0  0.10305215850E+01 -0.30808015468E+01 -0.17755766476E+01  0.37021595861E+01  0.51100000000E-03 0. -1.
        -11    1    3    3    0    0  0.19265758693E+01  0.37899154896E+01 -0.14893158514E+01  0.45047992147E+01  0.51100000000E-03 0.  1.
        -12    1    3    3    0    0 -0.98001797514E+01  0.34311738436E+02  0.22755330243E+02  0.42321908890E+02  0.00000000000E+00 0.  1.
</event>
<event>
 7    1  0.2838209E-011  0.5052886E+02  0.7816164E-02  0.1300439E+00
        -11   -1    0    0    0    0  0.00000000000E+00  0.00000000000E+00  0.45593999997E+02  0.45594000000E+02  0.51100000000E-03 0.  1.
         11   -1    0    0    0    0 -0.00000000000E+00 -0.00000000000E+00 -0.45593999997E+02  0.45594000000E+02  0.51100000000E-03 0. -1.
    9900012    2    1    2    0    0  0.55478670852E+01  0.13197367101E+01  0.40257234031E+02  0.50528862945E+02  0.30000009409E+02 0.  0.
         12    1    1    2    0    0 -0.55478670852E+01 -0.13197367101E+01 -0.40257234031E+02  0.40659137055E+02  0.00000000000E+00 0. -1.
         11    1    3    3    0    0 -0.46546264628E+01 -0.27934679378E+01  0.51608875034E+01  0.74902450368E+01  0.51100000000E-03 0. -1.
        -11    1    3    3    0    0  0.15241056428E+02  0.39890868761E+01  0.13151099917E+02  0.20522038019E+02  0.51100000000E-03 0.  1.
         12    1    3    3    0    0 -0.50385628804E+01  0.12411777182E+00  0.21945246611E+02  0.22516579890E+02  0.00000000000E+00 0. -1.
</event>
<event>
 7    1  0.2838209E-011  0.5052887E+02  0.7816164E-02  0.1300439E+00
        -11   -1    0    0    0    0  0.00000000000E+00  0.00000000000E+00  0.45593999997E+02  0.45594000000E+02  0.51100000000E-03 0.  1.
         11   -1    0    0    0    0 -0.00000000000E+00 -0.00000000000E+00 -0.45593999997E+02  0.45594000000E+02  0.51100000000E-03 0. -1.
    9900012    2    1    2    0    0 -0.20520071701E+01 -0.22613299950E+02  0.33728224582E+02  0.50528865706E+02  0.30000017801E+02 0.  0.
         12    1    1    2    0    0  0.20520071701E+01  0.22613299950E+02 -0.33728224582E+02  0.40659134294E+02  0.00000000000E+00 0. -1.
         11    1    3    3    0    0  0.53495366689E+01 -0.30170179686E+00  0.94466699776E+01  0.10860393201E+02  0.51100000000E-03 0. -1.
        -11    1    3    3    0    0 -0.92847419098E+01 -0.31579788407E+00  0.69733375358E+01  0.11616092169E+02  0.51100000000E-03 0.  1.
        -12    1    3    3    0    0  0.18831980708E+01 -0.21995800269E+02  0.17308217069E+02  0.28052380336E+02  0.00000000000E+00 0.  1.
</event>
<event>
 7    1  0.2838209E-011  0.5052886E+02  0.7816164E-02  0.1300439E+00
        -11   -1    0    0    0    0  0.00000000000E+00  0.00000000000E+00  0.45593999997E+02  0.45594000000E+02  0.51100000000E-03 0.  1.
         11   -1    0    0    0    0 -0.00000000000E+00 -0.00000000000E+00 -0.45593999997E+02  0.45594000000E+02  0.51100000000E-03 0. -1.
    9900012    2    1    2    0    0  0.11954135472E+02 -0.40378357042E+01  0.38651776518E+02  0.50528864494E+02  0.30000014117E+02 0.  0.
         12    1    1    2    0    0 -0.11954135472E+02  0.40378357042E+01 -0.38651776518E+02  0.40659135506E+02  0.00000000000E+00 0. -1.
         11    1    3    3    0    0 -0.78398892512E+01  0.31843973545E+01  0.60143648334E+01  0.10381562242E+02  0.51100000000E-03 0. -1.
        -11    1    3    3    0    0  0.44018108014E+01  0.21509733805E+01  0.10614205743E+02  0.11690337404E+02  0.51100000000E-03 0.  1.
         12    1    3    3    0    0  0.15392213922E+02 -0.93732064392E+01  0.22023205942E+02  0.28456964848E+02  0.00000000000E+00 0. -1.
</event>
<event>
 7    1  0.2838209E-011  0.5052887E+02  0.7816164E-02  0.1300439E+00
        -11   -1    0    0    0    0  0.00000000000E+00  0.00000000000E+00  0.45593999997E+02  0.45594000000E+02  0.51100000000E-03 0.  1.
         11   -1    0    0    0    0 -0.00000000000E+00 -0.00000000000E+00 -0.45593999997E+02  0.45594000000E+02  0.51100000000E-03 0. -1.
    9900012    2    1    2    0    0 -0.31836281367E+02  0.22195466615E+02 -0.12123427666E+02  0.50528867595E+02  0.30000023542E+02 0.  0.
         12    1    1    2    0    0  0.31836281367E+02 -0.22195466615E+02  0.12123427666E+02  0.40659132405E+02  0.00000000000E+00 0. -1.
         11    1    3    3    0    0 -0.20756156645E+02  0.10547634120E+02 -0.55317625640E+01  0.23930545784E+02  0.51100000000E-03 0. -1.
        -11    1    3    3    0    0 -0.15986690444E+02  0.72232405147E+01 -0.40568619533E+00  0.17547480059E+02  0.51100000000E-03 0.  1.
         12    1    3    3    0    0  0.49065657220E+01  0.44245919807E+01 -0.61859789064E+01  0.90508417515E+01  0.00000000000E+00 0. -1.
</event>
<event>
 7    1  0.2838209E-011  0.5052889E+02  0.7816164E-02  0.1300439E+00
        -11   -1    0    0    0    0  0.00000000000E+00  0.00000000000E+00  0.45593999997E+02  0.45594000000E+02  0.51100000000E-03 0. -1.
         11   -1    0    0    0    0 -0.00000000000E+00 -0.00000000000E+00 -0.45593999997E+02  0.45594000000E+02  0.51100000000E-03 0.  1.
    9900012    2    1    2    0    0  0.30567603463E+02  0.22678121210E+02  0.14299926740E+02  0.50528887026E+02  0.30000082604E+02 0.  0.
         12    1    1    2    0    0 -0.30567603463E+02 -0.22678121210E+02 -0.14299926740E+02  0.40659112974E+02  0.00000000000E+00 0. -1.
         11    1    3    3    0    0  0.36482845665E+01 -0.13065114248E+01  0.36003774941E+01  0.52895813390E+01  0.51100000000E-03 0. -1.
        -11    1    3    3    0    0  0.41255910204E+01  0.14066858468E+02 -0.54010220979E+01  0.15622677376E+02  0.51100000000E-03 0.  1.
         12    1    3    3    0    0  0.22793727876E+02  0.99177741666E+01  0.16100571344E+02  0.29616628311E+02  0.00000000000E+00 0. -1.
</event>
<event>
 7    1  0.2838209E-011  0.5052885E+02  0.7816164E-02  0.1300439E+00
        -11   -1    0    0    0    0  0.00000000000E+00  0.00000000000E+00  0.45593999997E+02  0.45594000000E+02  0.51100000000E-03 0.  1.
         11   -1    0    0    0    0 -0.00000000000E+00 -0.00000000000E+00 -0.45593999997E+02  0.45594000000E+02  0.51100000000E-03 0. -1.
    9900012    2    1    2    0    0  0.17466541228E+02  0.13752734053E+02  0.34043332777E+02  0.50528852653E+02  0.29999978123E+02 0.  0.
         12    1    1    2    0    0 -0.17466541228E+02 -0.13752734053E+02 -0.34043332777E+02  0.40659147347E+02  0.00000000000E+00 0. -1.
         11    1    3    3    0    0  0.31147406873E+01  0.13804512529E+02  0.46228043905E+01  0.14887461046E+02  0.51100000000E-03 0. -1.
        -11    1    3    3    0    0 -0.34730227033E+00  0.46177129453E+01  0.80473891192E+01  0.92846305048E+01  0.51100000000E-03 0.  1.
        -12    1    3    3    0    0  0.14699102812E+02 -0.46694914218E+01  0.21373139268E+02  0.26356761102E+02  0.00000000000E+00 0.  1.
</event>
<event>
 7    1  0.2838209E-011  0.5052886E+02  0.7816164E-02  0.1300439E+00
        -11   -1    0    0    0    0  0.00000000000E+00  0.00000000000E+00  0.45593999997E+02  0.45594000000E+02  0.51100000000E-03 0. -1.
         11   -1    0    0    0    0 -0.00000000000E+00 -0.00000000000E+00 -0.45593999997E+02  0.45594000000E+02  0.51100000000E-03 0.  1.
    9900012    2    1    2    0    0  0.88434332078E+01 -0.30123242777E+02 -0.25836981979E+02  0.50528859526E+02  0.29999999015E+02 0.  0.
         12    1    1    2    0    0 -0.88434332078E+01  0.30123242777E+02  0.25836981979E+02  0.40659140474E+02  0.00000000000E+00 0. -1.
         11    1    3    3    0    0  0.36754312526E+01 -0.15105446528E+02  0.63555474640E-01  0.15546296963E+02  0.51100000000E-03 0. -1.
        -11    1    3    3    0    0 -0.61260397981E+00  0.37575053616E+01 -0.33085488991E+01  0.50438701666E+01  0.51100000000E-03 0.  1.
        -12    1    3    3    0    0  0.57806059350E+01 -0.18775301610E+02 -0.22591988555E+02  0.29938692396E+02  0.00000000000E+00 0.  1.
</event>
<event>
 7    1  0.2838209E-011  0.5052884E+02  0.7816164E-02  0.1300439E+00
        -11   -1    0    0    0    0  0.00000000000E+00  0.00000000000E+00  0.45593999997E+02  0.45594000000E+02  0.51100000000E-03 0.  1.
         11   -1    0    0    0    0 -0.00000000000E+00 -0.00000000000E+00 -0.45593999997E+02  0.45594000000E+02  0.51100000000E-03 0. -1.
    9900012    2    1    2    0    0 -0.23170473966E+01  0.31735422021E+02  0.25311294053E+02  0.50528839579E+02  0.29999938385E+02 0.  0.
         12    1    1    2    0    0  0.23170473966E+01 -0.31735422021E+02 -0.25311294053E+02  0.40659160421E+02  0.00000000000E+00 0. -1.
         11    1    3    3    0    0  0.14953466406E+01 -0.35258007673E+01  0.19103865579E+01  0.42798258946E+01  0.51100000000E-03 0. -1.
        -11    1    3    3    0    0 -0.97647951865E+01  0.13273873863E+02  0.58256951734E+01  0.17478148554E+02  0.51100000000E-03 0.  1.
        -12    1    3    3    0    0  0.59524011492E+01  0.21987348925E+02  0.17575212322E+02  0.28770865131E+02  0.00000000000E+00 0.  1.
</event>
<event>
 7    1  0.2838209E-011  0.5052887E+02  0.7816164E-02  0.1300439E+00
        -11   -1    0    0    0    0  0.00000000000E+00  0.00000000000E+00  0.45593999997E+02  0.45594000000E+02  0.51100000000E-03 0. -1.
         11   -1    0    0    0    0 -0.00000000000E+00 -0.00000000000E+00 -0.45593999997E+02  0.45594000000E+02  0.51100000000E-03 0.  1.
    9900012    2    1    2    0    0  0.38582006292E+02  0.12590505257E+01  0.12767474915E+02  0.50528870232E+02  0.30000031558E+02 0.  0.
         12    1    1    2    0    0 -0.38582006292E+02 -0.12590505257E+01 -0.12767474915E+02  0.40659129768E+02  0.00000000000E+00 0. -1.
         11    1    3    3    0    0  0.81941716264E+01  0.76261021721E+00 -0.53125968241E+01  0.97953921955E+01  0.51100000000E-03 0. -1.
        -11    1    3    3    0    0  0.26466444567E+02 -0.75679723692E+01  0.13302909556E+02  0.30573097598E+02  0.51100000000E-03 0.  1.
         12    1    3    3    0    0  0.39213900991E+01  0.80644126777E+01  0.47771621831E+01  0.10160380439E+02  0.00000000000E+00 0. -1.
</event>
<event>
 7    1  0.2838209E-011  0.5052886E+02  0.7816164E-02  0.1300439E+00
        -11   -1    0    0    0    0  0.00000000000E+00  0.00000000000E+00  0.45593999997E+02  0.45594000000E+02  0.51100000000E-03 0.  1.
         11   -1    0    0    0    0 -0.00000000000E+00 -0.00000000000E+00 -0.45593999997E+02  0.45594000000E+02  0.51100000000E-03 0. -1.
    9900012    2    1    2    0    0 -0.87130609528E+01  0.31221089814E+02  0.24545709986E+02  0.50528858850E+02  0.29999996959E+02 0.  0.
         12    1    1    2    0    0  0.87130609528E+01 -0.31221089814E+02 -0.24545709986E+02  0.40659141150E+02  0.00000000000E+00 0. -1.
         11    1    3    3    0    0  0.16765841279E+01  0.12270407221E+01  0.38288347240E+01  0.43562069368E+01  0.51100000000E-03 0. -1.
        -11    1    3    3    0    0 -0.49781921046E+01  0.64140489004E+01  0.20423154221E+02  0.21977889992E+02  0.51100000000E-03 0.  1.
         12    1    3    3    0    0 -0.54114529760E+01  0.23580000192E+02  0.29372104191E+00  0.24194761921E+02  0.00000000000E+00 0. -1.
</event>
<event>
 7    1  0.2838209E-011  0.5052890E+02  0.7816164E-02  0.1300439E+00
        -11   -1    0    0    0    0  0.00000000000E+00  0.00000000000E+00  0.45593999997E+02  0.45594000000E+02  0.51100000000E-03 0.  1.
         11   -1    0    0    0    0 -0.00000000000E+00 -0.00000000000E+00 -0.45593999997E+02  0.45594000000E+02  0.51100000000E-03 0. -1.
    9900012    2    1    2    0    0 -0.38861568980E+01  0.39928866594E+02 -0.66140871014E+01  0.50528895840E+02  0.30000109395E+02 0.  0.
         12    1    1    2    0    0  0.38861568980E+01 -0.39928866594E+02  0.66140871014E+01  0.40659104160E+02  0.00000000000E+00 0. -1.
         11    1    3    3    0    0 -0.49943520348E+01  0.17333317145E+02  0.27282870626E+01  0.18243656049E+02  0.51100000000E-03 0. -1.
        -11    1    3    3    0    0 -0.43284608125E+01  0.61136757215E+01  0.56247103203E+01  0.93674954113E+01  0.51100000000E-03 0.  1.
         12    1    3    3    0    0  0.54366559493E+01  0.16481873727E+02 -0.14967084484E+02  0.22917744379E+02  0.00000000000E+00 0. -1.
</event>
<event>
 7    1  0.2838209E-011  0.5052886E+02  0.7816164E-02  0.1300439E+00
        -11   -1    0    0    0    0  0.00000000000E+00  0.00000000000E+00  0.45593999997E+02  0.45594000000E+02  0.51100000000E-03 0. -1.
         11   -1    0    0    0    0 -0.00000000000E+00 -0.00000000000E+00 -0.45593999997E+02  0.45594000000E+02  0.51100000000E-03 0.  1.
    9900012    2    1    2    0    0  0.24702073102E+02 -0.32280477853E+02  0.97151557952E+00  0.50528861931E+02  0.30000006325E+02 0.  0.
         12    1    1    2    0    0 -0.24702073102E+02  0.32280477853E+02 -0.97151557952E+00  0.40659138069E+02  0.00000000000E+00 0. -1.
         11    1    3    3    0    0  0.60422810240E+01 -0.95567904794E+01 -0.68016437395E+01  0.13194838463E+02  0.51100000000E-03 0. -1.
        -11    1    3    3    0    0  0.19110801794E+02 -0.12841656848E+02 -0.23937613143E+01  0.23148671437E+02  0.51100000000E-03 0.  1.
         12    1    3    3    0    0 -0.45100971586E+00 -0.98820305257E+01  0.10166920633E+02  0.14185352031E+02  0.00000000000E+00 0. -1.
</event>
<event>
 7    1  0.2838209E-011  0.5052885E+02  0.7816164E-02  0.1300439E+00
        -11   -1    0    0    0    0  0.00000000000E+00  0.00000000000E+00  0.45593999997E+02  0.45594000000E+02  0.51100000000E-03 0.  1.
         11   -1    0    0    0    0 -0.00000000000E+00 -0.00000000000E+00 -0.45593999997E+02  0.45594000000E+02  0.51100000000E-03 0. -1.
    9900012    2    1    2    0    0 -0.18444227091E+01  0.14891263547E+02  0.37789078869E+02  0.50528854572E+02  0.29999983957E+02 0.  0.
         12    1    1    2    0    0  0.18444227091E+01 -0.14891263547E+02 -0.37789078869E+02  0.40659145428E+02  0.00000000000E+00 0. -1.
         11    1    3    3    0    0 -0.60298328066E+00 -0.46390892595E+01  0.51522926924E+01  0.69592282794E+01  0.51100000000E-03 0. -1.
        -11    1    3    3    0    0 -0.40322967610E+01 -0.17031393014E+01 -0.18236374729E+00  0.43810224202E+01  0.51100000000E-03 0.  1.
        -12    1    3    3    0    0  0.27908573325E+01  0.21233492108E+02  0.32819149924E+02  0.39188603873E+02  0.00000000000E+00 0.  1.
</event>
<event>
 7    1  0.2838209E-011  0.5052889E+02  0.7816164E-02  0.1300439E+00
        -11   -1    0    0    0    0  0.00000000000E+00  0.00000000000E+00  0.45593999997E+02  0.45594000000E+02  0.51100000000E-03 0. -1.
         11   -1    0    0    0    0 -0.00000000000E+00 -0.00000000000E+00 -0.45593999997E+02  0.45594000000E+02  0.51100000000E-03 0.  1.
    9900012    2    1    2    0    0 -0.24071418055E+02 -0.31650624493E+02 -0.84834191765E+01  0.50528885415E+02  0.30000077706E+02 0.  0.
         12    1    1    2    0    0  0.24071418055E+02  0.31650624493E+02  0.84834191765E+01  0.40659114585E+02  0.00000000000E+00 0. -1.
         11    1    3    3    0    0 -0.10621534387E+02 -0.18014686497E+02 -0.12910272161E+02  0.24576839704E+02  0.51100000000E-03 0.  1.
        -11    1    3    3    0    0 -0.13230725251E+02 -0.16988571447E+02  0.58344822533E+01  0.22309299270E+02  0.51100000000E-03 0. -1.
         12    1    3    3    0    0 -0.21915841650E+00  0.33526334515E+01 -0.14076292689E+01  0.36427464406E+01  0.00000000000E+00 0. -1.
</event>
<event>
 7    1  0.2838209E-011  0.5052887E+02  0.7816164E-02  0.1300439E+00
        -11   -1    0    0    0    0  0.00000000000E+00  0.00000000000E+00  0.45593999997E+02  0.45594000000E+02  0.51100000000E-03 0. -1.
         11   -1    0    0    0    0 -0.00000000000E+00 -0.00000000000E+00 -0.45593999997E+02  0.45594000000E+02  0.51100000000E-03 0.  1.
    9900012    2    1    2    0    0  0.55688761851E+01 -0.13383234853E+02 -0.37987381310E+02  0.50528874384E+02  0.30000044176E+02 0.  0.
         12    1    1    2    0    0 -0.55688761851E+01  0.13383234853E+02  0.37987381310E+02  0.40659125616E+02  0.00000000000E+00 0. -1.
         11    1    3    3    0    0  0.39777483477E+00  0.18220778254E+01 -0.55124511629E+00  0.19447529047E+01  0.51100000000E-03 0. -1.
        -11    1    3    3    0    0  0.89105073746E+01  0.35248003419E+01 -0.46750173015E+01  0.10661948516E+02  0.51100000000E-03 0.  1.
        -12    1    3    3    0    0 -0.37394060242E+01 -0.18730113020E+02 -0.32761118892E+02  0.37922172963E+02  0.00000000000E+00 0.  1.
</event>
<event>
 7    1  0.2838209E-011  0.5052886E+02  0.7816164E-02  0.1300439E+00
        -11   -1    0    0    0    0  0.00000000000E+00  0.00000000000E+00  0.45593999997E+02  0.45594000000E+02  0.51100000000E-03 0.  1.
         11   -1    0    0    0    0 -0.00000000000E+00 -0.00000000000E+00 -0.45593999997E+02  0.45594000000E+02  0.51100000000E-03 0. -1.
    9900012    2    1    2    0    0  0.16791144453E+02  0.27499731667E+02  0.24798951635E+02  0.50528858642E+02  0.29999996327E+02 0.  0.
         12    1    1    2    0    0 -0.16791144453E+02 -0.27499731667E+02 -0.24798951635E+02  0.40659141358E+02  0.00000000000E+00 0. -1.
         11    1    3    3    0    0  0.10174736599E+02  0.17801430068E+02  0.15934922376E+02  0.25968017420E+02  0.51100000000E-03 0.  1.
        -11    1    3    3    0    0  0.10591454623E+02  0.11423583648E+02  0.10348256404E+01  0.15612432186E+02  0.51100000000E-03 0. -1.
         12    1    3    3    0    0 -0.39750467686E+01 -0.17252820496E+01  0.78292036188E+01  0.89484090356E+01  0.00000000000E+00 0. -1.
</event>
<event>
 7    1  0.2838209E-011  0.5052886E+02  0.7816164E-02  0.1300439E+00
        -11   -1    0    0    0    0  0.00000000000E+00  0.00000000000E+00  0.45593999997E+02  0.45594000000E+02  0.51100000000E-03 0.  1.
         11   -1    0    0    0    0 -0.00000000000E+00 -0.00000000000E+00 -0.45593999997E+02  0.45594000000E+02  0.51100000000E-03 0. -1.
    9900012    2    1    2    0    0 -0.69299349194E+01  0.32099785029E+02  0.23973846229E+02  0.50528862037E+02  0.30000006647E+02 0.  0.
         12    1    1    2    0    0  0.69299349194E+01 -0.32099785029E+02 -0.23973846229E+02  0.40659137963E+02  0.00000000000E+00 0. -1.
         11    1    3    3    0    0  0.18393571787E+00  0.20253499489E+02  0.62909963678E+01  0.21208835646E+02  0.51100000000E-03 0. -1.
        -11    1    3    3    0    0 -0.23334125234E+01  0.15576699724E+02  0.74455699492E+01  0.17421679036E+02  0.51100000000E-03 0.  1.
         12    1    3    3    0    0 -0.47804581139E+01 -0.37304141845E+01  0.10237279912E+02  0.11898347354E+02  0.00000000000E+00 0. -1.
</event>
<event>
 7    1  0.2838209E-011  0.5052887E+02  0.7816164E-02  0.1300439E+00
        -11   -1    0    0    0    0  0.00000000000E+00  0.00000000000E+00  0.45593999997E+02  0.45594000000E+02  0.51100000000E-03 0.  1.
         11   -1    0    0    0    0 -0.00000000000E+00 -0.00000000000E+00 -0.45593999997E+02  0.45594000000E+02  0.51100000000E-03 0. -1.
    9900012    2    1    2    0    0  0.25718425786E+02  0.10070944807E+02  0.29837960779E+02  0.50528865016E+02  0.30000015702E+02 0.  0.
         12    1    1    2    0    0 -0.25718425786E+02 -0.10070944807E+02 -0.29837960779E+02  0.40659134984E+02  0.00000000000E+00 0. -1.
         11    1    3    3    0    0  0.45148232689E+01  0.57750581123E+01  0.16700396309E+01  0.75182416814E+01  0.51100000000E-03 0. -1.
        -11    1    3    3    0    0  0.22301787240E+02  0.28902031974E+01  0.97573717990E+01  0.24513859209E+02  0.51100000000E-03 0.  1.
         12    1    3    3    0    0 -0.10981847230E+01  0.14056834972E+01  0.18410549349E+02  0.18496764126E+02  0.00000000000E+00 0. -1.
</event>
<event>
 7    1  0.2838209E-011  0.5052887E+02  0.7816164E-02  0.1300439E+00
        -11   -1    0    0    0    0  0.00000000000E+00  0.00000000000E+00  0.45593999997E+02  0.45594000000E+02  0.51100000000E-03 0.  1.
         11   -1    0    0    0    0 -0.00000000000E+00 -0.00000000000E+00 -0.45593999997E+02  0.45594000000E+02  0.51100000000E-03 0. -1.
    9900012    2    1    2    0    0  0.20770523628E+02  0.19087825511E+02  0.29281483326E+02  0.50528868181E+02  0.30000025322E+02 0.  0.
         12    1    1    2    0    0 -0.20770523628E+02 -0.19087825511E+02 -0.29281483326E+02  0.40659131819E+02  0.00000000000E+00 0. -1.
         11    1    3    3    0    0 -0.50700796962E+01 -0.14185550696E+01  0.50631744662E+01  0.73043646231E+01  0.51100000000E-03 0. -1.
        -11    1    3    3    0    0  0.10539993728E+02  0.90416803532E+01  0.18761456577E+02  0.23341715973E+02  0.51100000000E-03 0.  1.
        -12    1    3    3    0    0  0.15300609596E+02  0.11464700227E+02  0.54568522832E+01  0.19882787585E+02  0.00000000000E+00 0.  1.
</event>
<event>
 7    1  0.2838209E-011  0.5052886E+02  0.7816164E-02  0.1300439E+00
        -11   -1    0    0    0    0  0.00000000000E+00  0.00000000000E+00  0.45593999997E+02  0.45594000000E+02  0.51100000000E-03 0.  1.
         11   -1    0    0    0    0 -0.00000000000E+00 -0.00000000000E+00 -0.45593999997E+02  0.45594000000E+02  0.51100000000E-03 0. -1.
    9900012    2    1    2    0    0 -0.84538225222E+01  0.22920372412E+01  0.39704476886E+02  0.50528855460E+02  0.29999986656E+02 0.  0.
         12    1    1    2    0    0  0.84538225222E+01 -0.22920372412E+01 -0.39704476886E+02  0.40659144540E+02  0.00000000000E+00 0. -1.
         11    1    3    3    0    0 -0.10904087249E+02 -0.28144167428E+01  0.58419930678E+01  0.12686565477E+02  0.51100000000E-03 0. -1.
        -11    1    3    3    0    0 -0.58783635722E+01  0.18790200803E+01  0.22818691043E+02  0.23638496905E+02  0.51100000000E-03 0.  1.
        -12    1    3    3    0    0  0.83286282988E+01  0.32274339038E+01  0.11043792775E+02  0.14203793078E+02  0.00000000000E+00 0.  1.
</event>
<event>
 7    1  0.2838209E-011  0.5052886E+02  0.7816164E-02  0.1300439E+00
        -11   -1    0    0    0    0  0.00000000000E+00  0.00000000000E+00  0.45593999997E+02  0.45594000000E+02  0.51100000000E-03 0.  1.
         11   -1    0    0    0    0 -0.00000000000E+00 -0.00000000000E+00 -0.45593999997E+02  0.45594000000E+02  0.51100000000E-03 0. -1.
    9900012    2    1    2    0    0  0.37928131616E+02  0.14549244566E+02 -0.17151427025E+01  0.50528863268E+02  0.30000010389E+02 0.  0.
         12    1    1    2    0    0 -0.37928131616E+02 -0.14549244566E+02  0.17151427025E+01  0.40659136732E+02  0.00000000000E+00 0. -1.
         11    1    3    3    0    0  0.14964828252E+02  0.12459738325E+02  0.99169363679E+01  0.21852615197E+02  0.51100000000E-03 0. -1.
        -11    1    3    3    0    0  0.11620386496E+02  0.42004062118E+01 -0.90238763529E-01  0.12356574686E+02  0.51100000000E-03 0.  1.
         12    1    3    3    0    0  0.11342916867E+02 -0.21108999707E+01 -0.11541840307E+02  0.16319673386E+02  0.00000000000E+00 0. -1.
</event>
<event>
 7    1  0.2838209E-011  0.5052886E+02  0.7816164E-02  0.1300439E+00
        -11   -1    0    0    0    0  0.00000000000E+00  0.00000000000E+00  0.45593999997E+02  0.45594000000E+02  0.51100000000E-03 0. -1.
         11   -1    0    0    0    0 -0.00000000000E+00 -0.00000000000E+00 -0.45593999997E+02  0.45594000000E+02  0.51100000000E-03 0.  1.
    9900012    2    1    2    0    0 -0.23690960595E+01  0.29138465468E+02 -0.28257795966E+02  0.50528858115E+02  0.29999994727E+02 0.  0.
         12    1    1    2    0    0  0.23690960595E+01 -0.29138465468E+02  0.28257795966E+02  0.40659141885E+02  0.00000000000E+00 0. -1.
         11    1    3    3    0    0  0.60546277897E+01  0.64379091292E+01 -0.25073084487E+01  0.91865002883E+01  0.51100000000E-03 0. -1.
        -11    1    3    3    0    0  0.63984851657E+00  0.49615029035E+01  0.33905445566E+01  0.60433194386E+01  0.51100000000E-03 0.  1.
        -12    1    3    3    0    0 -0.90635723658E+01  0.17739053435E+02 -0.29141032074E+02  0.35299038388E+02  0.00000000000E+00 0.  1.
</event>
<event>
 7    1  0.2838209E-011  0.5052885E+02  0.7816164E-02  0.1300439E+00
        -11   -1    0    0    0    0  0.00000000000E+00  0.00000000000E+00  0.45593999997E+02  0.45594000000E+02  0.51100000000E-03 0.  1.
         11   -1    0    0    0    0 -0.00000000000E+00 -0.00000000000E+00 -0.45593999997E+02  0.45594000000E+02  0.51100000000E-03 0. -1.
    9900012    2    1    2    0    0  0.23158916872E+02  0.61365664173E+01 -0.32850772038E+02  0.50528854638E+02  0.29999984157E+02 0.  0.
         12    1    1    2    0    0 -0.23158916872E+02 -0.61365664173E+01  0.32850772038E+02  0.40659145362E+02  0.00000000000E+00 0. -1.
         11    1    3    3    0    0  0.40150423041E+01  0.26734117934E+01 -0.13598454412E+02  0.14428640199E+02  0.51100000000E-03 0. -1.
        -11    1    3    3    0    0  0.30280038755E+01  0.42783348628E+01 -0.19263379943E+02  0.19963736218E+02  0.51100000000E-03 0.  1.
        -12    1    3    3    0    0  0.16115870693E+02 -0.81518023896E+00  0.11062317423E-01  0.16136478221E+02  0.00000000000E+00 0.  1.
</event>
<event>
 7    1  0.2838209E-011  0.5052885E+02  0.7816164E-02  0.1300439E+00
        -11   -1    0    0    0    0  0.00000000000E+00  0.00000000000E+00  0.45593999997E+02  0.45594000000E+02  0.51100000000E-03 0.  1.
         11   -1    0    0    0    0 -0.00000000000E+00 -0.00000000000E+00 -0.45593999997E+02  0.45594000000E+02  0.51100000000E-03 0. -1.
    9900012    2    1    2    0    0  0.10581072256E+02  0.39185098883E+02  0.23948317143E+01  0.50528852401E+02  0.29999977357E+02 0.  0.
         12    1    1    2    0    0 -0.10581072256E+02 -0.39185098883E+02 -0.23948317143E+01  0.40659147599E+02  0.00000000000E+00 0. -1.
         11    1    3    3    0    0  0.90163322113E+01  0.34731843222E+02 -0.54751137007E+01  0.36298375314E+02  0.51100000000E-03 0. -1.
        -11    1    3    3    0    0  0.39124357377E+01  0.43640434880E+01 -0.16066191816E+00  0.58632620170E+01  0.51100000000E-03 0.  1.
        -12    1    3    3    0    0 -0.23476956930E+01  0.89212173141E-01  0.80306073332E+01  0.83672150694E+01  0.00000000000E+00 0.  1.
</event>
<event>
 7    1  0.2838209E-011  0.5052885E+02  0.7816164E-02  0.1300439E+00
        -11   -1    0    0    0    0  0.00000000000E+00  0.00000000000E+00  0.45593999997E+02  0.45594000000E+02  0.51100000000E-03 0. -1.
         11   -1    0    0    0    0 -0.00000000000E+00 -0.00000000000E+00 -0.45593999997E+02  0.45594000000E+02  0.51100000000E-03 0.  1.
    9900012    2    1    2    0    0  0.14438645922E+02  0.37677445660E+02 -0.50101898936E+01  0.50528850842E+02  0.29999972618E+02 0.  0.
         12    1    1    2    0    0 -0.14438645922E+02 -0.37677445660E+02  0.50101898936E+01  0.40659149158E+02  0.00000000000E+00 0. -1.
         11    1    3    3    0    0  0.31739214422E+01  0.12497517874E+02  0.10277460367E+02  0.16489024295E+02  0.51100000000E-03 0. -1.
        -11    1    3    3    0    0  0.49833530863E+01  0.80758494328E+01  0.10748446784E+01  0.95503111671E+01  0.51100000000E-03 0.  1.
        -12    1    3    3    0    0  0.62813713936E+01  0.17104078353E+02 -0.16362494939E+02  0.24489515380E+02  0.00000000000E+00 0.  1.
</event>
<event>
 7    1  0.2838209E-011  0.5052883E+02  0.7816164E-02  0.1300439E+00
        -11   -1    0    0    0    0  0.00000000000E+00  0.00000000000E+00  0.45593999997E+02  0.45594000000E+02  0.51100000000E-03 0.  1.
         11   -1    0    0    0    0 -0.00000000000E+00 -0.00000000000E+00 -0.45593999997E+02  0.45594000000E+02  0.51100000000E-03 0. -1.
    9900012    2    1    2    0    0  0.11039359665E+02  0.31359007216E+02  0.23407550157E+02  0.50528828836E+02  0.29999905729E+02 0.  0.
         12    1    1    2    0    0 -0.11039359665E+02 -0.31359007216E+02 -0.23407550157E+02  0.40659171164E+02  0.00000000000E+00 0. -1.
         11    1    3    3    0    0  0.12847663734E+02  0.81021337001E+01  0.15488634179E+02  0.21693428104E+02  0.51100000000E-03 0.  1.
        -11    1    3    3    0    0  0.17623266206E+01  0.83977160740E+01  0.10259797911E+02  0.13375009675E+02  0.51100000000E-03 0. -1.
         12    1    3    3    0    0 -0.35706306889E+01  0.14859157442E+02 -0.23408819326E+01  0.15460391057E+02  0.00000000000E+00 0. -1.
</event>
<event>
 7    1  0.2838209E-011  0.5052885E+02  0.7816164E-02  0.1300439E+00
        -11   -1    0    0    0    0  0.00000000000E+00  0.00000000000E+00  0.45593999997E+02  0.45594000000E+02  0.51100000000E-03 0.  1.
         11   -1    0    0    0    0 -0.00000000000E+00 -0.00000000000E+00 -0.45593999997E+02  0.45594000000E+02  0.51100000000E-03 0. -1.
    9900012    2    1    2    0    0  0.27041690154E+02  0.18395259207E+02  0.24156319411E+02  0.50528851766E+02  0.29999975428E+02 0.  0.
         12    1    1    2    0    0 -0.27041690154E+02 -0.18395259207E+02 -0.24156319411E+02  0.40659148234E+02  0.00000000000E+00 0. -1.
         11    1    3    3    0    0  0.27803465128E+01  0.11832634977E+02 -0.71788004406E+00  0.12176080209E+02  0.51100000000E-03 0. -1.
        -11    1    3    3    0    0 -0.18174526095E+01  0.18310794956E+01  0.13371143153E+01  0.29058322492E+01  0.51100000000E-03 0.  1.
        -12    1    3    3    0    0  0.26078796250E+02  0.47315447342E+01  0.23537085139E+02  0.35446939308E+02  0.00000000000E+00 0.  1.
</event>
<event>
 7    1  0.2838209E-011  0.5052887E+02  0.7816164E-02  0.1300439E+00
        -11   -1    0    0    0    0  0.00000000000E+00  0.00000000000E+00  0.45593999997E+02  0.45594000000E+02  0.51100000000E-03 0.  1.
         11   -1    0    0    0    0 -0.00000000000E+00 -0.00000000000E+00 -0.45593999997E+02  0.45594000000E+02  0.51100000000E-03 0. -1.
    9900012    2    1    2    0    0  0.60515003199E+01 -0.38245589787E+02  0.12402393327E+02  0.50528866284E+02  0.30000019558E+02 0.  0.
         12    1    1    2    0    0 -0.60515003199E+01  0.38245589787E+02 -0.12402393327E+02  0.40659133716E+02  0.00000000000E+00 0. -1.
         11    1    3    3    0    0  0.43536242101E+01 -0.41121355359E+01  0.37514516489E+01  0.70666181561E+01  0.51100000000E-03 0. -1.
        -11    1    3    3    0    0  0.12742838571E+02 -0.25625426634E+02  0.50276388269E+01  0.29057177727E+02  0.51100000000E-03 0.  1.
         12    1    3    3    0    0 -0.11044962462E+02 -0.85080276175E+01  0.36233028508E+01  0.14405070401E+02  0.00000000000E+00 0. -1.
</event>
<event>
 7    1  0.2838209E-011  0.5052885E+02  0.7816164E-02  0.1300439E+00
        -11   -1    0    0    0    0  0.00000000000E+00  0.00000000000E+00  0.45593999997E+02  0.45594000000E+02  0.51100000000E-03 0.  1.
         11   -1    0    0    0    0 -0.00000000000E+00 -0.00000000000E+00 -0.45593999997E+02  0.45594000000E+02  0.51100000000E-03 0. -1.
    9900012    2    1    2    0    0  0.11099801974E+02 -0.26414899184E+01  0.39025415142E+02  0.50528854659E+02  0.29999984220E+02 0.  0.
         12    1    1    2    0    0 -0.11099801974E+02  0.26414899184E+01 -0.39025415142E+02  0.40659145341E+02  0.00000000000E+00 0. -1.
         11    1    3    3    0    0 -0.66811354149E+01  0.58175298092E+00  0.43186168385E+01  0.79766194984E+01  0.51100000000E-03 0.  1.
        -11    1    3    3    0    0  0.28301370342E+01  0.55587056825E+00 -0.14616817368E+01  0.32334473062E+01  0.51100000000E-03 0. -1.
        -12    1    3    3    0    0  0.14950800355E+02 -0.37791134675E+01  0.36168480041E+02  0.39318787854E+02  0.00000000000E+00 0.  1.
</event>
<event>
 7    1  0.2838209E-011  0.5052886E+02  0.7816164E-02  0.1300439E+00
        -11   -1    0    0    0    0  0.00000000000E+00  0.00000000000E+00  0.45593999997E+02  0.45594000000E+02  0.51100000000E-03 0.  1.
         11   -1    0    0    0    0 -0.00000000000E+00 -0.00000000000E+00 -0.45593999997E+02  0.45594000000E+02  0.51100000000E-03 0. -1.
    9900012    2    1    2    0    0  0.18257650536E+01  0.29299437855E+01  0.40512315309E+02  0.50528859818E+02  0.29999999903E+02 0.  0.
         12    1    1    2    0    0 -0.18257650536E+01 -0.29299437855E+01 -0.40512315309E+02  0.40659140182E+02  0.00000000000E+00 0. -1.
         11    1    3    3    0    0 -0.14890235077E+01 -0.54583487682E+01  0.12917518858E+02  0.14102235851E+02  0.51100000000E-03 0. -1.
        -11    1    3    3    0    0  0.71548492814E+01 -0.52527179639E+01  0.64491291466E+01  0.10971516817E+02  0.51100000000E-03 0.  1.
        -12    1    3    3    0    0 -0.38400607202E+01  0.13641010518E+02  0.21145667304E+02  0.25455107150E+02  0.00000000000E+00 0.  1.
</event>
<event>
 7    1  0.3144801E-011  0.5052886E+02  0.7816164E-02  0.1300439E+00
        -11   -1    0    0    0    0  0.00000000000E+00  0.00000000000E+00  0.45593999997E+02  0.45594000000E+02  0.51100000000E-03 0.  1.
         11   -1    0    0    0    0 -0.00000000000E+00 -0.00000000000E+00 -0.45593999997E+02  0.45594000000E+02  0.51100000000E-03 0. -1.
    9900012    2    1    2    0    0  0.15043835680E+02  0.33651108392E+02  0.17159589524E+02  0.50528860798E+02  0.30000002882E+02 0.  0.
         12    1    1    2    0    0 -0.15043835680E+02 -0.33651108392E+02 -0.17159589524E+02  0.40659139202E+02  0.00000000000E+00 0. -1.
         11    1    3    3    0    0  0.77063900466E+00  0.45800412865E+01 -0.36069030599E+01  0.58805112538E+01  0.51100000000E-03 0. -1.
        -11    1    3    3    0    0 -0.23135783255E+01  0.19231817997E+02  0.57495733896E+01  0.20205768052E+02  0.51100000000E-03 0.  1.
        -12    1    3    3    0    0  0.16586775001E+02  0.98392491092E+01  0.15016919194E+02  0.24442581493E+02  0.00000000000E+00 0.  1.
</event>
<event>
 7    1  0.2838209E-011  0.5052885E+02  0.7816164E-02  0.1300439E+00
        -11   -1    0    0    0    0  0.00000000000E+00  0.00000000000E+00  0.45593999997E+02  0.45594000000E+02  0.51100000000E-03 0.  1.
         11   -1    0    0    0    0 -0.00000000000E+00 -0.00000000000E+00 -0.45593999997E+02  0.45594000000E+02  0.51100000000E-03 0. -1.
    9900012    2    1    2    0    0  0.29194118355E+02 -0.28291372569E+02  0.68397480519E+00  0.50528854290E+02  0.29999983099E+02 0.  0.
         12    1    1    2    0    0 -0.29194118355E+02  0.28291372569E+02 -0.68397480519E+00  0.40659145710E+02  0.00000000000E+00 0. -1.
         11    1    3    3    0    0  0.61977637284E+01 -0.26848105880E+01  0.94654688571E+00  0.68202957703E+01  0.51100000000E-03 0. -1.
        -11    1    3    3    0    0  0.19022423023E+02 -0.24551262831E+02 -0.10412661222E+02  0.32757298397E+02  0.51100000000E-03 0.  1.
         12    1    3    3    0    0  0.39739316038E+01 -0.10552991495E+01  0.10150089142E+02  0.10951260123E+02  0.00000000000E+00 0. -1.
</event>
<event>
 7    1  0.2838209E-011  0.5052886E+02  0.7816164E-02  0.1300439E+00
        -11   -1    0    0    0    0  0.00000000000E+00  0.00000000000E+00  0.45593999997E+02  0.45594000000E+02  0.51100000000E-03 0.  1.
         11   -1    0    0    0    0 -0.00000000000E+00 -0.00000000000E+00 -0.45593999997E+02  0.45594000000E+02  0.51100000000E-03 0. -1.
    9900012    2    1    2    0    0 -0.36515226114E+02  0.17428011612E+02  0.40085302326E+01  0.50528860295E+02  0.30000001354E+02 0.  0.
         12    1    1    2    0    0  0.36515226114E+02 -0.17428011612E+02 -0.40085302326E+01  0.40659139705E+02  0.00000000000E+00 0. -1.
         11    1    3    3    0    0 -0.13972445209E+02  0.33865347711E+01 -0.39728407479E+01  0.14915807277E+02  0.51100000000E-03 0. -1.
        -11    1    3    3    0    0 -0.70518228148E+01  0.36598316463E+00  0.12596066669E+02  0.14440327021E+02  0.51100000000E-03 0.  1.
         12    1    3    3    0    0 -0.15490958090E+02  0.13675493676E+02 -0.46146956885E+01  0.21172725997E+02  0.00000000000E+00 0. -1.
</event>
<event>
 7    1  0.2838209E-011  0.5052884E+02  0.7816164E-02  0.1300439E+00
        -11   -1    0    0    0    0  0.00000000000E+00  0.00000000000E+00  0.45593999997E+02  0.45594000000E+02  0.51100000000E-03 0.  1.
         11   -1    0    0    0    0 -0.00000000000E+00 -0.00000000000E+00 -0.45593999997E+02  0.45594000000E+02  0.51100000000E-03 0. -1.
    9900012    2    1    2    0    0  0.15531572922E+01  0.29210403935E+02  0.28240177100E+02  0.50528836233E+02  0.29999928213E+02 0.  0.
         12    1    1    2    0    0 -0.15531572922E+01 -0.29210403935E+02 -0.28240177100E+02  0.40659163767E+02  0.00000000000E+00 0. -1.
         11    1    3    3    0    0  0.70686154758E+01  0.33276092051E+01  0.70753253456E+01  0.10540329064E+02  0.51100000000E-03 0. -1.
        -11    1    3    3    0    0  0.69622562276E+01  0.24595353162E+01  0.43272875171E+01  0.85584895436E+01  0.51100000000E-03 0.  1.
         12    1    3    3    0    0 -0.12477714411E+02  0.23423259414E+02  0.16837564237E+02  0.31430017625E+02  0.00000000000E+00 0. -1.
</event>
<event>
 7    1  0.2838209E-011  0.5052887E+02  0.7816164E-02  0.1300439E+00
        -11   -1    0    0    0    0  0.00000000000E+00  0.00000000000E+00  0.45593999997E+02  0.45594000000E+02  0.51100000000E-03 0. -1.
         11   -1    0    0    0    0 -0.00000000000E+00 -0.00000000000E+00 -0.45593999997E+02  0.45594000000E+02  0.51100000000E-03 0.  1.
    9900012    2    1    2    0    0  0.24840463902E+02 -0.30865439207E+02 -0.91345843512E+01  0.50528872912E+02  0.30000039703E+02 0.  0.
         12    1    1    2    0    0 -0.24840463902E+02  0.30865439207E+02  0.91345843512E+01  0.40659127088E+02  0.00000000000E+00 0. -1.
         11    1    3    3    0    0  0.13987563715E+02 -0.21006711590E+01 -0.60519914003E+01  0.15384776832E+02  0.51100000000E-03 0. -1.
        -11    1    3    3    0    0  0.30981962095E+01 -0.12357939669E+02 -0.95035226792E+01  0.15894478167E+02  0.51100000000E-03 0.  1.
        -12    1    3    3    0    0  0.77547039771E+01 -0.16406828379E+02  0.64209297283E+01  0.19249617913E+02  0.00000000000E+00 0.  1.
</event>
<event>
 7    1  0.2838209E-011  0.5052886E+02  0.7816164E-02  0.1300439E+00
        -11   -1    0    0    0    0  0.00000000000E+00  0.00000000000E+00  0.45593999997E+02  0.45594000000E+02  0.51100000000E-03 0.  1.
         11   -1    0    0    0    0 -0.00000000000E+00 -0.00000000000E+00 -0.45593999997E+02  0.45594000000E+02  0.51100000000E-03 0. -1.
    9900012    2    1    2    0    0  0.38980096438E+02  0.97001519431E+01  0.62948341502E+01  0.50528858310E+02  0.29999995318E+02 0.  0.
         12    1    1    2    0    0 -0.38980096438E+02 -0.97001519431E+01 -0.62948341502E+01  0.40659141690E+02  0.00000000000E+00 0. -1.
         11    1    3    3    0    0  0.21975609352E+00  0.34751601248E+01  0.94960338526E+00  0.36092627341E+01  0.51100000000E-03 0. -1.
        -11    1    3    3    0    0  0.11106788862E+02 -0.13896207993E+01  0.13076653306E+02  0.17213095792E+02  0.51100000000E-03 0.  1.
        -12    1    3    3    0    0  0.27653551482E+02  0.76146126177E+01 -0.77314225411E+01  0.29706499784E+02  0.00000000000E+00 0.  1.
</event>
<event>
 7    1  0.2838209E-011  0.5052886E+02  0.7816164E-02  0.1300439E+00
        -11   -1    0    0    0    0  0.00000000000E+00  0.00000000000E+00  0.45593999997E+02  0.45594000000E+02  0.51100000000E-03 0. -1.
         11   -1    0    0    0    0 -0.00000000000E+00 -0.00000000000E+00 -0.45593999997E+02  0.45594000000E+02  0.51100000000E-03 0.  1.
    9900012    2    1    2    0    0  0.38749619844E+02 -0.93221372798E+01 -0.80455036958E+01  0.50528863128E+02  0.30000009963E+02 0.  0.
         12    1    1    2    0    0 -0.38749619844E+02  0.93221372798E+01  0.80455036958E+01  0.40659136872E+02  0.00000000000E+00 0. -1.
         11    1    3    3    0    0  0.13964254199E+02  0.13788178373E+01  0.39211851917E+01  0.14569736701E+02  0.51100000000E-03 0. -1.
        -11    1    3    3    0    0  0.11354299301E+02 -0.88352702175E+01  0.40762294151E+01  0.14953185578E+02  0.51100000000E-03 0.  1.
        -12    1    3    3    0    0  0.13431066344E+02 -0.18656848997E+01 -0.16042918303E+02  0.21005940849E+02  0.00000000000E+00 0.  1.
</event>
<event>
 7    1  0.2838209E-011  0.5052886E+02  0.7816164E-02  0.1300439E+00
        -11   -1    0    0    0    0  0.00000000000E+00  0.00000000000E+00  0.45593999997E+02  0.45594000000E+02  0.51100000000E-03 0. -1.
         11   -1    0    0    0    0 -0.00000000000E+00 -0.00000000000E+00 -0.45593999997E+02  0.45594000000E+02  0.51100000000E-03 0.  1.
    9900012    2    1    2    0    0  0.45728568449E+01  0.11384681409E+02 -0.38763949509E+02  0.50528858690E+02  0.29999996474E+02 0.  0.
         12    1    1    2    0    0 -0.45728568449E+01 -0.11384681409E+02  0.38763949509E+02  0.40659141310E+02  0.00000000000E+00 0. -1.
         11    1    3    3    0    0  0.15739295202E+01  0.31022548556E+01 -0.12626737742E+01  0.37007546048E+01  0.51100000000E-03 0. -1.
        -11    1    3    3    0    0  0.12377997345E+02 -0.14007623415E+01 -0.92190085909E+01  0.15497324707E+02  0.51100000000E-03 0.  1.
         12    1    3    3    0    0 -0.93790700207E+01  0.96831888946E+01 -0.28282267144E+02  0.31330779378E+02  0.00000000000E+00 0. -1.
</event>
<event>
 7    1  0.2838209E-011  0.5052888E+02  0.7816164E-02  0.1300439E+00
        -11   -1    0    0    0    0  0.00000000000E+00  0.00000000000E+00  0.45593999997E+02  0.45594000000E+02  0.51100000000E-03 0.  1.
         11   -1    0    0    0    0 -0.00000000000E+00 -0.00000000000E+00 -0.45593999997E+02  0.45594000000E+02  0.51100000000E-03 0. -1.
    9900012    2    1    2    0    0  0.34545801695E+02 -0.19818859267E+02  0.81831676503E+01  0.50528882570E+02  0.30000069059E+02 0.  0.
         12    1    1    2    0    0 -0.34545801695E+02  0.19818859267E+02 -0.81831676503E+01  0.40659117430E+02  0.00000000000E+00 0. -1.
         11    1    3    3    0    0  0.12091372403E+02  0.11310356469E+01 -0.42183780039E+01  0.12855941874E+02  0.51100000000E-03 0. -1.
        -11    1    3    3    0    0  0.54981948362E+01 -0.12623807172E+02 -0.20072939107E+01  0.13914736184E+02  0.51100000000E-03 0.  1.
         12    1    3    3    0    0  0.16956234456E+02 -0.83260877426E+01  0.14408839565E+02  0.23758204512E+02  0.00000000000E+00 0. -1.
</event>
<event>
 7    1  0.2838209E-011  0.5052886E+02  0.7816164E-02  0.1300439E+00
        -11   -1    0    0    0    0  0.00000000000E+00  0.00000000000E+00  0.45593999997E+02  0.45594000000E+02  0.51100000000E-03 0.  1.
         11   -1    0    0    0    0 -0.00000000000E+00 -0.00000000000E+00 -0.45593999997E+02  0.45594000000E+02  0.51100000000E-03 0. -1.
    9900012    2    1    2    0    0 -0.17972175507E+01 -0.17020046636E+02  0.36881616951E+02  0.50528860224E+02  0.30000001136E+02 0.  0.
         12    1    1    2    0    0  0.17972175507E+01  0.17020046636E+02 -0.36881616951E+02  0.40659139776E+02  0.00000000000E+00 0. -1.
         11    1    3    3    0    0  0.95010314179E+01 -0.67071475720E+01  0.20992051147E+02  0.23998367407E+02  0.51100000000E-03 0. -1.
        -11    1    3    3    0    0 -0.92967956785E+01 -0.18060886271E+01  0.15008963682E+02  0.17747150675E+02  0.51100000000E-03 0.  1.
         12    1    3    3    0    0 -0.20014532900E+01 -0.85068104373E+01  0.88060212166E+00  0.87833421421E+01  0.00000000000E+00 0. -1.
</event>
<event>
 7    1  0.2838209E-011  0.5052887E+02  0.7816164E-02  0.1300439E+00
        -11   -1    0    0    0    0  0.00000000000E+00  0.00000000000E+00  0.45593999997E+02  0.45594000000E+02  0.51100000000E-03 0. -1.
         11   -1    0    0    0    0 -0.00000000000E+00 -0.00000000000E+00 -0.45593999997E+02  0.45594000000E+02  0.51100000000E-03 0.  1.
    9900012    2    1    2    0    0  0.15943260244E+01 -0.16357401866E+02 -0.37189494678E+02  0.50528868361E+02  0.30000025869E+02 0.  0.
         12    1    1    2    0    0 -0.15943260244E+01  0.16357401866E+02  0.37189494678E+02  0.40659131639E+02  0.00000000000E+00 0. -1.
         11    1    3    3    0    0  0.18689889572E+01 -0.27660322222E+01 -0.14309489866E+02  0.14693725003E+02  0.51100000000E-03 0.  1.
        -11    1    3    3    0    0 -0.11631812745E+02 -0.40539387737E+01 -0.13557935994E+02  0.18318054373E+02  0.51100000000E-03 0. -1.
         12    1    3    3    0    0  0.11357149812E+02 -0.95374308696E+01 -0.93220688173E+01  0.17517088984E+02  0.00000000000E+00 0. -1.
</event>
<event>
 7    1  0.2838209E-011  0.5052889E+02  0.7816164E-02  0.1300439E+00
        -11   -1    0    0    0    0  0.00000000000E+00  0.00000000000E+00  0.45593999997E+02  0.45594000000E+02  0.51100000000E-03 0.  1.
         11   -1    0    0    0    0 -0.00000000000E+00 -0.00000000000E+00 -0.45593999997E+02  0.45594000000E+02  0.51100000000E-03 0. -1.
    9900012    2    1    2    0    0  0.53944016399E+01 -0.31786230267E+01  0.40174124755E+02  0.50528886467E+02  0.30000080906E+02 0.  0.
         12    1    1    2    0    0 -0.53944016399E+01  0.31786230267E+01 -0.40174124755E+02  0.40659113533E+02  0.00000000000E+00 0. -1.
         11    1    3    3    0    0 -0.11262628578E+02 -0.11035150171E+00  0.10923660616E+02  0.15690294499E+02  0.51100000000E-03 0. -1.
        -11    1    3    3    0    0 -0.84631198091E+00 -0.70344200729E+00  0.83592466494E+00  0.13819713938E+01  0.51100000000E-03 0.  1.
        -12    1    3    3    0    0  0.17503342199E+02 -0.23648295177E+01  0.28414539474E+02  0.33456620575E+02  0.00000000000E+00 0.  1.
</event>
<event>
 7    1  0.2838209E-011  0.5052886E+02  0.7816164E-02  0.1300439E+00
        -11   -1    0    0    0    0  0.00000000000E+00  0.00000000000E+00  0.45593999997E+02  0.45594000000E+02  0.51100000000E-03 0.  1.
         11   -1    0    0    0    0 -0.00000000000E+00 -0.00000000000E+00 -0.45593999997E+02  0.45594000000E+02  0.51100000000E-03 0. -1.
    9900012    2    1    2    0    0  0.16925292220E+01  0.20708084067E+02  0.34949621997E+02  0.50528862299E+02  0.30000007443E+02 0.  0.
         12    1    1    2    0    0 -0.16925292220E+01 -0.20708084067E+02 -0.34949621997E+02  0.40659137701E+02  0.00000000000E+00 0. -1.
         11    1    3    3    0    0  0.27513975912E+01  0.20344823040E+01 -0.18491724584E+01  0.38895688697E+01  0.51100000000E-03 0. -1.
        -11    1    3    3    0    0 -0.87713777818E+01  0.98558638265E+01  0.30737175349E+02  0.33449201316E+02  0.51100000000E-03 0.  1.
         12    1    3    3    0    0  0.77125094127E+01  0.88177379369E+01  0.60616191059E+01  0.13190092113E+02  0.00000000000E+00 0. -1.
</event>
<event>
 7    1  0.2838209E-011  0.5052886E+02  0.7816164E-02  0.1300439E+00
        -11   -1    0    0    0    0  0.00000000000E+00  0.00000000000E+00  0.45593999997E+02  0.45594000000E+02  0.51100000000E-03 0.  1.
         11   -1    0    0    0    0 -0.00000000000E+00 -0.00000000000E+00 -0.45593999997E+02  0.45594000000E+02  0.51100000000E-03 0. -1.
    9900012    2    1    2    0    0  0.12979559191E+02 -0.15378270632E+02  0.35329950630E+02  0.50528861102E+02  0.30000003804E+02 0.  0.
         12    1    1    2    0    0 -0.12979559191E+02  0.15378270632E+02 -0.35329950630E+02  0.40659138898E+02  0.00000000000E+00 0. -1.
         11    1    3    3    0    0  0.89501445434E-01 -0.58586846578E+01 -0.15783932350E+01  0.60682387802E+01  0.51100000000E-03 0. -1.
        -11    1    3    3    0    0 -0.22447883353E+01 -0.73670475378E+01  0.21136743215E+02  0.22496096953E+02  0.51100000000E-03 0.  1.
        -12    1    3    3    0    0  0.15134846081E+02 -0.21525384367E+01  0.15771600650E+02  0.21964525369E+02  0.00000000000E+00 0.  1.
</event>
<event>
 7    1  0.2838209E-011  0.5052886E+02  0.7816164E-02  0.1300439E+00
        -11   -1    0    0    0    0  0.00000000000E+00  0.00000000000E+00  0.45593999997E+02  0.45594000000E+02  0.51100000000E-03 0.  1.
         11   -1    0    0    0    0 -0.00000000000E+00 -0.00000000000E+00 -0.45593999997E+02  0.45594000000E+02  0.51100000000E-03 0. -1.
    9900012    2    1    2    0    0  0.23581280731E+02 -0.28885179185E+02  0.16209111105E+02  0.50528860065E+02  0.30000000654E+02 0.  0.
         12    1    1    2    0    0 -0.23581280731E+02  0.28885179185E+02 -0.16209111105E+02  0.40659139935E+02  0.00000000000E+00 0. -1.
         11    1    3    3    0    0  0.61664323990E+01  0.33637461423E+01 -0.89555652176E+00  0.70810803120E+01  0.51100000000E-03 0. -1.
        -11    1    3    3    0    0  0.88939882097E+00  0.51808487730E+00  0.45444449474E+01  0.46595517321E+01  0.51100000000E-03 0.  1.
         12    1    3    3    0    0  0.16525449511E+02 -0.32767010204E+02  0.12560222679E+02  0.38788228021E+02  0.00000000000E+00 0. -1.
</event>
<event>
 7    1  0.2838209E-011  0.5052886E+02  0.7816164E-02  0.1300439E+00
        -11   -1    0    0    0    0  0.00000000000E+00  0.00000000000E+00  0.45593999997E+02  0.45594000000E+02  0.51100000000E-03 0. -1.
         11   -1    0    0    0    0 -0.00000000000E+00 -0.00000000000E+00 -0.45593999997E+02  0.45594000000E+02  0.51100000000E-03 0.  1.
    9900012    2    1    2    0    0 -0.11531143742E+02 -0.33615852794E+02 -0.19752792374E+02  0.50528860294E+02  0.30000001350E+02 0.  0.
         12    1    1    2    0    0  0.11531143742E+02  0.33615852794E+02  0.19752792374E+02  0.40659139706E+02  0.00000000000E+00 0. -1.
         11    1    3    3    0    0 -0.43043207690E+01 -0.29136235388E+02 -0.16099847665E+02  0.33565644415E+02  0.51100000000E-03 0. -1.
        -11    1    3    3    0    0  0.24059349506E+01  0.31555572375E+00 -0.55313631221E+01  0.60402050173E+01  0.51100000000E-03 0.  1.
         12    1    3    3    0    0 -0.96327579233E+01 -0.47951731301E+01  0.18784184137E+01  0.10923010862E+02  0.00000000000E+00 0. -1.
</event>
<event>
 7    1  0.2838209E-011  0.5052886E+02  0.7816164E-02  0.1300439E+00
        -11   -1    0    0    0    0  0.00000000000E+00  0.00000000000E+00  0.45593999997E+02  0.45594000000E+02  0.51100000000E-03 0.  1.
         11   -1    0    0    0    0 -0.00000000000E+00 -0.00000000000E+00 -0.45593999997E+02  0.45594000000E+02  0.51100000000E-03 0. -1.
    9900012    2    1    2    0    0 -0.11517431823E+02 -0.38486843307E+02  0.62671563656E+01  0.50528860899E+02  0.30000003189E+02 0.  0.
         12    1    1    2    0    0  0.11517431823E+02  0.38486843307E+02 -0.62671563656E+01  0.40659139101E+02  0.00000000000E+00 0. -1.
         11    1    3    3    0    0  0.84683466931E+01 -0.17882165704E+02  0.71891937232E+00  0.19799030059E+02  0.51100000000E-03 0. -1.
        -11    1    3    3    0    0 -0.48511165030E+00  0.16560261073E+00 -0.13265102623E+01  0.14221066328E+01  0.51100000000E-03 0.  1.
        -12    1    3    3    0    0 -0.19500666866E+02 -0.20770280214E+02  0.68747472556E+01  0.29307724207E+02  0.00000000000E+00 0.  1.
</event>
<event>
 7    1  0.2838209E-011  0.5052886E+02  0.7816164E-02  0.1300439E+00
        -11   -1    0    0    0    0  0.00000000000E+00  0.00000000000E+00  0.45593999997E+02  0.45594000000E+02  0.51100000000E-03 0. -1.
         11   -1    0    0    0    0 -0.00000000000E+00 -0.00000000000E+00 -0.45593999997E+02  0.45594000000E+02  0.51100000000E-03 0.  1.
    9900012    2    1    2    0    0  0.36443762709E+02  0.76965720240E+01 -0.16302788578E+02  0.50528856173E+02  0.29999988824E+02 0.  0.
         12    1    1    2    0    0 -0.36443762709E+02 -0.76965720240E+01  0.16302788578E+02  0.40659143827E+02  0.00000000000E+00 0. -1.
         11    1    3    3    0    0  0.28708894884E+01 -0.57843652205E+01 -0.61672263521E+01  0.89294775098E+01  0.51100000000E-03 0. -1.
        -11    1    3    3    0    0  0.93740910028E+01  0.75899022213E+00 -0.10711288577E+02  0.14254169619E+02  0.51100000000E-03 0.  1.
         12    1    3    3    0    0  0.24198782218E+02  0.12721947022E+02  0.57572635035E+00  0.27345209045E+02  0.00000000000E+00 0. -1.
</event>
<event>
 7    1  0.2838209E-011  0.5052885E+02  0.7816164E-02  0.1300439E+00
        -11   -1    0    0    0    0  0.00000000000E+00  0.00000000000E+00  0.45593999997E+02  0.45594000000E+02  0.51100000000E-03 0. -1.
         11   -1    0    0    0    0 -0.00000000000E+00 -0.00000000000E+00 -0.45593999997E+02  0.45594000000E+02  0.51100000000E-03 0.  1.
    9900012    2    1    2    0    0 -0.23403926564E+02 -0.98197630935E+00 -0.33233393775E+02  0.50528849518E+02  0.29999968595E+02 0.  0.
         12    1    1    2    0    0  0.23403926564E+02  0.98197630935E+00  0.33233393775E+02  0.40659150482E+02  0.00000000000E+00 0. -1.
         11    1    3    3    0    0  0.54061313793E+01 -0.18158135930E+01 -0.58399037953E+01  0.81625922410E+01  0.51100000000E-03 0. -1.
        -11    1    3    3    0    0 -0.75826827605E+00  0.33739567710E+01 -0.62645788412E+01  0.71556623306E+01  0.51100000000E-03 0.  1.
         12    1    3    3    0    0 -0.28051789668E+02 -0.25401194874E+01 -0.21128911139E+02  0.35210594946E+02  0.00000000000E+00 0. -1.
</event>
<event>
 7    1  0.2838209E-011  0.5052885E+02  0.7816164E-02  0.1300439E+00
        -11   -1    0    0    0    0  0.00000000000E+00  0.00000000000E+00  0.45593999997E+02  0.45594000000E+02  0.51100000000E-03 0.  1.
         11   -1    0    0    0    0 -0.00000000000E+00 -0.00000000000E+00 -0.45593999997E+02  0.45594000000E+02  0.51100000000E-03 0. -1.
    9900012    2    1    2    0    0 -0.90780475434E+01  0.60418628446E+01  0.39169517744E+02  0.50528853746E+02  0.29999981446E+02 0.  0.
         12    1    1    2    0    0  0.90780475434E+01 -0.60418628446E+01 -0.39169517744E+02  0.40659146254E+02  0.00000000000E+00 0. -1.
         11    1    3    3    0    0  0.19998065732E+01  0.68284529201E+01  0.52081324996E+01  0.88176890400E+01  0.51100000000E-03 0. -1.
        -11    1    3    3    0    0 -0.52033314262E+01  0.44182957639E+01  0.33121657874E+02  0.33817750014E+02  0.51100000000E-03 0.  1.
         12    1    3    3    0    0 -0.58745226904E+01 -0.52048858394E+01  0.83972736981E+00  0.78934146918E+01  0.00000000000E+00 0. -1.
</event>
<event>
 7    1  0.2838209E-011  0.5052886E+02  0.7816164E-02  0.1300439E+00
        -11   -1    0    0    0    0  0.00000000000E+00  0.00000000000E+00  0.45593999997E+02  0.45594000000E+02  0.51100000000E-03 0.  1.
         11   -1    0    0    0    0 -0.00000000000E+00 -0.00000000000E+00 -0.45593999997E+02  0.45594000000E+02  0.51100000000E-03 0. -1.
    9900012    2    1    2    0    0  0.24537110875E+02  0.14902977703E+02 -0.28792311254E+02  0.50528859061E+02  0.29999997603E+02 0.  0.
         12    1    1    2    0    0 -0.24537110875E+02 -0.14902977703E+02  0.28792311254E+02  0.40659140939E+02  0.00000000000E+00 0. -1.
         11    1    3    3    0    0  0.16381599142E+01  0.25923570988E-01 -0.16648519475E+02  0.16728940221E+02  0.51100000000E-03 0. -1.
        -11    1    3    3    0    0  0.29653872722E+01 -0.19482496378E+00 -0.79149660345E+01  0.84544760943E+01  0.51100000000E-03 0.  1.
         12    1    3    3    0    0  0.19933563689E+02  0.15071879096E+02 -0.42288257443E+01  0.25345442746E+02  0.00000000000E+00 0. -1.
</event>
<event>
 7    1  0.2838209E-011  0.5052886E+02  0.7816164E-02  0.1300439E+00
        -11   -1    0    0    0    0  0.00000000000E+00  0.00000000000E+00  0.45593999997E+02  0.45594000000E+02  0.51100000000E-03 0. -1.
         11   -1    0    0    0    0 -0.00000000000E+00 -0.00000000000E+00 -0.45593999997E+02  0.45594000000E+02  0.51100000000E-03 0.  1.
    9900012    2    1    2    0    0  0.12991579509E+02  0.12801408441E+02 -0.36338799883E+02  0.50528861136E+02  0.30000003909E+02 0.  0.
         12    1    1    2    0    0 -0.12991579509E+02 -0.12801408441E+02  0.36338799883E+02  0.40659138864E+02  0.00000000000E+00 0. -1.
         11    1    3    3    0    0 -0.18502642880E+01  0.63962612003E+00  0.82022642310E+00  0.21225859594E+01  0.51100000000E-03 0.  1.
        -11    1    3    3    0    0 -0.97299426487E+00  0.34617458141E+01  0.28014606887E+01  0.45583532303E+01  0.51100000000E-03 0. -1.
        -12    1    3    3    0    0  0.15814838062E+02  0.87000365073E+01 -0.39960486995E+02  0.43847921946E+02  0.00000000000E+00 0.  1.
</event>
<event>
 7    1  0.2838209E-011  0.5052886E+02  0.7816164E-02  0.1300439E+00
        -11   -1    0    0    0    0  0.00000000000E+00  0.00000000000E+00  0.45593999997E+02  0.45594000000E+02  0.51100000000E-03 0. -1.
         11   -1    0    0    0    0 -0.00000000000E+00 -0.00000000000E+00 -0.45593999997E+02  0.45594000000E+02  0.51100000000E-03 0.  1.
    9900012    2    1    2    0    0  0.18256587115E+01 -0.40617963104E+02 -0.11827453011E+00  0.50528856560E+02  0.29999989999E+02 0.  0.
         12    1    1    2    0    0 -0.18256587115E+01  0.40617963104E+02  0.11827453011E+00  0.40659143440E+02  0.00000000000E+00 0. -1.
         11    1    3    3    0    0  0.57786377328E+01 -0.15699069240E+02  0.13814804632E+01  0.16785765326E+02  0.51100000000E-03 0. -1.
        -11    1    3    3    0    0  0.79581051355E+01 -0.75958811826E+01  0.44919830183E+01  0.11883045064E+02  0.51100000000E-03 0.  1.
        -12    1    3    3    0    0 -0.11911084157E+02 -0.17323012681E+02 -0.59917380116E+01  0.21860046169E+02  0.00000000000E+00 0.  1.
</event>
<event>
 7    1  0.2838209E-011  0.5052889E+02  0.7816164E-02  0.1300439E+00
        -11   -1    0    0    0    0  0.00000000000E+00  0.00000000000E+00  0.45593999997E+02  0.45594000000E+02  0.51100000000E-03 0.  1.
         11   -1    0    0    0    0 -0.00000000000E+00 -0.00000000000E+00 -0.45593999997E+02  0.45594000000E+02  0.51100000000E-03 0. -1.
    9900012    2    1    2    0    0 -0.37130770203E+02 -0.16557176442E+02 -0.57346623550E+00  0.50528892150E+02  0.30000098180E+02 0.  0.
         12    1    1    2    0    0  0.37130770203E+02  0.16557176442E+02  0.57346623550E+00  0.40659107850E+02  0.00000000000E+00 0. -1.
         11    1    3    3    0    0 -0.28882264811E+02 -0.80392593967E+01 -0.90798905502E+01  0.31325059057E+02  0.51100000000E-03 0. -1.
        -11    1    3    3    0    0 -0.56858601519E+01 -0.66027141048E+01 -0.13714831403E+01  0.88207599152E+01  0.51100000000E-03 0.  1.
        -12    1    3    3    0    0 -0.25626452406E+01 -0.19152029401E+01  0.98779074550E+01  0.10383073178E+02  0.00000000000E+00 0.  1.
</event>
<event>
 7    1  0.2838209E-011  0.5052886E+02  0.7816164E-02  0.1300439E+00
        -11   -1    0    0    0    0  0.00000000000E+00  0.00000000000E+00  0.45593999997E+02  0.45594000000E+02  0.51100000000E-03 0.  1.
         11   -1    0    0    0    0 -0.00000000000E+00 -0.00000000000E+00 -0.45593999997E+02  0.45594000000E+02  0.51100000000E-03 0. -1.
    9900012    2    1    2    0    0  0.28365868704E+02  0.29048536599E+02 -0.21737874782E+01  0.50528864030E+02  0.30000012704E+02 0.  0.
         12    1    1    2    0    0 -0.28365868704E+02 -0.29048536599E+02  0.21737874782E+01  0.40659135970E+02  0.00000000000E+00 0. -1.
         11    1    3    3    0    0  0.10035995160E+02  0.64783359798E+01 -0.22653429057E+01  0.12158199483E+02  0.51100000000E-03 0. -1.
        -11    1    3    3    0    0  0.19780002458E+02  0.85600111897E+01 -0.69206530583E+01  0.22636645684E+02  0.51100000000E-03 0.  1.
         12    1    3    3    0    0 -0.14501289145E+01  0.14010189430E+02  0.70122084858E+01  0.15734018863E+02  0.00000000000E+00 0. -1.
</event>
<event>
 7    1  0.2838209E-011  0.5052892E+02  0.7816164E-02  0.1300439E+00
        -11   -1    0    0    0    0  0.00000000000E+00  0.00000000000E+00  0.45593999997E+02  0.45594000000E+02  0.51100000000E-03 0.  1.
         11   -1    0    0    0    0 -0.00000000000E+00 -0.00000000000E+00 -0.45593999997E+02  0.45594000000E+02  0.51100000000E-03 0. -1.
    9900012    2    1    2    0    0  0.21612230380E+02  0.20643001114E+02  0.27566991870E+02  0.50528916909E+02  0.30000173437E+02 0.  0.
         12    1    1    2    0    0 -0.21612230380E+02 -0.20643001114E+02 -0.27566991870E+02  0.40659083091E+02  0.00000000000E+00 0. -1.
         11    1    3    3    0    0  0.25197811058E+01  0.66786316764E+00  0.74254188983E+01  0.78697003824E+01  0.51100000000E-03 0. -1.
        -11    1    3    3    0    0  0.17192771954E+02  0.11947443397E-01  0.63814384931E+01  0.18338874221E+02  0.51100000000E-03 0.  1.
         12    1    3    3    0    0  0.18996773201E+01  0.19963190503E+02  0.13760134479E+02  0.24320342306E+02  0.00000000000E+00 0. -1.
</event>
<event>
 7    1  0.2838209E-011  0.5052885E+02  0.7816164E-02  0.1300439E+00
        -11   -1    0    0    0    0  0.00000000000E+00  0.00000000000E+00  0.45593999997E+02  0.45594000000E+02  0.51100000000E-03 0.  1.
         11   -1    0    0    0    0 -0.00000000000E+00 -0.00000000000E+00 -0.45593999997E+02  0.45594000000E+02  0.51100000000E-03 0. -1.
    9900012    2    1    2    0    0  0.15720525156E+02  0.29320982795E+02  0.23373305615E+02  0.50528851477E+02  0.29999974550E+02 0.  0.
         12    1    1    2    0    0 -0.15720525156E+02 -0.29320982795E+02 -0.23373305615E+02  0.40659148523E+02  0.00000000000E+00 0. -1.
         11    1    3    3    0    0  0.21961674314E+01  0.38316708208E+01  0.23254065041E+01  0.49912291408E+01  0.51100000000E-03 0. -1.
        -11    1    3    3    0    0  0.19809203848E+02  0.16633068122E+02  0.52924597274E+01  0.26402152232E+02  0.51100000000E-03 0.  1.
         12    1    3    3    0    0 -0.62848461231E+01  0.88562438519E+01  0.15755439383E+02  0.19135470104E+02  0.00000000000E+00 0. -1.
</event>
<event>
 7    1  0.2838209E-011  0.5052886E+02  0.7816164E-02  0.1300439E+00
        -11   -1    0    0    0    0  0.00000000000E+00  0.00000000000E+00  0.45593999997E+02  0.45594000000E+02  0.51100000000E-03 0.  1.
         11   -1    0    0    0    0 -0.00000000000E+00 -0.00000000000E+00 -0.45593999997E+02  0.45594000000E+02  0.51100000000E-03 0. -1.
    9900012    2    1    2    0    0 -0.69558507993E+01  0.32029157052E+02  0.24060649759E+02  0.50528860454E+02  0.30000001835E+02 0.  0.
         12    1    1    2    0    0  0.69558507993E+01 -0.32029157052E+02 -0.24060649759E+02  0.40659139546E+02  0.00000000000E+00 0. -1.
         11    1    3    3    0    0 -0.87415843587E+00 -0.12519432303E+01 -0.17350112691E+01  0.23112289346E+01  0.51100000000E-03 0. -1.
        -11    1    3    3    0    0 -0.28486866255E+00  0.30123170811E+01 -0.42231299157E+01  0.51951930568E+01  0.51100000000E-03 0.  1.
        -12    1    3    3    0    0 -0.57968237008E+01  0.30268783201E+02  0.30018790944E+02  0.43022438462E+02  0.00000000000E+00 0.  1.
</event>
<event>
 7    1  0.2838209E-011  0.5052886E+02  0.7816164E-02  0.1300439E+00
        -11   -1    0    0    0    0  0.00000000000E+00  0.00000000000E+00  0.45593999997E+02  0.45594000000E+02  0.51100000000E-03 0. -1.
         11   -1    0    0    0    0 -0.00000000000E+00 -0.00000000000E+00 -0.45593999997E+02  0.45594000000E+02  0.51100000000E-03 0.  1.
    9900012    2    1    2    0    0  0.10429515852E+02 -0.20326407624E+02  0.33633733775E+02  0.50528859632E+02  0.29999999338E+02 0.  0.
         12    1    1    2    0    0 -0.10429515852E+02  0.20326407624E+02 -0.33633733775E+02  0.40659140368E+02  0.00000000000E+00 0. -1.
         11    1    3    3    0    0  0.19654598218E+01 -0.57997102398E+01  0.12371619916E+02  0.13804225830E+02  0.51100000000E-03 0. -1.
        -11    1    3    3    0    0 -0.79494402901E+01 -0.45888699637E+01  0.12807351500E+02  0.15756889959E+02  0.51100000000E-03 0.  1.
        -12    1    3    3    0    0  0.16413496320E+02 -0.99378274208E+01  0.84547623592E+01  0.20967743843E+02  0.00000000000E+00 0.  1.
</event>
<event>
 7    1  0.2838209E-011  0.5052888E+02  0.7816164E-02  0.1300439E+00
        -11   -1    0    0    0    0  0.00000000000E+00  0.00000000000E+00  0.45593999997E+02  0.45594000000E+02  0.51100000000E-03 0.  1.
         11   -1    0    0    0    0 -0.00000000000E+00 -0.00000000000E+00 -0.45593999997E+02  0.45594000000E+02  0.51100000000E-03 0. -1.
    9900012    2    1    2    0    0  0.12852688657E+02  0.22382500622E+02  0.31416489089E+02  0.50528883845E+02  0.30000072935E+02 0.  0.
         12    1    1    2    0    0 -0.12852688657E+02 -0.22382500622E+02 -0.31416489089E+02  0.40659116155E+02  0.00000000000E+00 0. -1.
         11    1    3    3    0    0 -0.15384769574E+01 -0.15108925601E+01 -0.37536217996E+01  0.43289010791E+01  0.51100000000E-03 0. -1.
        -11    1    3    3    0    0  0.78544280204E+01  0.36041013458E+01  0.10070852870E+02  0.13270405564E+02  0.51100000000E-03 0.  1.
        -12    1    3    3    0    0  0.65367375942E+01  0.20289291836E+02  0.25099258019E+02  0.32929577202E+02  0.00000000000E+00 0.  1.
</event>
<event>
 7    1  0.2838209E-011  0.5052887E+02  0.7816164E-02  0.1300439E+00
        -11   -1    0    0    0    0  0.00000000000E+00  0.00000000000E+00  0.45593999997E+02  0.45594000000E+02  0.51100000000E-03 0.  1.
         11   -1    0    0    0    0 -0.00000000000E+00 -0.00000000000E+00 -0.45593999997E+02  0.45594000000E+02  0.51100000000E-03 0. -1.
    9900012    2    1    2    0    0 -0.30529442742E+02  0.25225435405E+02  0.92084518168E+01  0.50528867565E+02  0.30000023451E+02 0.  0.
         12    1    1    2    0    0  0.30529442742E+02 -0.25225435405E+02 -0.92084518168E+01  0.40659132435E+02  0.00000000000E+00 0. -1.
         11    1    3    3    0    0  0.10709415359E+00 -0.15585357429E+01  0.61593976243E+01  0.63544222535E+01  0.51100000000E-03 0. -1.
        -11    1    3    3    0    0 -0.98183210473E+01  0.30884008755E+01 -0.52570513140E+01  0.11557432108E+02  0.51100000000E-03 0.  1.
        -12    1    3    3    0    0 -0.20818215848E+02  0.23695570273E+02  0.83061055065E+01  0.32617013203E+02  0.00000000000E+00 0.  1.
</event>
<event>
 7    1  0.2838209E-011  0.5052892E+02  0.7816164E-02  0.1300439E+00
        -11   -1    0    0    0    0  0.00000000000E+00  0.00000000000E+00  0.45593999997E+02  0.45594000000E+02  0.51100000000E-03 0. -1.
         11   -1    0    0    0    0 -0.00000000000E+00 -0.00000000000E+00 -0.45593999997E+02  0.45594000000E+02  0.51100000000E-03 0.  1.
    9900012    2    1    2    0    0  0.31408704877E+02 -0.25374910961E+02  0.47715700691E+01  0.50528920703E+02  0.30000184969E+02 0.  0.
         12    1    1    2    0    0 -0.31408704877E+02  0.25374910961E+02 -0.47715700691E+01  0.40659079297E+02  0.00000000000E+00 0. -1.
         11    1    3    3    0    0  0.11328558573E+02 -0.21375413315E+02 -0.18165698677E+01  0.24259935286E+02  0.51100000000E-03 0. -1.
        -11    1    3    3    0    0  0.14113055799E+02 -0.17731079840E+01 -0.32110430362E+01  0.14581942722E+02  0.51100000000E-03 0.  1.
         12    1    3    3    0    0  0.59670905050E+01 -0.22263896622E+01  0.97991829730E+01  0.11687042695E+02  0.00000000000E+00 0. -1.
</event>
<event>
 7    1  0.2838209E-011  0.5052886E+02  0.7816164E-02  0.1300439E+00
        -11   -1    0    0    0    0  0.00000000000E+00  0.00000000000E+00  0.45593999997E+02  0.45594000000E+02  0.51100000000E-03 0. -1.
         11   -1    0    0    0    0 -0.00000000000E+00 -0.00000000000E+00 -0.45593999997E+02  0.45594000000E+02  0.51100000000E-03 0.  1.
    9900012    2    1    2    0    0 -0.28891761204E+02 -0.28303802283E+02 -0.41625039520E+01  0.50528861688E+02  0.30000005587E+02 0.  0.
         12    1    1    2    0    0  0.28891761204E+02  0.28303802283E+02  0.41625039520E+01  0.40659138312E+02  0.00000000000E+00 0. -1.
         11    1    3    3    0    0 -0.13903129290E+02 -0.21688310711E+02  0.69243391907E+01  0.26676324691E+02  0.51100000000E-03 0. -1.
        -11    1    3    3    0    0 -0.21680211793E+01 -0.28054836755E+01  0.28405070481E+01  0.45430755044E+01  0.51100000000E-03 0.  1.
        -12    1    3    3    0    0 -0.12820610735E+02 -0.38100078961E+01 -0.13927350191E+02  0.19309461492E+02  0.00000000000E+00 0.  1.
</event>
<event>
 7    1  0.2838209E-011  0.5052885E+02  0.7816164E-02  0.1300439E+00
        -11   -1    0    0    0    0  0.00000000000E+00  0.00000000000E+00  0.45593999997E+02  0.45594000000E+02  0.51100000000E-03 0.  1.
         11   -1    0    0    0    0 -0.00000000000E+00 -0.00000000000E+00 -0.45593999997E+02  0.45594000000E+02  0.51100000000E-03 0. -1.
    9900012    2    1    2    0    0  0.23411836172E+02 -0.22114424275E+02  0.24819433460E+02  0.50528854519E+02  0.29999983795E+02 0.  0.
         12    1    1    2    0    0 -0.23411836172E+02  0.22114424275E+02 -0.24819433460E+02  0.40659145481E+02  0.00000000000E+00 0. -1.
         11    1    3    3    0    0  0.59365937602E+01 -0.28152784099E+01  0.37342679700E+01  0.75573603547E+01  0.51100000000E-03 0.  1.
        -11    1    3    3    0    0  0.21626248552E+02 -0.52912505006E+01  0.90133015554E+01  0.24019399732E+02  0.51100000000E-03 0. -1.
         12    1    3    3    0    0 -0.41510061396E+01 -0.14007895365E+02  0.12071863935E+02  0.18952094432E+02  0.00000000000E+00 0. -1.
</event>
<event>
 7    1  0.2838209E-011  0.5052887E+02  0.7816164E-02  0.1300439E+00
        -11   -1    0    0    0    0  0.00000000000E+00  0.00000000000E+00  0.45593999997E+02  0.45594000000E+02  0.51100000000E-03 0. -1.
         11   -1    0    0    0    0 -0.00000000000E+00 -0.00000000000E+00 -0.45593999997E+02  0.45594000000E+02  0.51100000000E-03 0.  1.
    9900012    2    1    2    0    0 -0.35215043267E+02 -0.33933719832E+01 -0.20038730368E+02  0.50528868671E+02  0.30000026811E+02 0.  0.
         12    1    1    2    0    0  0.35215043267E+02  0.33933719832E+01  0.20038730368E+02  0.40659131329E+02  0.00000000000E+00 0. -1.
         11    1    3    3    0    0 -0.96210102608E+01  0.80044863682E+01  0.33653389186E+01  0.12959982514E+02  0.51100000000E-03 0. -1.
        -11    1    3    3    0    0 -0.76656882548E+01 -0.56374746407E+01 -0.34226531429E+01  0.10112292101E+02  0.51100000000E-03 0.  1.
        -12    1    3    3    0    0 -0.17928344751E+02 -0.57603837106E+01 -0.19981416144E+02  0.27456594056E+02  0.00000000000E+00 0.  1.
</event>
<event>
 7    1  0.2838209E-011  0.5052886E+02  0.7816164E-02  0.1300439E+00
        -11   -1    0    0    0    0  0.00000000000E+00  0.00000000000E+00  0.45593999997E+02  0.45594000000E+02  0.51100000000E-03 0.  1.
         11   -1    0    0    0    0 -0.00000000000E+00 -0.00000000000E+00 -0.45593999997E+02  0.45594000000E+02  0.51100000000E-03 0. -1.
    9900012    2    1    2    0    0  0.31806340240E+02  0.23396515656E+02  0.97018409199E+01  0.50528856606E+02  0.29999990139E+02 0.  0.
         12    1    1    2    0    0 -0.31806340240E+02 -0.23396515656E+02 -0.97018409199E+01  0.40659143394E+02  0.00000000000E+00 0. -1.
         11    1    3    3    0    0  0.15393601197E+02  0.18964592032E+00  0.95061851489E+01  0.18093271670E+02  0.51100000000E-03 0. -1.
        -11    1    3    3    0    0  0.17626314726E+02  0.15663816235E+02  0.39727485397E+01  0.23912859325E+02  0.51100000000E-03 0.  1.
         12    1    3    3    0    0 -0.12135756831E+01  0.75430535007E+01 -0.37770927687E+01  0.85227256107E+01  0.00000000000E+00 0. -1.
</event>
<event>
 7    1  0.2838209E-011  0.5052886E+02  0.7816164E-02  0.1300439E+00
        -11   -1    0    0    0    0  0.00000000000E+00  0.00000000000E+00  0.45593999997E+02  0.45594000000E+02  0.51100000000E-03 0.  1.
         11   -1    0    0    0    0 -0.00000000000E+00 -0.00000000000E+00 -0.45593999997E+02  0.45594000000E+02  0.51100000000E-03 0. -1.
    9900012    2    1    2    0    0  0.15874328464E+02  0.29268351594E+01  0.37317623066E+02  0.50528860074E+02  0.30000000681E+02 0.  0.
         12    1    1    2    0    0 -0.15874328464E+02 -0.29268351594E+01 -0.37317623066E+02  0.40659139926E+02  0.00000000000E+00 0. -1.
         11    1    3    3    0    0  0.21747898143E+01  0.93888944014E+00  0.20126731059E+01  0.31083882334E+01  0.51100000000E-03 0. -1.
        -11    1    3    3    0    0  0.13156797719E+02 -0.73267677837E+01  0.52463224685E+01  0.15946998215E+02  0.51100000000E-03 0.  1.
         12    1    3    3    0    0  0.54274093041E+00  0.93147135030E+01  0.30058627492E+02  0.31473473625E+02  0.00000000000E+00 0. -1.
</event>
<event>
 7    1  0.2838209E-011  0.5052886E+02  0.7816164E-02  0.1300439E+00
        -11   -1    0    0    0    0  0.00000000000E+00  0.00000000000E+00  0.45593999997E+02  0.45594000000E+02  0.51100000000E-03 0.  1.
         11   -1    0    0    0    0 -0.00000000000E+00 -0.00000000000E+00 -0.45593999997E+02  0.45594000000E+02  0.51100000000E-03 0. -1.
    9900012    2    1    2    0    0 -0.10635814011E+02  0.23516498878E+02  0.31416862417E+02  0.50528861995E+02  0.30000006520E+02 0.  0.
         12    1    1    2    0    0  0.10635814011E+02 -0.23516498878E+02 -0.31416862417E+02  0.40659138005E+02  0.00000000000E+00 0. -1.
         11    1    3    3    0    0 -0.51512865712E+00  0.24023366192E+01 -0.20400634678E+01  0.31934993313E+01  0.51100000000E-03 0. -1.
        -11    1    3    3    0    0  0.11191596720E+01  0.14328296957E+02  0.37450567369E+01  0.14851870666E+02  0.51100000000E-03 0.  1.
        -12    1    3    3    0    0 -0.11239845026E+02  0.67858653025E+01  0.29711869148E+02  0.32483491998E+02  0.00000000000E+00 0.  1.
</event>
<event>
 7    1  0.2838209E-011  0.5052887E+02  0.7816164E-02  0.1300439E+00
        -11   -1    0    0    0    0  0.00000000000E+00  0.00000000000E+00  0.45593999997E+02  0.45594000000E+02  0.51100000000E-03 0. -1.
         11   -1    0    0    0    0 -0.00000000000E+00 -0.00000000000E+00 -0.45593999997E+02  0.45594000000E+02  0.51100000000E-03 0.  1.
    9900012    2    1    2    0    0  0.37570352930E+02 -0.12013159082E+02 -0.98649796590E+01  0.50528865305E+02  0.30000016582E+02 0.  0.
         12    1    1    2    0    0 -0.37570352930E+02  0.12013159082E+02  0.98649796590E+01  0.40659134695E+02  0.00000000000E+00 0. -1.
         11    1    3    3    0    0  0.86357794478E+01 -0.93095699029E+01  0.16749875391E+01  0.12808214628E+02  0.51100000000E-03 0. -1.
        -11    1    3    3    0    0 -0.34300708243E+00 -0.60070012026E+01  0.16086343306E+00  0.60189363355E+01  0.51100000000E-03 0.  1.
        -12    1    3    3    0    0  0.29277580565E+02  0.33034120229E+01 -0.11700830631E+02  0.31701714341E+02  0.00000000000E+00 0.  1.
</event>
<event>
 7    1  0.2838209E-011  0.5052886E+02  0.7816164E-02  0.1300439E+00
        -11   -1    0    0    0    0  0.00000000000E+00  0.00000000000E+00  0.45593999997E+02  0.45594000000E+02  0.51100000000E-03 0. -1.
         11   -1    0    0    0    0 -0.00000000000E+00 -0.00000000000E+00 -0.45593999997E+02  0.45594000000E+02  0.51100000000E-03 0.  1.
    9900012    2    1    2    0    0  0.36679173290E+02  0.15938149905E+02  0.73334582556E+01  0.50528856064E+02  0.29999988492E+02 0.  0.
         12    1    1    2    0    0 -0.36679173290E+02 -0.15938149905E+02 -0.73334582556E+01  0.40659143936E+02  0.00000000000E+00 0. -1.
         11    1    3    3    0    0  0.65983264235E+01  0.19911079045E+01  0.10195604272E+02  0.12306614848E+02  0.51100000000E-03 0. -1.
        -11    1    3    3    0    0  0.71905209074E+01  0.79376248387E+00  0.69746774629E+01  0.10048869378E+02  0.51100000000E-03 0.  1.
         12    1    3    3    0    0  0.22890325959E+02  0.13153279517E+02 -0.98368234797E+01  0.28173371838E+02  0.00000000000E+00 0. -1.
</event>
<event>
 7    1  0.2838209E-011  0.5052886E+02  0.7816164E-02  0.1300439E+00
        -11   -1    0    0    0    0  0.00000000000E+00  0.00000000000E+00  0.45593999997E+02  0.45594000000E+02  0.51100000000E-03 0. -1.
         11   -1    0    0    0    0 -0.00000000000E+00 -0.00000000000E+00 -0.45593999997E+02  0.45594000000E+02  0.51100000000E-03 0.  1.
    9900012    2    1    2    0    0 -0.36119544241E+02 -0.14592628492E+02 -0.11644716364E+02  0.50528859556E+02  0.29999999107E+02 0.  0.
         12    1    1    2    0    0  0.36119544241E+02  0.14592628492E+02  0.11644716364E+02  0.40659140444E+02  0.00000000000E+00 0. -1.
         11    1    3    3    0    0 -0.10131364458E+02 -0.99241603869E+01  0.38692436481E+01  0.14700494952E+02  0.51100000000E-03 0. -1.
        -11    1    3    3    0    0 -0.18043301644E+02  0.16413397900E+01 -0.10333826934E+01  0.18147248017E+02  0.51100000000E-03 0.  1.
         12    1    3    3    0    0 -0.79448781381E+01 -0.63098078948E+01 -0.14480577318E+02  0.17681116587E+02  0.00000000000E+00 0. -1.
</event>
<event>
 7    1  0.2838209E-011  0.5052886E+02  0.7816164E-02  0.1300439E+00
        -11   -1    0    0    0    0  0.00000000000E+00  0.00000000000E+00  0.45593999997E+02  0.45594000000E+02  0.51100000000E-03 0.  1.
         11   -1    0    0    0    0 -0.00000000000E+00 -0.00000000000E+00 -0.45593999997E+02  0.45594000000E+02  0.51100000000E-03 0. -1.
    9900012    2    1    2    0    0  0.16614289321E+02  0.36980595084E+02  0.30930046578E+01  0.50528859574E+02  0.29999999160E+02 0.  0.
         12    1    1    2    0    0 -0.16614289321E+02 -0.36980595084E+02 -0.30930046578E+01  0.40659140426E+02  0.00000000000E+00 0. -1.
         11    1    3    3    0    0  0.12214933736E+02  0.17168987057E+02  0.47586960376E+01  0.21601479370E+02  0.51100000000E-03 0. -1.
        -11    1    3    3    0    0  0.39392838588E+01  0.13845227279E+02  0.88001086445E+01  0.16871579302E+02  0.51100000000E-03 0.  1.
         12    1    3    3    0    0  0.46007172600E+00  0.59663807475E+01 -0.10465800024E+02  0.12055800901E+02  0.00000000000E+00 0. -1.
</event>
<event>
 7    1  0.2838209E-011  0.5052886E+02  0.7816164E-02  0.1300439E+00
        -11   -1    0    0    0    0  0.00000000000E+00  0.00000000000E+00  0.45593999997E+02  0.45594000000E+02  0.51100000000E-03 0.  1.
         11   -1    0    0    0    0 -0.00000000000E+00 -0.00000000000E+00 -0.45593999997E+02  0.45594000000E+02  0.51100000000E-03 0. -1.
    9900012    2    1    2    0    0  0.20517107000E+02  0.68496253089E+01  0.34428131655E+02  0.50528864547E+02  0.30000014278E+02 0.  0.
         12    1    1    2    0    0 -0.20517107000E+02 -0.68496253089E+01 -0.34428131655E+02  0.40659135453E+02  0.00000000000E+00 0. -1.
         11    1    3    3    0    0  0.99037074256E+01  0.60505580262E+00  0.12571155210E+02  0.16015100901E+02  0.51100000000E-03 0. -1.
        -11    1    3    3    0    0  0.14175163536E+02  0.80647814248E+00  0.23813633797E+02  0.27724985539E+02  0.51100000000E-03 0.  1.
        -12    1    3    3    0    0 -0.35617639613E+01  0.54380913638E+01 -0.19566573523E+01  0.67887781074E+01  0.00000000000E+00 0.  1.
</event>
<event>
 7    1  0.2838209E-011  0.5052885E+02  0.7816164E-02  0.1300439E+00
        -11   -1    0    0    0    0  0.00000000000E+00  0.00000000000E+00  0.45593999997E+02  0.45594000000E+02  0.51100000000E-03 0.  1.
         11   -1    0    0    0    0 -0.00000000000E+00 -0.00000000000E+00 -0.45593999997E+02  0.45594000000E+02  0.51100000000E-03 0. -1.
    9900012    2    1    2    0    0 -0.32892289350E+02 -0.57587875887E+01  0.23196980737E+02  0.50528852831E+02  0.29999978666E+02 0.  0.
         12    1    1    2    0    0  0.32892289350E+02  0.57587875887E+01 -0.23196980737E+02  0.40659147169E+02  0.00000000000E+00 0. -1.
         11    1    3    3    0    0 -0.60940051538E+01 -0.41486959244E+01 -0.19296773845E+01  0.76205138775E+01  0.51100000000E-03 0. -1.
        -11    1    3    3    0    0 -0.28878823065E+02 -0.23462246725E-01  0.15184267765E+02  0.32627426499E+02  0.51100000000E-03 0.  1.
        -12    1    3    3    0    0  0.20805388694E+01 -0.15866294176E+01  0.99423903569E+01  0.10280912455E+02  0.00000000000E+00 0.  1.
</event>
<event>
 7    1  0.2838209E-011  0.5052885E+02  0.7816164E-02  0.1300439E+00
        -11   -1    0    0    0    0  0.00000000000E+00  0.00000000000E+00  0.45593999997E+02  0.45594000000E+02  0.51100000000E-03 0.  1.
         11   -1    0    0    0    0 -0.00000000000E+00 -0.00000000000E+00 -0.45593999997E+02  0.45594000000E+02  0.51100000000E-03 0. -1.
    9900012    2    1    2    0    0  0.19560186680E+02 -0.27531119606E+02  0.22640736761E+02  0.50528850835E+02  0.29999972598E+02 0.  0.
         12    1    1    2    0    0 -0.19560186680E+02  0.27531119606E+02 -0.22640736761E+02  0.40659149165E+02  0.00000000000E+00 0. -1.
         11    1    3    3    0    0  0.35540020462E+01 -0.23370164430E+01  0.22258246709E+01  0.48007157931E+01  0.51100000000E-03 0. -1.
        -11    1    3    3    0    0  0.63327125250E-01  0.58909535834E+01  0.19000984528E+01  0.61901307610E+01  0.51100000000E-03 0.  1.
        -12    1    3    3    0    0  0.15942857509E+02 -0.31085056747E+02  0.18514813638E+02  0.39538004281E+02  0.00000000000E+00 0.  1.
</event>
<event>
 7    1  0.2838209E-011  0.5052885E+02  0.7816164E-02  0.1300439E+00
        -11   -1    0    0    0    0  0.00000000000E+00  0.00000000000E+00  0.45593999997E+02  0.45594000000E+02  0.51100000000E-03 0.  1.
         11   -1    0    0    0    0 -0.00000000000E+00 -0.00000000000E+00 -0.45593999997E+02  0.45594000000E+02  0.51100000000E-03 0. -1.
    9900012    2    1    2    0    0 -0.22247170638E+01  0.25887910116E+02  0.31273519111E+02  0.50528852766E+02  0.29999978468E+02 0.  0.
         12    1    1    2    0    0  0.22247170638E+01 -0.25887910116E+02 -0.31273519111E+02  0.40659147234E+02  0.00000000000E+00 0. -1.
         11    1    3    3    0    0  0.60710087714E+01  0.38699224761E+00  0.61476133333E+01  0.86487028194E+01  0.51100000000E-03 0. -1.
        -11    1    3    3    0    0  0.55510113184E+01  0.39254248692E+01  0.10067654173E+02  0.12148265221E+02  0.51100000000E-03 0.  1.
        -12    1    3    3    0    0 -0.13846737154E+02  0.21575493000E+02  0.15058251604E+02  0.29731884726E+02  0.00000000000E+00 0.  1.
</event>
<event>
 7    1  0.2838209E-011  0.5052886E+02  0.7816164E-02  0.1300439E+00
        -11   -1    0    0    0    0  0.00000000000E+00  0.00000000000E+00  0.45593999997E+02  0.45594000000E+02  0.51100000000E-03 0.  1.
         11   -1    0    0    0    0 -0.00000000000E+00 -0.00000000000E+00 -0.45593999997E+02  0.45594000000E+02  0.51100000000E-03 0. -1.
    9900012    2    1    2    0    0  0.16483504358E+01 -0.27320337043E+01  0.40533745344E+02  0.50528861065E+02  0.30000003693E+02 0.  0.
         12    1    1    2    0    0 -0.16483504358E+01  0.27320337043E+01 -0.40533745344E+02  0.40659138935E+02  0.00000000000E+00 0. -1.
         11    1    3    3    0    0  0.12259075527E+01 -0.48139926396E+01  0.38191075266E+01  0.62660160408E+01  0.51100000000E-03 0. -1.
        -11    1    3    3    0    0 -0.49234102082E+01 -0.91327640627E+01  0.25485290293E+02  0.27516310964E+02  0.51100000000E-03 0.  1.
        -12    1    3    3    0    0  0.53458530912E+01  0.11214722998E+02  0.11229347524E+02  0.16746534060E+02  0.00000000000E+00 0.  1.
</event>
<event>
 7    1  0.2838209E-011  0.5052887E+02  0.7816164E-02  0.1300439E+00
        -11   -1    0    0    0    0  0.00000000000E+00  0.00000000000E+00  0.45593999997E+02  0.45594000000E+02  0.51100000000E-03 0. -1.
         11   -1    0    0    0    0 -0.00000000000E+00 -0.00000000000E+00 -0.45593999997E+02  0.45594000000E+02  0.51100000000E-03 0.  1.
    9900012    2    1    2    0    0  0.98935486511E+01 -0.15390419810E+02 -0.36310024399E+02  0.50528865741E+02  0.30000017908E+02 0.  0.
         12    1    1    2    0    0 -0.98935486511E+01  0.15390419810E+02  0.36310024399E+02  0.40659134259E+02  0.00000000000E+00 0. -1.
         11    1    3    3    0    0  0.29252389228E+00 -0.69770578042E+01 -0.22053000547E+01  0.73231314629E+01  0.51100000000E-03 0. -1.
        -11    1    3    3    0    0 -0.65318534923E+01 -0.12299423532E+01 -0.26958026470E+01  0.71725323568E+01  0.51100000000E-03 0.  1.
        -12    1    3    3    0    0  0.16132878251E+02 -0.71834196522E+01 -0.31408921697E+02  0.36033201922E+02  0.00000000000E+00 0.  1.
</event>
<event>
 7    1  0.2838209E-011  0.5052886E+02  0.7816164E-02  0.1300439E+00
        -11   -1    0    0    0    0  0.00000000000E+00  0.00000000000E+00  0.45593999997E+02  0.45594000000E+02  0.51100000000E-03 0.  1.
         11   -1    0    0    0    0 -0.00000000000E+00 -0.00000000000E+00 -0.45593999997E+02  0.45594000000E+02  0.51100000000E-03 0. -1.
    9900012    2    1    2    0    0  0.69798469507E+00 -0.20188859514E+02  0.35285810013E+02  0.50528860568E+02  0.30000002183E+02 0.  0.
         12    1    1    2    0    0 -0.69798469507E+00  0.20188859514E+02 -0.35285810013E+02  0.40659139432E+02  0.00000000000E+00 0. -1.
         11    1    3    3    0    0  0.69675249322E+00  0.66329070096E+00 -0.16683796370E+01  0.19258529189E+01  0.51100000000E-03 0. -1.
        -11    1    3    3    0    0  0.28522432948E+01  0.44963589977E+01  0.10952489884E+02  0.12178241703E+02  0.51100000000E-03 0.  1.
         12    1    3    3    0    0 -0.28510110930E+01 -0.25348509212E+02  0.26001699765E+02  0.36424765946E+02  0.00000000000E+00 0. -1.
</event>
<event>
 7    1  0.2838209E-011  0.5052886E+02  0.7816164E-02  0.1300439E+00
        -11   -1    0    0    0    0  0.00000000000E+00  0.00000000000E+00  0.45593999997E+02  0.45594000000E+02  0.51100000000E-03 0.  1.
         11   -1    0    0    0    0 -0.00000000000E+00 -0.00000000000E+00 -0.45593999997E+02  0.45594000000E+02  0.51100000000E-03 0. -1.
    9900012    2    1    2    0    0 -0.24219461894E+02  0.75795450621E+01  0.31766865652E+02  0.50528860915E+02  0.30000003236E+02 0.  0.
         12    1    1    2    0    0  0.24219461894E+02 -0.75795450621E+01 -0.31766865652E+02  0.40659139085E+02  0.00000000000E+00 0. -1.
         11    1    3    3    0    0 -0.87608995311E+01 -0.60705475967E+01  0.35653935515E+01  0.11239080930E+02  0.51100000000E-03 0. -1.
        -11    1    3    3    0    0 -0.42336670270E+01 -0.43494134628E+01  0.75171761443E+01  0.96617426695E+01  0.51100000000E-03 0.  1.
        -12    1    3    3    0    0 -0.11224895336E+02  0.17999506122E+02  0.20684295956E+02  0.29628037315E+02  0.00000000000E+00 0.  1.
</event>
<event>
 7    1  0.2838209E-011  0.5052886E+02  0.7816164E-02  0.1300439E+00
        -11   -1    0    0    0    0  0.00000000000E+00  0.00000000000E+00  0.45593999997E+02  0.45594000000E+02  0.51100000000E-03 0.  1.
         11   -1    0    0    0    0 -0.00000000000E+00 -0.00000000000E+00 -0.45593999997E+02  0.45594000000E+02  0.51100000000E-03 0. -1.
    9900012    2    1    2    0    0 -0.13877461490E+01 -0.25931109567E+02  0.31286055301E+02  0.50528861556E+02  0.30000005185E+02 0.  0.
         12    1    1    2    0    0  0.13877461490E+01  0.25931109567E+02 -0.31286055301E+02  0.40659138444E+02  0.00000000000E+00 0. -1.
         11    1    3    3    0    0  0.28304863937E+01 -0.47714586766E+01 -0.98615200304E+00  0.56347996559E+01  0.51100000000E-03 0. -1.
        -11    1    3    3    0    0 -0.11320590646E+02 -0.97089088282E+01  0.74977840267E+01  0.16692376966E+02  0.51100000000E-03 0.  1.
         12    1    3    3    0    0  0.71023581029E+01 -0.11450742062E+02  0.24774423277E+02  0.28201684934E+02  0.00000000000E+00 0. -1.
</event>
<event>
 7    1  0.2838209E-011  0.5052886E+02  0.7816164E-02  0.1300439E+00
        -11   -1    0    0    0    0  0.00000000000E+00  0.00000000000E+00  0.45593999997E+02  0.45594000000E+02  0.51100000000E-03 0.  1.
         11   -1    0    0    0    0 -0.00000000000E+00 -0.00000000000E+00 -0.45593999997E+02  0.45594000000E+02  0.51100000000E-03 0. -1.
    9900012    2    1    2    0    0 -0.16800747309E+02  0.28750907395E+02  0.23329934777E+02  0.50528860279E+02  0.30000001304E+02 0.  0.
         12    1    1    2    0    0  0.16800747309E+02 -0.28750907395E+02 -0.23329934777E+02  0.40659139721E+02  0.00000000000E+00 0. -1.
         11    1    3    3    0    0 -0.86396557950E+01  0.11684700285E+02  0.60540598790E+01  0.15742538369E+02  0.51100000000E-03 0. -1.
        -11    1    3    3    0    0 -0.16060187454E+02  0.96655067906E+01  0.14253020390E+02  0.23547828628E+02  0.51100000000E-03 0.  1.
        -12    1    3    3    0    0  0.78990959404E+01  0.74007003188E+01  0.30228545078E+01  0.11238493282E+02  0.00000000000E+00 0.  1.
</event>
<event>
 7    1  0.2838209E-011  0.5052885E+02  0.7816164E-02  0.1300439E+00
        -11   -1    0    0    0    0  0.00000000000E+00  0.00000000000E+00  0.45593999997E+02  0.45594000000E+02  0.51100000000E-03 0. -1.
         11   -1    0    0    0    0 -0.00000000000E+00 -0.00000000000E+00 -0.45593999997E+02  0.45594000000E+02  0.51100000000E-03 0.  1.
    9900012    2    1    2    0    0 -0.39405809821E+02 -0.18070377437E+01 -0.98530794898E+01  0.50528850864E+02  0.29999972687E+02 0.  0.
         12    1    1    2    0    0  0.39405809821E+02  0.18070377437E+01  0.98530794898E+01  0.40659149136E+02  0.00000000000E+00 0. -1.
         11    1    3    3    0    0 -0.19785406270E+02 -0.86628512573E+01 -0.39331530131E+01  0.21953974266E+02  0.51100000000E-03 0. -1.
        -11    1    3    3    0    0 -0.29487326147E+01 -0.55448285187E+01 -0.45436787651E+01  0.77514620761E+01  0.51100000000E-03 0.  1.
         12    1    3    3    0    0 -0.16671670936E+02  0.12400642032E+02 -0.13762477115E+01  0.20823414522E+02  0.00000000000E+00 0. -1.
</event>
<event>
 7    1  0.2838209E-011  0.5052886E+02  0.7816164E-02  0.1300439E+00
        -11   -1    0    0    0    0  0.00000000000E+00  0.00000000000E+00  0.45593999997E+02  0.45594000000E+02  0.51100000000E-03 0.  1.
         11   -1    0    0    0    0 -0.00000000000E+00 -0.00000000000E+00 -0.45593999997E+02  0.45594000000E+02  0.51100000000E-03 0. -1.
    9900012    2    1    2    0    0  0.11673484266E+02  0.10610915010E+01  0.38932887543E+02  0.50528857332E+02  0.29999992345E+02 0.  0.
         12    1    1    2    0    0 -0.11673484266E+02 -0.10610915010E+01 -0.38932887543E+02  0.40659142668E+02  0.00000000000E+00 0. -1.
         11    1    3    3    0    0  0.72524730513E+01 -0.21782917786E+01  0.57399043780E+01  0.95020957142E+01  0.51100000000E-03 0. -1.
        -11    1    3    3    0    0  0.98968829622E+01 -0.52041153181E+01  0.26965886976E+02  0.29192296403E+02  0.51100000000E-03 0.  1.
         12    1    3    3    0    0 -0.54758717476E+01  0.84434985977E+01  0.62270961888E+01  0.11834465214E+02  0.00000000000E+00 0. -1.
</event>
<event>
 7    1  0.2838209E-011  0.5052887E+02  0.7816164E-02  0.1300439E+00
        -11   -1    0    0    0    0  0.00000000000E+00  0.00000000000E+00  0.45593999997E+02  0.45594000000E+02  0.51100000000E-03 0. -1.
         11   -1    0    0    0    0 -0.00000000000E+00 -0.00000000000E+00 -0.45593999997E+02  0.45594000000E+02  0.51100000000E-03 0.  1.
    9900012    2    1    2    0    0 -0.30316916862E+02 -0.15779767835E+02 -0.22023810445E+02  0.50528871290E+02  0.30000034772E+02 0.  0.
         12    1    1    2    0    0  0.30316916862E+02  0.15779767835E+02  0.22023810445E+02  0.40659128710E+02  0.00000000000E+00 0. -1.
         11    1    3    3    0    0 -0.93538028008E+01 -0.97465973816E+01 -0.12902755885E+02  0.18680762753E+02  0.51100000000E-03 0. -1.
        -11    1    3    3    0    0 -0.11600192433E+02 -0.49672177607E+01 -0.15856622152E+02  0.20264998966E+02  0.51100000000E-03 0.  1.
         12    1    3    3    0    0 -0.93629216278E+01 -0.10659526929E+01  0.67355675909E+01  0.11583109571E+02  0.00000000000E+00 0. -1.
</event>
<event>
 7    1  0.2838209E-011  0.5052886E+02  0.7816164E-02  0.1300439E+00
        -11   -1    0    0    0    0  0.00000000000E+00  0.00000000000E+00  0.45593999997E+02  0.45594000000E+02  0.51100000000E-03 0.  1.
         11   -1    0    0    0    0 -0.00000000000E+00 -0.00000000000E+00 -0.45593999997E+02  0.45594000000E+02  0.51100000000E-03 0. -1.
    9900012    2    1    2    0    0  0.25471424999E+02 -0.15015631292E+02  0.27908833973E+02  0.50528859720E+02  0.29999999605E+02 0.  0.
         12    1    1    2    0    0 -0.25471424999E+02  0.15015631292E+02 -0.27908833973E+02  0.40659140280E+02  0.00000000000E+00 0. -1.
         11    1    3    3    0    0 -0.68697583849E+00 -0.54987728356E+01  0.59223114715E+01  0.81106233994E+01  0.51100000000E-03 0. -1.
        -11    1    3    3    0    0  0.26278596977E+02 -0.49990253783E+01  0.25296237001E+02  0.36816497939E+02  0.51100000000E-03 0.  1.
         12    1    3    3    0    0 -0.12019613987E+00 -0.45178330776E+01 -0.33097144994E+01  0.56017383816E+01  0.00000000000E+00 0. -1.
</event>
<event>
 7    1  0.2838209E-011  0.5052886E+02  0.7816164E-02  0.1300439E+00
        -11   -1    0    0    0    0  0.00000000000E+00  0.00000000000E+00  0.45593999997E+02  0.45594000000E+02  0.51100000000E-03 0.  1.
         11   -1    0    0    0    0 -0.00000000000E+00 -0.00000000000E+00 -0.45593999997E+02  0.45594000000E+02  0.51100000000E-03 0. -1.
    9900012    2    1    2    0    0 -0.49057649475E+01  0.34684587777E+02  0.20641675317E+02  0.50528856885E+02  0.29999990986E+02 0.  0.
         12    1    1    2    0    0  0.49057649475E+01 -0.34684587777E+02 -0.20641675317E+02  0.40659143115E+02  0.00000000000E+00 0. -1.
         11    1    3    3    0    0  0.52763245151E+01  0.94786486285E+00  0.41088942377E+01  0.67543364074E+01  0.51100000000E-03 0. -1.
        -11    1    3    3    0    0  0.59889301069E+01  0.12202367801E+02  0.59937609345E+01  0.14855646542E+02  0.51100000000E-03 0.  1.
         12    1    3    3    0    0 -0.16171019570E+02  0.21534355113E+02  0.10539020145E+02  0.28918873935E+02  0.00000000000E+00 0. -1.
</event>
<event>
 7    1  0.2838209E-011  0.5052886E+02  0.7816164E-02  0.1300439E+00
        -11   -1    0    0    0    0  0.00000000000E+00  0.00000000000E+00  0.45593999997E+02  0.45594000000E+02  0.51100000000E-03 0. -1.
         11   -1    0    0    0    0 -0.00000000000E+00 -0.00000000000E+00 -0.45593999997E+02  0.45594000000E+02  0.51100000000E-03 0.  1.
    9900012    2    1    2    0    0 -0.95762626347E+01 -0.26104326974E+02 -0.29665218730E+02  0.50528857177E+02  0.29999991874E+02 0.  0.
         12    1    1    2    0    0  0.95762626347E+01  0.26104326974E+02  0.29665218730E+02  0.40659142823E+02  0.00000000000E+00 0. -1.
         11    1    3    3    0    0 -0.16970845341E+01 -0.41543671628E+01 -0.21750922182E+02  0.22209040467E+02  0.51100000000E-03 0. -1.
        -11    1    3    3    0    0 -0.82893089178E+01 -0.39584288172E+01 -0.23249918806E+01  0.94756207470E+01  0.51100000000E-03 0.  1.
        -12    1    3    3    0    0  0.41013081724E+00 -0.17991530994E+02 -0.55893046672E+01  0.18844195962E+02  0.00000000000E+00 0.  1.
</event>
<event>
 7    1  0.2838209E-011  0.5052886E+02  0.7816164E-02  0.1300439E+00
        -11   -1    0    0    0    0  0.00000000000E+00  0.00000000000E+00  0.45593999997E+02  0.45594000000E+02  0.51100000000E-03 0. -1.
         11   -1    0    0    0    0 -0.00000000000E+00 -0.00000000000E+00 -0.45593999997E+02  0.45594000000E+02  0.51100000000E-03 0.  1.
    9900012    2    1    2    0    0 -0.15760780265E+02  0.25513072808E+02 -0.27456268492E+02  0.50528858860E+02  0.29999996992E+02 0.  0.
         12    1    1    2    0    0  0.15760780265E+02 -0.25513072808E+02  0.27456268492E+02  0.40659141140E+02  0.00000000000E+00 0. -1.
         11    1    3    3    0    0 -0.88089529180E+00  0.59180311734E+01 -0.16827115865E+02  0.17859196457E+02  0.51100000000E-03 0.  1.
        -11    1    3    3    0    0 -0.12908438931E+01  0.13895774688E+02 -0.11243060957E+02  0.17921084009E+02  0.51100000000E-03 0. -1.
         12    1    3    3    0    0 -0.13589041080E+02  0.56992669475E+01  0.61390832918E+00  0.14748578395E+02  0.00000000000E+00 0. -1.
</event>
<event>
 7    1  0.2838209E-011  0.5052885E+02  0.7816164E-02  0.1300439E+00
        -11   -1    0    0    0    0  0.00000000000E+00  0.00000000000E+00  0.45593999997E+02  0.45594000000E+02  0.51100000000E-03 0.  1.
         11   -1    0    0    0    0 -0.00000000000E+00 -0.00000000000E+00 -0.45593999997E+02  0.45594000000E+02  0.51100000000E-03 0. -1.
    9900012    2    1    2    0    0 -0.25338674938E+02  0.14050215647E+02 -0.28525593163E+02  0.50528850075E+02  0.29999970287E+02 0.  0.
         12    1    1    2    0    0  0.25338674938E+02 -0.14050215647E+02  0.28525593163E+02  0.40659149925E+02  0.00000000000E+00 0. -1.
         11    1    3    3    0    0 -0.16602518160E+02  0.30258565337E+01 -0.16121529133E+02  0.23338875698E+02  0.51100000000E-03 0. -1.
        -11    1    3    3    0    0 -0.12191092869E+02  0.32826995054E+01 -0.13681430884E+02  0.18616670290E+02  0.51100000000E-03 0.  1.
        -12    1    3    3    0    0  0.34549360914E+01  0.77416596080E+01  0.12773668539E+01  0.85733040865E+01  0.00000000000E+00 0.  1.
</event>
<event>
 7    1  0.2838209E-011  0.5052887E+02  0.7816164E-02  0.1300439E+00
        -11   -1    0    0    0    0  0.00000000000E+00  0.00000000000E+00  0.45593999997E+02  0.45594000000E+02  0.51100000000E-03 0.  1.
         11   -1    0    0    0    0 -0.00000000000E+00 -0.00000000000E+00 -0.45593999997E+02  0.45594000000E+02  0.51100000000E-03 0. -1.
    9900012    2    1    2    0    0 -0.24323734748E+02  0.25115046240E+02  0.20754650663E+02  0.50528866415E+02  0.30000019955E+02 0.  0.
         12    1    1    2    0    0  0.24323734748E+02 -0.25115046240E+02 -0.20754650663E+02  0.40659133585E+02  0.00000000000E+00 0. -1.
         11    1    3    3    0    0  0.23122880730E+01  0.10543939131E+01  0.35845535088E+01  0.43940239844E+01  0.51100000000E-03 0. -1.
        -11    1    3    3    0    0 -0.18137320510E+01  0.16484326793E+00  0.10977617480E+02  0.11127662964E+02  0.51100000000E-03 0.  1.
         12    1    3    3    0    0 -0.24822290770E+02  0.23895809059E+02  0.61924796743E+01  0.35007179466E+02  0.00000000000E+00 0. -1.
</event>
<event>
 7    1  0.2838209E-011  0.5052888E+02  0.7816164E-02  0.1300439E+00
        -11   -1    0    0    0    0  0.00000000000E+00  0.00000000000E+00  0.45593999997E+02  0.45594000000E+02  0.51100000000E-03 0.  1.
         11   -1    0    0    0    0 -0.00000000000E+00 -0.00000000000E+00 -0.45593999997E+02  0.45594000000E+02  0.51100000000E-03 0. -1.
    9900012    2    1    2    0    0 -0.32236884781E+02 -0.26396931610E+01  0.24636953773E+02  0.50528877880E+02  0.30000054804E+02 0.  0.
         12    1    1    2    0    0  0.32236884781E+02  0.26396931610E+01 -0.24636953773E+02  0.40659122120E+02  0.00000000000E+00 0. -1.
         11    1    3    3    0    0 -0.71883120936E+01  0.55797504246E+01 -0.14718847563E+01  0.92180198825E+01  0.51100000000E-03 0. -1.
        -11    1    3    3    0    0 -0.22104063315E+02  0.77975974329E+00  0.21235073146E+02  0.30661473743E+02  0.51100000000E-03 0.  1.
         12    1    3    3    0    0 -0.29445093722E+01 -0.89992033289E+01  0.48737653825E+01  0.10649384255E+02  0.00000000000E+00 0. -1.
</event>
<event>
 7    1  0.2838209E-011  0.5052885E+02  0.7816164E-02  0.1300439E+00
        -11   -1    0    0    0    0  0.00000000000E+00  0.00000000000E+00  0.45593999997E+02  0.45594000000E+02  0.51100000000E-03 0.  1.
         11   -1    0    0    0    0 -0.00000000000E+00 -0.00000000000E+00 -0.45593999997E+02  0.45594000000E+02  0.51100000000E-03 0. -1.
    9900012    2    1    2    0    0 -0.17832835640E+02  0.36514195322E+02  0.13675238901E+01  0.50528848404E+02  0.29999965208E+02 0.  0.
         12    1    1    2    0    0  0.17832835640E+02 -0.36514195322E+02 -0.13675238901E+01  0.40659151596E+02  0.00000000000E+00 0. -1.
         11    1    3    3    0    0  0.39915231958E+01  0.24319119364E+01 -0.89343991105E-01  0.46748728003E+01  0.51100000000E-03 0. -1.
        -11    1    3    3    0    0  0.39281516917E+01  0.18498367003E+01  0.15104824328E+01  0.45971544429E+01  0.51100000000E-03 0.  1.
        -12    1    3    3    0    0 -0.25752510527E+02  0.32232446685E+02 -0.53614551612E-01  0.41256821160E+02  0.00000000000E+00 0.  1.
</event>
<event>
 7    1  0.2838209E-011  0.5052886E+02  0.7816164E-02  0.1300439E+00
        -11   -1    0    0    0    0  0.00000000000E+00  0.00000000000E+00  0.45593999997E+02  0.45594000000E+02  0.51100000000E-03 0.  1.
         11   -1    0    0    0    0 -0.00000000000E+00 -0.00000000000E+00 -0.45593999997E+02  0.45594000000E+02  0.51100000000E-03 0. -1.
    9900012    2    1    2    0    0  0.26766600434E+02 -0.12749482881E+02  0.27823822919E+02  0.50528864072E+02  0.30000012834E+02 0.  0.
         12    1    1    2    0    0 -0.26766600434E+02  0.12749482881E+02 -0.27823822919E+02  0.40659135928E+02  0.00000000000E+00 0. -1.
         11    1    3    3    0    0  0.35070414293E+01 -0.23684386254E+01  0.54807773695E+01  0.69244322471E+01  0.51100000000E-03 0. -1.
        -11    1    3    3    0    0  0.18166612088E+02 -0.18004127158E+02  0.23021269293E+02  0.34411527568E+02  0.51100000000E-03 0.  1.
         12    1    3    3    0    0  0.50929469167E+01  0.76230829025E+01 -0.67822374276E+00  0.91929042570E+01  0.00000000000E+00 0. -1.
</event>
<event>
 7    1  0.2838209E-011  0.5052886E+02  0.7816164E-02  0.1300439E+00
        -11   -1    0    0    0    0  0.00000000000E+00  0.00000000000E+00  0.45593999997E+02  0.45594000000E+02  0.51100000000E-03 0. -1.
         11   -1    0    0    0    0 -0.00000000000E+00 -0.00000000000E+00 -0.45593999997E+02  0.45594000000E+02  0.51100000000E-03 0.  1.
    9900012    2    1    2    0    0 -0.38533213965E+02  0.11242491201E+02 -0.64779430283E+01  0.50528856713E+02  0.29999990466E+02 0.  0.
         12    1    1    2    0    0  0.38533213965E+02 -0.11242491201E+02  0.64779430283E+01  0.40659143287E+02  0.00000000000E+00 0. -1.
         11    1    3    3    0    0 -0.13590821835E+00 -0.38996610867E+01  0.12654835581E+01  0.41021063531E+01  0.51100000000E-03 0. -1.
        -11    1    3    3    0    0 -0.37938365337E+01 -0.34747860467E+01 -0.47783503760E+01  0.70213934722E+01  0.51100000000E-03 0.  1.
        -12    1    3    3    0    0 -0.34603469213E+02  0.18616938335E+02 -0.29650762104E+01  0.39405356888E+02  0.00000000000E+00 0.  1.
</event>
<event>
 7    1  0.2838209E-011  0.5052887E+02  0.7816164E-02  0.1300439E+00
        -11   -1    0    0    0    0  0.00000000000E+00  0.00000000000E+00  0.45593999997E+02  0.45594000000E+02  0.51100000000E-03 0.  1.
         11   -1    0    0    0    0 -0.00000000000E+00 -0.00000000000E+00 -0.45593999997E+02  0.45594000000E+02  0.51100000000E-03 0. -1.
    9900012    2    1    2    0    0 -0.13678954973E+02  0.14552307865E+02  0.35415838891E+02  0.50528866737E+02  0.30000020935E+02 0.  0.
         12    1    1    2    0    0  0.13678954973E+02 -0.14552307865E+02 -0.35415838891E+02  0.40659133263E+02  0.00000000000E+00 0. -1.
         11    1    3    3    0    0 -0.38472107041E+01  0.84727703386E+01  0.17675590998E+02  0.19975369454E+02  0.51100000000E-03 0. -1.
        -11    1    3    3    0    0 -0.81851297569E+01  0.81034601065E+01  0.22414333231E+02  0.25200491052E+02  0.51100000000E-03 0.  1.
         12    1    3    3    0    0 -0.16466145119E+01 -0.20239225803E+01 -0.46740853384E+01  0.53530062313E+01  0.00000000000E+00 0. -1.
</event>
<event>
 7    1  0.2838209E-011  0.5052885E+02  0.7816164E-02  0.1300439E+00
        -11   -1    0    0    0    0  0.00000000000E+00  0.00000000000E+00  0.45593999997E+02  0.45594000000E+02  0.51100000000E-03 0.  1.
         11   -1    0    0    0    0 -0.00000000000E+00 -0.00000000000E+00 -0.45593999997E+02  0.45594000000E+02  0.51100000000E-03 0. -1.
    9900012    2    1    2    0    0  0.38202215712E+02 -0.13907416145E+02 -0.58361284891E+00  0.50528854496E+02  0.29999983727E+02 0.  0.
         12    1    1    2    0    0 -0.38202215712E+02  0.13907416145E+02  0.58361284891E+00  0.40659145504E+02  0.00000000000E+00 0. -1.
         11    1    3    3    0    0  0.59663059240E+01 -0.15225806318E+01 -0.66123919607E+01  0.90354184110E+01  0.51100000000E-03 0. -1.
        -11    1    3    3    0    0  0.23509027436E+02 -0.37735324554E+01 -0.57472736951E+01  0.24493776217E+02  0.51100000000E-03 0.  1.
        -12    1    3    3    0    0  0.87268823518E+01 -0.86113030577E+01  0.11776052807E+02  0.16999659869E+02  0.00000000000E+00 0.  1.
</event>
<event>
 7    1  0.2838209E-011  0.5052886E+02  0.7816164E-02  0.1300439E+00
        -11   -1    0    0    0    0  0.00000000000E+00  0.00000000000E+00  0.45593999997E+02  0.45594000000E+02  0.51100000000E-03 0.  1.
         11   -1    0    0    0    0 -0.00000000000E+00 -0.00000000000E+00 -0.45593999997E+02  0.45594000000E+02  0.51100000000E-03 0. -1.
    9900012    2    1    2    0    0  0.26880646807E+02  0.24333591845E+02  0.18397629992E+02  0.50528860140E+02  0.30000000881E+02 0.  0.
         12    1    1    2    0    0 -0.26880646807E+02 -0.24333591845E+02 -0.18397629992E+02  0.40659139860E+02  0.00000000000E+00 0. -1.
         11    1    3    3    0    0  0.87796059673E+01  0.53587190976E+01 -0.16877249044E+01  0.10423328016E+02  0.51100000000E-03 0. -1.
        -11    1    3    3    0    0  0.19232754097E+02  0.42803479456E+01  0.13948517188E+02  0.24140864539E+02  0.51100000000E-03 0.  1.
        -12    1    3    3    0    0 -0.11317132571E+01  0.14694524802E+02  0.61368377089E+01  0.15964667585E+02  0.00000000000E+00 0.  1.
</event>
<event>
 7    1  0.2921911E-011  0.5052885E+02  0.7816164E-02  0.1300439E+00
        -11   -1    0    0    0    0  0.00000000000E+00  0.00000000000E+00  0.45593999997E+02  0.45594000000E+02  0.51100000000E-03 0. -1.
         11   -1    0    0    0    0 -0.00000000000E+00 -0.00000000000E+00 -0.45593999997E+02  0.45594000000E+02  0.51100000000E-03 0.  1.
    9900012    2    1    2    0    0 -0.36313355686E+02 -0.15803027169E+02 -0.92071127650E+01  0.50528851037E+02  0.29999973213E+02 0.  0.
         12    1    1    2    0    0  0.36313355686E+02  0.15803027169E+02  0.92071127650E+01  0.40659148963E+02  0.00000000000E+00 0. -1.
         11    1    3    3    0    0  0.35804998766E+01  0.22306693781E+01 -0.79650742635E+00  0.42930513138E+01  0.51100000000E-03 0. -1.
        -11    1    3    3    0    0 -0.51287801435E+01 -0.10976664673E+01  0.28361300338E+01  0.59626245281E+01  0.51100000000E-03 0.  1.
        -12    1    3    3    0    0 -0.34765075420E+02 -0.16936030080E+02 -0.11246735372E+02  0.40273175195E+02  0.00000000000E+00 0.  1.
</event>
<event>
 7    1  0.2838209E-011  0.5052884E+02  0.7816164E-02  0.1300439E+00
        -11   -1    0    0    0    0  0.00000000000E+00  0.00000000000E+00  0.45593999997E+02  0.45594000000E+02  0.51100000000E-03 0.  1.
         11   -1    0    0    0    0 -0.00000000000E+00 -0.00000000000E+00 -0.45593999997E+02  0.45594000000E+02  0.51100000000E-03 0. -1.
    9900012    2    1    2    0    0 -0.14858737370E+01 -0.12368704988E+02  0.38703672199E+02  0.50528844505E+02  0.29999953357E+02 0.  0.
         12    1    1    2    0    0  0.14858737370E+01  0.12368704988E+02 -0.38703672199E+02  0.40659155495E+02  0.00000000000E+00 0. -1.
         11    1    3    3    0    0 -0.74201245392E+01  0.16448678291E+01  0.22865675319E+02  0.24095703899E+02  0.51100000000E-03 0. -1.
        -11    1    3    3    0    0 -0.18427136899E+01  0.23439894341E+01  0.30220940550E+01  0.42453425008E+01  0.51100000000E-03 0.  1.
         12    1    3    3    0    0  0.77769644922E+01 -0.16357562251E+02  0.12815902826E+02  0.22187798105E+02  0.00000000000E+00 0. -1.
</event>
<event>
 7    1  0.2838209E-011  0.5052886E+02  0.7816164E-02  0.1300439E+00
        -11   -1    0    0    0    0  0.00000000000E+00  0.00000000000E+00  0.45593999997E+02  0.45594000000E+02  0.51100000000E-03 0. -1.
         11   -1    0    0    0    0 -0.00000000000E+00 -0.00000000000E+00 -0.45593999997E+02  0.45594000000E+02  0.51100000000E-03 0.  1.
    9900012    2    1    2    0    0 -0.22498321414E+02  0.24311591915E+02 -0.23578337263E+02  0.50528856428E+02  0.29999989598E+02 0.  0.
         12    1    1    2    0    0  0.22498321414E+02 -0.24311591915E+02  0.23578337263E+02  0.40659143572E+02  0.00000000000E+00 0. -1.
         11    1    3    3    0    0  0.11071104846E+00  0.60932452881E+00 -0.26062045948E+01  0.26787750873E+01  0.51100000000E-03 0. -1.
        -11    1    3    3    0    0 -0.76908427528E+01  0.12252691644E+02 -0.24751089081E+02  0.28668692432E+02  0.51100000000E-03 0.  1.
         12    1    3    3    0    0 -0.14918189710E+02  0.11449575742E+02  0.37789564128E+01  0.19181388909E+02  0.00000000000E+00 0. -1.
</event>
<event>
 7    1  0.2838209E-011  0.5052889E+02  0.7816164E-02  0.1300439E+00
        -11   -1    0    0    0    0  0.00000000000E+00  0.00000000000E+00  0.45593999997E+02  0.45594000000E+02  0.51100000000E-03 0. -1.
         11   -1    0    0    0    0 -0.00000000000E+00 -0.00000000000E+00 -0.45593999997E+02  0.45594000000E+02  0.51100000000E-03 0.  1.
    9900012    2    1    2    0    0  0.12500686460E+02  0.38616764515E+02 -0.23752035583E+01  0.50528889637E+02  0.30000090540E+02 0.  0.
         12    1    1    2    0    0 -0.12500686460E+02 -0.38616764515E+02  0.23752035583E+01  0.40659110363E+02  0.00000000000E+00 0. -1.
         11    1    3    3    0    0  0.99861830379E+01  0.33425045340E+01  0.68769475158E+01  0.12577304784E+02  0.51100000000E-03 0. -1.
        -11    1    3    3    0    0 -0.29997476453E+01  0.43517125064E+01 -0.31637704183E+00  0.52949015447E+01  0.51100000000E-03 0.  1.
         12    1    3    3    0    0  0.55142510676E+01  0.30922547475E+02 -0.89357740323E+01  0.32656683308E+02  0.00000000000E+00 0. -1.
</event>
<event>
 7    1  0.2838209E-011  0.5052887E+02  0.7816164E-02  0.1300439E+00
        -11   -1    0    0    0    0  0.00000000000E+00  0.00000000000E+00  0.45593999997E+02  0.45594000000E+02  0.51100000000E-03 0. -1.
         11   -1    0    0    0    0 -0.00000000000E+00 -0.00000000000E+00 -0.45593999997E+02  0.45594000000E+02  0.51100000000E-03 0.  1.
    9900012    2    1    2    0    0  0.33275015190E+02 -0.41301034997E+01  0.22997408688E+02  0.50528865759E+02  0.30000017962E+02 0.  0.
         12    1    1    2    0    0 -0.33275015190E+02  0.41301034997E+01 -0.22997408688E+02  0.40659134241E+02  0.00000000000E+00 0. -1.
         11    1    3    3    0    0  0.11185498923E+02 -0.42199534077E+01  0.18757295270E+02  0.22243190397E+02  0.51100000000E-03 0. -1.
        -11    1    3    3    0    0  0.22741618957E+02  0.44130110084E+01  0.53486146606E+01  0.23775272407E+02  0.51100000000E-03 0.  1.
        -12    1    3    3    0    0 -0.65210269032E+00 -0.43231611004E+01 -0.11085012422E+01  0.45104029557E+01  0.00000000000E+00 0.  1.
</event>
<event>
 7    1  0.2838209E-011  0.5052875E+02  0.7816164E-02  0.1300439E+00
        -11   -1    0    0    0    0  0.00000000000E+00  0.00000000000E+00  0.45593999997E+02  0.45594000000E+02  0.51100000000E-03 0.  1.
         11   -1    0    0    0    0 -0.00000000000E+00 -0.00000000000E+00 -0.45593999997E+02  0.45594000000E+02  0.51100000000E-03 0. -1.
    9900012    2    1    2    0    0  0.12253647428E+02  0.38572182944E+02  0.38998883063E+01  0.50528753805E+02  0.29999677664E+02 0.  0.
         12    1    1    2    0    0 -0.12253647428E+02 -0.38572182944E+02 -0.38998883063E+01  0.40659246195E+02  0.00000000000E+00 0. -1.
         11    1    3    3    0    0  0.33335318819E+01  0.10129054306E+02 -0.48181962517E+01  0.11701503806E+02  0.51100000000E-03 0. -1.
        -11    1    3    3    0    0 -0.77033815369E+00  0.66094794761E+01 -0.74449781218E+01  0.99853061701E+01  0.51100000000E-03 0.  1.
        -12    1    3    3    0    0  0.96904536998E+01  0.21833649162E+02  0.16163062680E+02  0.28841943829E+02  0.00000000000E+00 0.  1.
</event>
<event>
 7    1  0.2838209E-011  0.5052886E+02  0.7816164E-02  0.1300439E+00
        -11   -1    0    0    0    0  0.00000000000E+00  0.00000000000E+00  0.45593999997E+02  0.45594000000E+02  0.51100000000E-03 0.  1.
         11   -1    0    0    0    0 -0.00000000000E+00 -0.00000000000E+00 -0.45593999997E+02  0.45594000000E+02  0.51100000000E-03 0. -1.
    9900012    2    1    2    0    0  0.40342138474E+02 -0.45874185709E+01 -0.21524531665E+01  0.50528860800E+02  0.30000002888E+02 0.  0.
         12    1    1    2    0    0 -0.40342138474E+02  0.45874185709E+01  0.21524531665E+01  0.40659139200E+02  0.00000000000E+00 0. -1.
         11    1    3    3    0    0 -0.17272571159E+01 -0.43821812586E+01 -0.29583231163E+01  0.55622482549E+01  0.51100000000E-03 0. -1.
        -11    1    3    3    0    0  0.51472373124E+01 -0.29570484666E+01 -0.46521280649E+01  0.75419151001E+01  0.51100000000E-03 0.  1.
        -12    1    3    3    0    0  0.36922158278E+02  0.27518111543E+01  0.54579980147E+01  0.37424697445E+02  0.00000000000E+00 0.  1.
</event>
<event>
 7    1  0.2838209E-011  0.5052886E+02  0.7816164E-02  0.1300439E+00
        -11   -1    0    0    0    0  0.00000000000E+00  0.00000000000E+00  0.45593999997E+02  0.45594000000E+02  0.51100000000E-03 0.  1.
         11   -1    0    0    0    0 -0.00000000000E+00 -0.00000000000E+00 -0.45593999997E+02  0.45594000000E+02  0.51100000000E-03 0. -1.
    9900012    2    1    2    0    0 -0.11334030186E+02 -0.32594008889E+02  0.21501997915E+02  0.50528861174E+02  0.30000004024E+02 0.  0.
         12    1    1    2    0    0  0.11334030186E+02  0.32594008889E+02 -0.21501997915E+02  0.40659138826E+02  0.00000000000E+00 0. -1.
         11    1    3    3    0    0 -0.51766349041E+00  0.45158331402E+01  0.27560620437E+00  0.45537548771E+01  0.51100000000E-03 0. -1.
        -11    1    3    3    0    0 -0.33787386226E+01 -0.52392115255E+00  0.13171737539E+01  0.36640571793E+01  0.51100000000E-03 0.  1.
        -12    1    3    3    0    0 -0.74376280731E+01 -0.36585920877E+02  0.19909217957E+02  0.42311049118E+02  0.00000000000E+00 0.  1.
</event>
<event>
 7    1  0.2838209E-011  0.5052885E+02  0.7816164E-02  0.1300439E+00
        -11   -1    0    0    0    0  0.00000000000E+00  0.00000000000E+00  0.45593999997E+02  0.45594000000E+02  0.51100000000E-03 0.  1.
         11   -1    0    0    0    0 -0.00000000000E+00 -0.00000000000E+00 -0.45593999997E+02  0.45594000000E+02  0.51100000000E-03 0. -1.
    9900012    2    1    2    0    0  0.13888890944E+02 -0.21914354936E+02  0.31305370508E+02  0.50528850149E+02  0.29999970513E+02 0.  0.
         12    1    1    2    0    0 -0.13888890944E+02  0.21914354936E+02 -0.31305370508E+02  0.40659149851E+02  0.00000000000E+00 0. -1.
         11    1    3    3    0    0  0.58320055406E+01 -0.80317159416E+01  0.21131953364E+02  0.23346952753E+02  0.51100000000E-03 0. -1.
        -11    1    3    3    0    0  0.11287298389E+02 -0.61329338913E+01  0.13045221670E+02  0.18308298438E+02  0.51100000000E-03 0.  1.
         12    1    3    3    0    0 -0.32304129855E+01 -0.77497051029E+01 -0.28718045251E+01  0.88735989581E+01  0.00000000000E+00 0. -1.
</event>
<event>
 7    1  0.2838209E-011  0.5052887E+02  0.7816164E-02  0.1300439E+00
        -11   -1    0    0    0    0  0.00000000000E+00  0.00000000000E+00  0.45593999997E+02  0.45594000000E+02  0.51100000000E-03 0. -1.
         11   -1    0    0    0    0 -0.00000000000E+00 -0.00000000000E+00 -0.45593999997E+02  0.45594000000E+02  0.51100000000E-03 0.  1.
    9900012    2    1    2    0    0  0.11554038078E+02  0.56745764044E+01 -0.38567712398E+02  0.50528867534E+02  0.30000023356E+02 0.  0.
         12    1    1    2    0    0 -0.11554038078E+02 -0.56745764044E+01  0.38567712398E+02  0.40659132466E+02  0.00000000000E+00 0. -1.
         11    1    3    3    0    0 -0.45844022085E+01 -0.23835591862E+01 -0.10141011484E+02  0.11381485499E+02  0.51100000000E-03 0. -1.
        -11    1    3    3    0    0  0.49327720871E+01 -0.67266389626E+01 -0.80856453072E+01  0.11617124106E+02  0.51100000000E-03 0.  1.
         12    1    3    3    0    0  0.11205668199E+02  0.14784774553E+02 -0.20341055607E+02  0.27530257928E+02  0.00000000000E+00 0. -1.
</event>
<event>
 7    1  0.2838209E-011  0.5052886E+02  0.7816164E-02  0.1300439E+00
        -11   -1    0    0    0    0  0.00000000000E+00  0.00000000000E+00  0.45593999997E+02  0.45594000000E+02  0.51100000000E-03 0.  1.
         11   -1    0    0    0    0 -0.00000000000E+00 -0.00000000000E+00 -0.45593999997E+02  0.45594000000E+02  0.51100000000E-03 0. -1.
    9900012    2    1    2    0    0 -0.36923085330E+02 -0.81720666751E+00  0.17005400051E+02  0.50528859725E+02  0.29999999619E+02 0.  0.
         12    1    1    2    0    0  0.36923085330E+02  0.81720666751E+00 -0.17005400051E+02  0.40659140275E+02  0.00000000000E+00 0. -1.
         11    1    3    3    0    0  0.49985204990E-01 -0.79728834146E+00 -0.18959277050E-01  0.79907880429E+00  0.51100000000E-03 0. -1.
        -11    1    3    3    0    0 -0.37984190790E+02 -0.69805020048E+01  0.18035203882E+02  0.42623875206E+02  0.51100000000E-03 0.  1.
         12    1    3    3    0    0  0.10111202551E+01  0.69605836787E+01 -0.10108445537E+01  0.71059057150E+01  0.00000000000E+00 0. -1.
</event>
<event>
 7    1  0.2838209E-011  0.5052886E+02  0.7816164E-02  0.1300439E+00
        -11   -1    0    0    0    0  0.00000000000E+00  0.00000000000E+00  0.45593999997E+02  0.45594000000E+02  0.51100000000E-03 0. -1.
         11   -1    0    0    0    0 -0.00000000000E+00 -0.00000000000E+00 -0.45593999997E+02  0.45594000000E+02  0.51100000000E-03 0.  1.
    9900012    2    1    2    0    0  0.31793873877E+02 -0.51379918772E+01 -0.24817664726E+02  0.50528857620E+02  0.29999993220E+02 0.  0.
         12    1    1    2    0    0 -0.31793873877E+02  0.51379918772E+01  0.24817664726E+02  0.40659142380E+02  0.00000000000E+00 0. -1.
         11    1    3    3    0    0  0.90854652413E+01 -0.23258280242E+01 -0.15904170629E+02  0.18463417839E+02  0.51100000000E-03 0. -1.
        -11    1    3    3    0    0  0.99347688979E+01 -0.89081093193E+01 -0.11574046917E+02  0.17663878595E+02  0.51100000000E-03 0.  1.
         12    1    3    3    0    0  0.12773639738E+02  0.60959454664E+01  0.26605528198E+01  0.14401561186E+02  0.00000000000E+00 0. -1.
</event>
<event>
 7    1  0.2838209E-011  0.5052887E+02  0.7816164E-02  0.1300439E+00
        -11   -1    0    0    0    0  0.00000000000E+00  0.00000000000E+00  0.45593999997E+02  0.45594000000E+02  0.51100000000E-03 0. -1.
         11   -1    0    0    0    0 -0.00000000000E+00 -0.00000000000E+00 -0.45593999997E+02  0.45594000000E+02  0.51100000000E-03 0.  1.
    9900012    2    1    2    0    0  0.76411933936E+01  0.38631354564E+02 -0.10119083547E+02  0.50528865187E+02  0.30000016221E+02 0.  0.
         12    1    1    2    0    0 -0.76411933936E+01 -0.38631354564E+02  0.10119083547E+02  0.40659134813E+02  0.00000000000E+00 0. -1.
         11    1    3    3    0    0 -0.12225823715E+01 -0.24936704145E+00 -0.47178598097E+01  0.48800710058E+01  0.51100000000E-03 0. -1.
        -11    1    3    3    0    0  0.10039349333E+02  0.41299940121E+02 -0.59094493852E+01  0.42911480763E+02  0.51100000000E-03 0.  1.
         12    1    3    3    0    0 -0.11755735678E+01 -0.24192185150E+01  0.50822564796E+00  0.27373134175E+01  0.00000000000E+00 0. -1.
</event>
<event>
 7    1  0.2838209E-011  0.5052885E+02  0.7816164E-02  0.1300439E+00
        -11   -1    0    0    0    0  0.00000000000E+00  0.00000000000E+00  0.45593999997E+02  0.45594000000E+02  0.51100000000E-03 0. -1.
         11   -1    0    0    0    0 -0.00000000000E+00 -0.00000000000E+00 -0.45593999997E+02  0.45594000000E+02  0.51100000000E-03 0.  1.
    9900012    2    1    2    0    0  0.34370694916E+02 -0.19536551998E+02  0.94944534856E+01  0.50528853673E+02  0.29999981226E+02 0.  0.
         12    1    1    2    0    0 -0.34370694916E+02  0.19536551998E+02 -0.94944534856E+01  0.40659146327E+02  0.00000000000E+00 0. -1.
         11    1    3    3    0    0  0.19055511521E+02 -0.50143721662E+00  0.23024661280E+01  0.19200659081E+02  0.51100000000E-03 0. -1.
        -11    1    3    3    0    0  0.19519222350E+02 -0.16134274869E+02  0.67082142224E+01  0.26197614491E+02  0.51100000000E-03 0.  1.
         12    1    3    3    0    0 -0.42040389547E+01 -0.29008399124E+01  0.48377313517E+00  0.51305801014E+01  0.00000000000E+00 0. -1.
</event>
<event>
 7    1  0.2838209E-011  0.5052885E+02  0.7816164E-02  0.1300439E+00
        -11   -1    0    0    0    0  0.00000000000E+00  0.00000000000E+00  0.45593999997E+02  0.45594000000E+02  0.51100000000E-03 0.  1.
         11   -1    0    0    0    0 -0.00000000000E+00 -0.00000000000E+00 -0.45593999997E+02  0.45594000000E+02  0.51100000000E-03 0. -1.
    9900012    2    1    2    0    0  0.31301763393E+02 -0.16909973034E+02  0.19682956896E+02  0.50528851316E+02  0.29999974061E+02 0.  0.
         12    1    1    2    0    0 -0.31301763393E+02  0.16909973034E+02 -0.19682956896E+02  0.40659148684E+02  0.00000000000E+00 0. -1.
         11    1    3    3    0    0  0.81669904990E+00 -0.43747443224E+01  0.12164755757E+02  0.12953249327E+02  0.51100000000E-03 0. -1.
        -11    1    3    3    0    0  0.78831587513E+01 -0.10260055389E+02  0.73048764926E+01  0.14858470625E+02  0.51100000000E-03 0.  1.
        -12    1    3    3    0    0  0.22601905592E+02 -0.22751733228E+01  0.21332464606E+00  0.22717131365E+02  0.00000000000E+00 0.  1.
</event>
<event>
 7    1  0.4490257E-011  0.5052886E+02  0.7816164E-02  0.1300439E+00
        -11   -1    0    0    0    0  0.00000000000E+00  0.00000000000E+00  0.45593999997E+02  0.45594000000E+02  0.51100000000E-03 0. -1.
         11   -1    0    0    0    0 -0.00000000000E+00 -0.00000000000E+00 -0.45593999997E+02  0.45594000000E+02  0.51100000000E-03 0.  1.
    9900012    2    1    2    0    0  0.17661044105E+02 -0.23257971864E+02 -0.28289923211E+02  0.50528862166E+02  0.30000007039E+02 0.  0.
         12    1    1    2    0    0 -0.17661044105E+02  0.23257971864E+02  0.28289923211E+02  0.40659137834E+02  0.00000000000E+00 0. -1.
         11    1    3    3    0    0 -0.20686317390E+01  0.27036419958E+01 -0.71192255911E+01  0.78912794014E+01  0.51100000000E-03 0. -1.
        -11    1    3    3    0    0  0.69187360050E+01 -0.30712498332E+01 -0.13209340032E+02  0.15224590234E+02  0.51100000000E-03 0.  1.
        -12    1    3    3    0    0  0.12810939839E+02 -0.22890364027E+02 -0.79613575880E+01  0.27412992531E+02  0.00000000000E+00 0.  1.
</event>
<event>
 7    1  0.2838209E-011  0.5052878E+02  0.7816164E-02  0.1300439E+00
        -11   -1    0    0    0    0  0.00000000000E+00  0.00000000000E+00  0.45593999997E+02  0.45594000000E+02  0.51100000000E-03 0.  1.
         11   -1    0    0    0    0 -0.00000000000E+00 -0.00000000000E+00 -0.45593999997E+02  0.45594000000E+02  0.51100000000E-03 0. -1.
    9900012    2    1    2    0    0 -0.31859056504E+02  0.23839744751E+02  0.83569862355E+01  0.50528780503E+02  0.29999758817E+02 0.  0.
         12    1    1    2    0    0  0.31859056504E+02 -0.23839744751E+02 -0.83569862355E+01  0.40659219497E+02  0.00000000000E+00 0. -1.
         11    1    3    3    0    0 -0.12789241100E+02 -0.22066878772E+01  0.36376026609E+01  0.13478364614E+02  0.51100000000E-03 0. -1.
        -11    1    3    3    0    0 -0.13984973968E+02  0.68739217525E+01  0.70025826522E+01  0.17084099660E+02  0.51100000000E-03 0.  1.
        -12    1    3    3    0    0 -0.50848414364E+01  0.19172510876E+02 -0.22831990776E+01  0.19966316229E+02  0.00000000000E+00 0.  1.
</event>
<event>
 7    1  0.2838209E-011  0.5052886E+02  0.7816164E-02  0.1300439E+00
        -11   -1    0    0    0    0  0.00000000000E+00  0.00000000000E+00  0.45593999997E+02  0.45594000000E+02  0.51100000000E-03 0. -1.
         11   -1    0    0    0    0 -0.00000000000E+00 -0.00000000000E+00 -0.45593999997E+02  0.45594000000E+02  0.51100000000E-03 0.  1.
    9900012    2    1    2    0    0 -0.88793644883E+00 -0.40613168598E+02  0.17169224262E+01  0.50528859363E+02  0.29999998520E+02 0.  0.
         12    1    1    2    0    0  0.88793644883E+00  0.40613168598E+02 -0.17169224262E+01  0.40659140637E+02  0.00000000000E+00 0. -1.
         11    1    3    3    0    0  0.22017267769E+01 -0.87297291510E+01 -0.38972622344E+01  0.98104243045E+01  0.51100000000E-03 0. -1.
        -11    1    3    3    0    0 -0.10322104210E+02 -0.30800745895E+02  0.71116034244E+01  0.33253671776E+02  0.51100000000E-03 0.  1.
         12    1    3    3    0    0  0.72324409841E+01 -0.10826935519E+01 -0.14974187639E+01  0.74647632829E+01  0.00000000000E+00 0. -1.
</event>
<event>
 7    1  0.2838209E-011  0.5052886E+02  0.7816164E-02  0.1300439E+00
        -11   -1    0    0    0    0  0.00000000000E+00  0.00000000000E+00  0.45593999997E+02  0.45594000000E+02  0.51100000000E-03 0.  1.
         11   -1    0    0    0    0 -0.00000000000E+00 -0.00000000000E+00 -0.45593999997E+02  0.45594000000E+02  0.51100000000E-03 0. -1.
    9900012    2    1    2    0    0 -0.76239727810E+01  0.30637932250E+02  0.25619481356E+02  0.50528859841E+02  0.29999999972E+02 0.  0.
         12    1    1    2    0    0  0.76239727810E+01 -0.30637932250E+02 -0.25619481356E+02  0.40659140159E+02  0.00000000000E+00 0. -1.
         11    1    3    3    0    0 -0.10606373898E+01  0.14722147689E+00 -0.74450649363E+00  0.13041917099E+01  0.51100000000E-03 0. -1.
        -11    1    3    3    0    0 -0.10150813295E+02  0.34677275239E+01 -0.77997752646E+00  0.10755115524E+02  0.51100000000E-03 0.  1.
        -12    1    3    3    0    0  0.35874779039E+01  0.27022983249E+02  0.27143965376E+02  0.38469552607E+02  0.00000000000E+00 0.  1.
</event>
<event>
 7    1  0.2838209E-011  0.5052887E+02  0.7816164E-02  0.1300439E+00
        -11   -1    0    0    0    0  0.00000000000E+00  0.00000000000E+00  0.45593999997E+02  0.45594000000E+02  0.51100000000E-03 0. -1.
         11   -1    0    0    0    0 -0.00000000000E+00 -0.00000000000E+00 -0.45593999997E+02  0.45594000000E+02  0.51100000000E-03 0.  1.
    9900012    2    1    2    0    0 -0.20327039536E+02 -0.16850518532E+02 -0.30919841979E+02  0.50528866474E+02  0.30000020133E+02 0.  0.
         12    1    1    2    0    0  0.20327039536E+02  0.16850518532E+02  0.30919841979E+02  0.40659133526E+02  0.00000000000E+00 0. -1.
         11    1    3    3    0    0  0.16919795338E+00  0.84354362540E+00  0.70852984792E+00  0.11145441229E+01  0.51100000000E-03 0. -1.
        -11    1    3    3    0    0  0.16180461241E+01  0.55971828240E+01 -0.54810232702E+01  0.79992590391E+01  0.51100000000E-03 0.  1.
        -12    1    3    3    0    0 -0.22114283614E+02 -0.23291244982E+02 -0.26147348557E+02  0.41415063311E+02  0.00000000000E+00 0.  1.
</event>
<event>
 7    1  0.2838209E-011  0.5052886E+02  0.7816164E-02  0.1300439E+00
        -11   -1    0    0    0    0  0.00000000000E+00  0.00000000000E+00  0.45593999997E+02  0.45594000000E+02  0.51100000000E-03 0. -1.
         11   -1    0    0    0    0 -0.00000000000E+00 -0.00000000000E+00 -0.45593999997E+02  0.45594000000E+02  0.51100000000E-03 0.  1.
    9900012    2    1    2    0    0 -0.39067882666E+02  0.69156925178E+01  0.88904212937E+01  0.50528857734E+02  0.29999993569E+02 0.  0.
         12    1    1    2    0    0  0.39067882666E+02 -0.69156925178E+01 -0.88904212937E+01  0.40659142266E+02  0.00000000000E+00 0. -1.
         11    1    3    3    0    0 -0.17522978040E+01  0.36242520803E+01 -0.30827016333E+01  0.50703846360E+01  0.51100000000E-03 0. -1.
        -11    1    3    3    0    0 -0.80072850064E+01 -0.40684672432E+01 -0.55198220257E+01  0.10542175977E+02  0.51100000000E-03 0.  1.
         12    1    3    3    0    0 -0.29308299856E+02  0.73599076806E+01  0.17492944953E+02  0.34916297121E+02  0.00000000000E+00 0. -1.
</event>
<event>
 7    1  0.2838209E-011  0.5052886E+02  0.7816164E-02  0.1300439E+00
        -11   -1    0    0    0    0  0.00000000000E+00  0.00000000000E+00  0.45593999997E+02  0.45594000000E+02  0.51100000000E-03 0. -1.
         11   -1    0    0    0    0 -0.00000000000E+00 -0.00000000000E+00 -0.45593999997E+02  0.45594000000E+02  0.51100000000E-03 0.  1.
    9900012    2    1    2    0    0  0.12309192689E+02  0.28894653541E+01 -0.38643241497E+02  0.50528863904E+02  0.30000012321E+02 0.  0.
         12    1    1    2    0    0 -0.12309192689E+02 -0.28894653541E+01  0.38643241497E+02  0.40659136096E+02  0.00000000000E+00 0. -1.
         11    1    3    3    0    0  0.72490137994E+01 -0.80067019357E+01 -0.24704544669E+02  0.26962381284E+02  0.51100000000E-03 0.  1.
        -11    1    3    3    0    0 -0.38803621907E+01  0.32377749912E+01 -0.99096456135E+01  0.11123914512E+02  0.51100000000E-03 0. -1.
        -12    1    3    3    0    0  0.89405410805E+01  0.76583922986E+01 -0.40290512144E+01  0.12442568107E+02  0.00000000000E+00 0.  1.
</event>
<event>
 7    1  0.2838209E-011  0.5052888E+02  0.7816164E-02  0.1300439E+00
        -11   -1    0    0    0    0  0.00000000000E+00  0.00000000000E+00  0.45593999997E+02  0.45594000000E+02  0.51100000000E-03 0.  1.
         11   -1    0    0    0    0 -0.00000000000E+00 -0.00000000000E+00 -0.45593999997E+02  0.45594000000E+02  0.51100000000E-03 0. -1.
    9900012    2    1    2    0    0  0.34495941625E+02 -0.13219931662E+02 -0.16983142390E+02  0.50528884083E+02  0.30000073657E+02 0.  0.
         12    1    1    2    0    0 -0.34495941625E+02  0.13219931662E+02  0.16983142390E+02  0.40659115917E+02  0.00000000000E+00 0. -1.
         11    1    3    3    0    0  0.84533517241E+01  0.26924849273E+01  0.48918439246E+01  0.10131079296E+02  0.51100000000E-03 0. -1.
        -11    1    3    3    0    0  0.19232747028E+02 -0.31675241356E+01 -0.11861663304E+02  0.22817336041E+02  0.51100000000E-03 0.  1.
        -12    1    3    3    0    0  0.68098428728E+01 -0.12744892454E+02 -0.10013323010E+02  0.17580468746E+02  0.00000000000E+00 0.  1.
</event>
<event>
 7    1  0.2838209E-011  0.5052886E+02  0.7816164E-02  0.1300439E+00
        -11   -1    0    0    0    0  0.00000000000E+00  0.00000000000E+00  0.45593999997E+02  0.45594000000E+02  0.51100000000E-03 0.  1.
         11   -1    0    0    0    0 -0.00000000000E+00 -0.00000000000E+00 -0.45593999997E+02  0.45594000000E+02  0.51100000000E-03 0. -1.
    9900012    2    1    2    0    0 -0.28976816756E+02 -0.18950608852E+02  0.21316293868E+02  0.50528857493E+02  0.29999992835E+02 0.  0.
         12    1    1    2    0    0  0.28976816756E+02  0.18950608852E+02 -0.21316293868E+02  0.40659142507E+02  0.00000000000E+00 0. -1.
         11    1    3    3    0    0 -0.17934396192E+01 -0.11557434640E+02  0.59821611247E+01  0.13136855526E+02  0.51100000000E-03 0. -1.
        -11    1    3    3    0    0 -0.21599701712E+02 -0.76715763814E+01  0.19758755318E+02  0.30262329888E+02  0.51100000000E-03 0.  1.
         12    1    3    3    0    0 -0.55836754247E+01  0.27840216941E+00 -0.44246225755E+01  0.71296720788E+01  0.00000000000E+00 0. -1.
</event>
<event>
 7    1  0.2838209E-011  0.5052888E+02  0.7816164E-02  0.1300439E+00
        -11   -1    0    0    0    0  0.00000000000E+00  0.00000000000E+00  0.45593999997E+02  0.45594000000E+02  0.51100000000E-03 0.  1.
         11   -1    0    0    0    0 -0.00000000000E+00 -0.00000000000E+00 -0.45593999997E+02  0.45594000000E+02  0.51100000000E-03 0. -1.
    9900012    2    1    2    0    0 -0.23433606931E+02  0.24127931178E+01  0.33139229848E+02  0.50528879752E+02  0.30000060494E+02 0.  0.
         12    1    1    2    0    0  0.23433606931E+02 -0.24127931178E+01 -0.33139229848E+02  0.40659120248E+02  0.00000000000E+00 0. -1.
         11    1    3    3    0    0 -0.12350591067E+01  0.85967563738E+01  0.11341998857E+02  0.14285325669E+02  0.51100000000E-03 0. -1.
        -11    1    3    3    0    0 -0.15177396617E+01  0.17508599152E+01  0.11651713588E+02  0.11879876848E+02  0.51100000000E-03 0.  1.
        -12    1    3    3    0    0 -0.20680808163E+02 -0.79348231713E+01  0.10145517403E+02  0.24363677235E+02  0.00000000000E+00 0.  1.
</event>
<event>
 7    1  0.2838209E-011  0.5052886E+02  0.7816164E-02  0.1300439E+00
        -11   -1    0    0    0    0  0.00000000000E+00  0.00000000000E+00  0.45593999997E+02  0.45594000000E+02  0.51100000000E-03 0.  1.
         11   -1    0    0    0    0 -0.00000000000E+00 -0.00000000000E+00 -0.45593999997E+02  0.45594000000E+02  0.51100000000E-03 0. -1.
    9900012    2    1    2    0    0  0.41204262694E+01  0.40435542888E+02 -0.10745546440E+01  0.50528859466E+02  0.29999998833E+02 0.  0.
         12    1    1    2    0    0 -0.41204262694E+01 -0.40435542888E+02  0.10745546440E+01  0.40659140534E+02  0.00000000000E+00 0. -1.
         11    1    3    3    0    0 -0.37809154971E+01 -0.66156742110E+00 -0.19723931689E+01  0.43154754689E+01  0.51100000000E-03 0. -1.
        -11    1    3    3    0    0 -0.30519803364E+01  0.92528242457E+01 -0.65293198892E+01  0.11728655463E+02  0.51100000000E-03 0.  1.
        -12    1    3    3    0    0  0.10953322103E+02  0.31844286063E+02  0.74271584141E+01  0.34484728534E+02  0.00000000000E+00 0.  1.
</event>
<event>
 7    1  0.2838209E-011  0.5052886E+02  0.7816164E-02  0.1300439E+00
        -11   -1    0    0    0    0  0.00000000000E+00  0.00000000000E+00  0.45593999997E+02  0.45594000000E+02  0.51100000000E-03 0.  1.
         11   -1    0    0    0    0 -0.00000000000E+00 -0.00000000000E+00 -0.45593999997E+02  0.45594000000E+02  0.51100000000E-03 0. -1.
    9900012    2    1    2    0    0  0.30047574643E+02 -0.74287329578E+01  0.26365185097E+02  0.50528858341E+02  0.29999995413E+02 0.  0.
         12    1    1    2    0    0 -0.30047574643E+02  0.74287329578E+01 -0.26365185097E+02  0.40659141659E+02  0.00000000000E+00 0. -1.
         11    1    3    3    0    0  0.12194806630E+02  0.27433998136E+01  0.30651253988E+01  0.12869908518E+02  0.51100000000E-03 0. -1.
        -11    1    3    3    0    0  0.15620543671E+02 -0.67898699573E+01  0.34229907901E+01  0.17372984339E+02  0.51100000000E-03 0.  1.
         12    1    3    3    0    0  0.22322243411E+01 -0.33822628141E+01  0.19877068908E+02  0.20285965484E+02  0.00000000000E+00 0. -1.
</event>
<event>
 7    1  0.2838209E-011  0.5052884E+02  0.7816164E-02  0.1300439E+00
        -11   -1    0    0    0    0  0.00000000000E+00  0.00000000000E+00  0.45593999997E+02  0.45594000000E+02  0.51100000000E-03 0.  1.
         11   -1    0    0    0    0 -0.00000000000E+00 -0.00000000000E+00 -0.45593999997E+02  0.45594000000E+02  0.51100000000E-03 0. -1.
    9900012    2    1    2    0    0 -0.21955499897E+02 -0.28339670834E+02 -0.19182967263E+02  0.50528841725E+02  0.29999944906E+02 0.  0.
         12    1    1    2    0    0  0.21955499897E+02  0.28339670834E+02  0.19182967263E+02  0.40659158275E+02  0.00000000000E+00 0. -1.
         11    1    3    3    0    0  0.17719259158E+01 -0.99593927935E+00  0.62096484055E+00  0.21253738715E+01  0.51100000000E-03 0. -1.
        -11    1    3    3    0    0 -0.11190832345E+02 -0.24224057123E+02 -0.24887190398E+01  0.26799876769E+02  0.51100000000E-03 0.  1.
        -12    1    3    3    0    0 -0.12536593467E+02 -0.31196744310E+01 -0.17315213063E+02  0.21603591085E+02  0.00000000000E+00 0.  1.
</event>
<event>
 7    1  0.2838209E-011  0.5052886E+02  0.7816164E-02  0.1300439E+00
        -11   -1    0    0    0    0  0.00000000000E+00  0.00000000000E+00  0.45593999997E+02  0.45594000000E+02  0.51100000000E-03 0.  1.
         11   -1    0    0    0    0 -0.00000000000E+00 -0.00000000000E+00 -0.45593999997E+02  0.45594000000E+02  0.51100000000E-03 0. -1.
    9900012    2    1    2    0    0  0.15903917027E+02 -0.36209519995E+02  0.94393675534E+01  0.50528861115E+02  0.30000003846E+02 0.  0.
         12    1    1    2    0    0 -0.15903917027E+02  0.36209519995E+02 -0.94393675534E+01  0.40659138885E+02  0.00000000000E+00 0. -1.
         11    1    3    3    0    0  0.20447461578E+01 -0.22930180604E+02 -0.75630238203E+00  0.23033587713E+02  0.51100000000E-03 0. -1.
        -11    1    3    3    0    0  0.11822843743E+01 -0.12782294013E+02  0.55414361741E+01  0.13981857949E+02  0.51100000000E-03 0.  1.
         12    1    3    3    0    0  0.12676886495E+02 -0.49704537786E+00  0.46542337614E+01  0.13513415453E+02  0.00000000000E+00 0. -1.
</event>
<event>
 7    1  0.2838209E-011  0.5052887E+02  0.7816164E-02  0.1300439E+00
        -11   -1    0    0    0    0  0.00000000000E+00  0.00000000000E+00  0.45593999997E+02  0.45594000000E+02  0.51100000000E-03 0.  1.
         11   -1    0    0    0    0 -0.00000000000E+00 -0.00000000000E+00 -0.45593999997E+02  0.45594000000E+02  0.51100000000E-03 0. -1.
    9900012    2    1    2    0    0  0.22005745774E+02 -0.72250262806E+01  0.33417225325E+02  0.50528870640E+02  0.30000032798E+02 0.  0.
         12    1    1    2    0    0 -0.22005745774E+02  0.72250262806E+01 -0.33417225325E+02  0.40659129360E+02  0.00000000000E+00 0. -1.
         11    1    3    3    0    0 -0.15050230292E+01 -0.14865738585E+01  0.16639402924E+01  0.26914111007E+01  0.51100000000E-03 0. -1.
        -11    1    3    3    0    0  0.12886968126E+02 -0.15809331264E+02  0.23168631437E+02  0.30867367647E+02  0.51100000000E-03 0.  1.
        -12    1    3    3    0    0  0.10623800678E+02  0.10070878842E+02  0.85846535956E+01  0.16970091893E+02  0.00000000000E+00 0.  1.
</event>
<event>
 7    1  0.3073959E-011  0.5052886E+02  0.7816164E-02  0.1300439E+00
        -11   -1    0    0    0    0  0.00000000000E+00  0.00000000000E+00  0.45593999997E+02  0.45594000000E+02  0.51100000000E-03 0.  1.
         11   -1    0    0    0    0 -0.00000000000E+00 -0.00000000000E+00 -0.45593999997E+02  0.45594000000E+02  0.51100000000E-03 0. -1.
    9900012    2    1    2    0    0 -0.32662795500E+02  0.10159149821E+02  0.21979507809E+02  0.50528864514E+02  0.30000014177E+02 0.  0.
         12    1    1    2    0    0  0.32662795500E+02 -0.10159149821E+02 -0.21979507809E+02  0.40659135486E+02  0.00000000000E+00 0. -1.
         11    1    3    3    0    0 -0.67850267719E+01 -0.22467499284E+01 -0.44659644153E+01  0.84278889383E+01  0.51100000000E-03 0. -1.
        -11    1    3    3    0    0 -0.18079596963E+02  0.10833498358E+02  0.89820362578E+01  0.22910990564E+02  0.51100000000E-03 0.  1.
        -12    1    3    3    0    0 -0.77981717647E+01  0.15724013913E+01  0.17463435966E+02  0.19189985012E+02  0.00000000000E+00 0.  1.
</event>
<event>
 7    1  0.2838209E-011  0.5052886E+02  0.7816164E-02  0.1300439E+00
        -11   -1    0    0    0    0  0.00000000000E+00  0.00000000000E+00  0.45593999997E+02  0.45594000000E+02  0.51100000000E-03 0.  1.
         11   -1    0    0    0    0 -0.00000000000E+00 -0.00000000000E+00 -0.45593999997E+02  0.45594000000E+02  0.51100000000E-03 0. -1.
    9900012    2    1    2    0    0 -0.24532090297E+01 -0.22015022916E+01  0.40525309259E+02  0.50528861576E+02  0.30000005246E+02 0.  0.
         12    1    1    2    0    0  0.24532090297E+01  0.22015022916E+01 -0.40525309259E+02  0.40659138424E+02  0.00000000000E+00 0. -1.
         11    1    3    3    0    0 -0.47115686117E+01 -0.89990007282E+00  0.26329754061E+02  0.26763121045E+02  0.51100000000E-03 0.  1.
        -11    1    3    3    0    0 -0.46974546454E+01  0.15018817757E+01  0.15399744405E+02  0.16170153277E+02  0.51100000000E-03 0. -1.
         12    1    3    3    0    0  0.69558142275E+01 -0.28034839944E+01 -0.12041892070E+01  0.75955872532E+01  0.00000000000E+00 0. -1.
</event>
<event>
 7    1  0.2838209E-011  0.5052886E+02  0.7816164E-02  0.1300439E+00
        -11   -1    0    0    0    0  0.00000000000E+00  0.00000000000E+00  0.45593999997E+02  0.45594000000E+02  0.51100000000E-03 0.  1.
         11   -1    0    0    0    0 -0.00000000000E+00 -0.00000000000E+00 -0.45593999997E+02  0.45594000000E+02  0.51100000000E-03 0. -1.
    9900012    2    1    2    0    0  0.89779342399E+01 -0.61054959531E+01  0.39182715316E+02  0.50528861254E+02  0.30000004267E+02 0.  0.
         12    1    1    2    0    0 -0.89779342399E+01  0.61054959531E+01 -0.39182715316E+02  0.40659138746E+02  0.00000000000E+00 0. -1.
         11    1    3    3    0    0 -0.44076907450E+00 -0.62788294759E+01 -0.19163273184E+01  0.65795355168E+01  0.51100000000E-03 0. -1.
        -11    1    3    3    0    0  0.81611578518E+01  0.38848957082E+01  0.14667295093E+02  0.17228652232E+02  0.51100000000E-03 0.  1.
        -12    1    3    3    0    0  0.12575454626E+01 -0.37115621854E+01  0.26431747541E+02  0.26720673505E+02  0.00000000000E+00 0.  1.
</event>
<event>
 7    1  0.2838209E-011  0.5052884E+02  0.7816164E-02  0.1300439E+00
        -11   -1    0    0    0    0  0.00000000000E+00  0.00000000000E+00  0.45593999997E+02  0.45594000000E+02  0.51100000000E-03 0. -1.
         11   -1    0    0    0    0 -0.00000000000E+00 -0.00000000000E+00 -0.45593999997E+02  0.45594000000E+02  0.51100000000E-03 0.  1.
    9900012    2    1    2    0    0  0.86719800709E+01  0.24805144329E+02 -0.31026908827E+02  0.50528837504E+02  0.29999932076E+02 0.  0.
         12    1    1    2    0    0 -0.86719800709E+01 -0.24805144329E+02  0.31026908827E+02  0.40659162496E+02  0.00000000000E+00 0. -1.
         11    1    3    3    0    0  0.15127411855E+02  0.81813108434E+01 -0.10089194438E+02  0.19939014049E+02  0.51100000000E-03 0. -1.
        -11    1    3    3    0    0  0.26686257957E+01  0.97698185964E+01 -0.59294700866E+01  0.11735822716E+02  0.51100000000E-03 0.  1.
         12    1    3    3    0    0 -0.91240575802E+01  0.68540148892E+01 -0.15008244303E+02  0.18854000739E+02  0.00000000000E+00 0. -1.
</event>
<event>
 7    1  0.2838209E-011  0.5052886E+02  0.7816164E-02  0.1300439E+00
        -11   -1    0    0    0    0  0.00000000000E+00  0.00000000000E+00  0.45593999997E+02  0.45594000000E+02  0.51100000000E-03 0. -1.
         11   -1    0    0    0    0 -0.00000000000E+00 -0.00000000000E+00 -0.45593999997E+02  0.45594000000E+02  0.51100000000E-03 0.  1.
    9900012    2    1    2    0    0 -0.17079041265E+02  0.36789756387E+02 -0.28259439425E+01  0.50528858534E+02  0.29999996001E+02 0.  0.
         12    1    1    2    0    0  0.17079041265E+02 -0.36789756387E+02  0.28259439425E+01  0.40659141466E+02  0.00000000000E+00 0. -1.
         11    1    3    3    0    0 -0.51751957763E+00  0.84169807465E+01 -0.79275719939E+00  0.84700564130E+01  0.51100000000E-03 0. -1.
        -11    1    3    3    0    0 -0.19478272199E+02  0.14386784558E+02  0.69369240449E+01  0.25189354363E+02  0.51100000000E-03 0.  1.
         12    1    3    3    0    0  0.29167505116E+01  0.13985991083E+02 -0.89701107880E+01  0.16869447758E+02  0.00000000000E+00 0. -1.
</event>
<event>
 7    1  0.2838209E-011  0.5052886E+02  0.7816164E-02  0.1300439E+00
        -11   -1    0    0    0    0  0.00000000000E+00  0.00000000000E+00  0.45593999997E+02  0.45594000000E+02  0.51100000000E-03 0.  1.
         11   -1    0    0    0    0 -0.00000000000E+00 -0.00000000000E+00 -0.45593999997E+02  0.45594000000E+02  0.51100000000E-03 0. -1.
    9900012    2    1    2    0    0 -0.15684568981E+02 -0.25683993849E+02  0.27340302581E+02  0.50528863396E+02  0.30000010779E+02 0.  0.
         12    1    1    2    0    0  0.15684568981E+02  0.25683993849E+02 -0.27340302581E+02  0.40659136604E+02  0.00000000000E+00 0. -1.
         11    1    3    3    0    0 -0.49538571288E+01 -0.54689842540E+01  0.92339594293E+01  0.11820173274E+02  0.51100000000E-03 0.  1.
        -11    1    3    3    0    0 -0.10823409970E+02 -0.47779506377E+01 -0.33313359203E+01  0.12291168168E+02  0.51100000000E-03 0. -1.
         12    1    3    3    0    0  0.92698117087E-01 -0.15437058957E+02  0.21437679072E+02  0.26417521954E+02  0.00000000000E+00 0. -1.
</event>
<event>
 7    1  0.2838209E-011  0.5052887E+02  0.7816164E-02  0.1300439E+00
        -11   -1    0    0    0    0  0.00000000000E+00  0.00000000000E+00  0.45593999997E+02  0.45594000000E+02  0.51100000000E-03 0. -1.
         11   -1    0    0    0    0 -0.00000000000E+00 -0.00000000000E+00 -0.45593999997E+02  0.45594000000E+02  0.51100000000E-03 0.  1.
    9900012    2    1    2    0    0  0.29748942196E+02  0.82259387326E+01 -0.26466947040E+02  0.50528869224E+02  0.30000028493E+02 0.  0.
         12    1    1    2    0    0 -0.29748942196E+02 -0.82259387326E+01  0.26466947040E+02  0.40659130776E+02  0.00000000000E+00 0. -1.
         11    1    3    3    0    0  0.58116587875E+01 -0.14281907893E+01  0.28045744595E+01  0.66091410148E+01  0.51100000000E-03 0. -1.
        -11    1    3    3    0    0  0.22602392441E+02 -0.34179273293E-01 -0.23296228537E+02  0.32458952180E+02  0.51100000000E-03 0.  1.
         12    1    3    3    0    0  0.13348909674E+01  0.96883087952E+01 -0.59752929628E+01  0.11460776029E+02  0.00000000000E+00 0. -1.
</event>
<event>
 7    1  0.2838209E-011  0.5052886E+02  0.7816164E-02  0.1300439E+00
        -11   -1    0    0    0    0  0.00000000000E+00  0.00000000000E+00  0.45593999997E+02  0.45594000000E+02  0.51100000000E-03 0. -1.
         11   -1    0    0    0    0 -0.00000000000E+00 -0.00000000000E+00 -0.45593999997E+02  0.45594000000E+02  0.51100000000E-03 0.  1.
    9900012    2    1    2    0    0  0.66350258043E+01 -0.29049818714E+02 -0.27663157709E+02  0.50528857988E+02  0.29999994340E+02 0.  0.
         12    1    1    2    0    0 -0.66350258043E+01  0.29049818714E+02  0.27663157709E+02  0.40659142012E+02  0.00000000000E+00 0. -1.
         11    1    3    3    0    0  0.17574663385E+01  0.17483525319E+01  0.73321228850E+00  0.25851547397E+01  0.51100000000E-03 0. -1.
        -11    1    3    3    0    0  0.62330472118E+01 -0.91109396275E+01  0.13334976030E+01  0.11119276710E+02  0.51100000000E-03 0.  1.
         12    1    3    3    0    0 -0.13554877459E+01 -0.21687231619E+02 -0.29729867600E+02  0.36824426538E+02  0.00000000000E+00 0. -1.
</event>
<event>
 7    1  0.2838209E-011  0.5052886E+02  0.7816164E-02  0.1300439E+00
        -11   -1    0    0    0    0  0.00000000000E+00  0.00000000000E+00  0.45593999997E+02  0.45594000000E+02  0.51100000000E-03 0.  1.
         11   -1    0    0    0    0 -0.00000000000E+00 -0.00000000000E+00 -0.45593999997E+02  0.45594000000E+02  0.51100000000E-03 0. -1.
    9900012    2    1    2    0    0 -0.72574128661E+01  0.31834345729E+02  0.24229532083E+02  0.50528857922E+02  0.29999994141E+02 0.  0.
         12    1    1    2    0    0  0.72574128661E+01 -0.31834345729E+02 -0.24229532083E+02  0.40659142078E+02  0.00000000000E+00 0. -1.
         11    1    3    3    0    0 -0.50127966932E+01 -0.25163473155E+01  0.65978991545E+01  0.86598157032E+01  0.51100000000E-03 0. -1.
        -11    1    3    3    0    0  0.39990263858E+01  0.15353146974E+02  0.10653398093E+01  0.15901140941E+02  0.51100000000E-03 0.  1.
        -12    1    3    3    0    0 -0.62436425587E+01  0.18997546070E+02  0.16566293120E+02  0.25967901279E+02  0.00000000000E+00 0.  1.
</event>
<event>
 7    1  0.2838209E-011  0.5052886E+02  0.7816164E-02  0.1300439E+00
        -11   -1    0    0    0    0  0.00000000000E+00  0.00000000000E+00  0.45593999997E+02  0.45594000000E+02  0.51100000000E-03 0.  1.
         11   -1    0    0    0    0 -0.00000000000E+00 -0.00000000000E+00 -0.45593999997E+02  0.45594000000E+02  0.51100000000E-03 0. -1.
    9900012    2    1    2    0    0  0.22744238117E+02 -0.15967764856E+02  0.29679889239E+02  0.50528859487E+02  0.29999998896E+02 0.  0.
         12    1    1    2    0    0 -0.22744238117E+02  0.15967764856E+02 -0.29679889239E+02  0.40659140513E+02  0.00000000000E+00 0. -1.
         11    1    3    3    0    0  0.14445060234E+02 -0.22587539652E+00  0.64681567165E+01  0.15828702930E+02  0.51100000000E-03 0. -1.
        -11    1    3    3    0    0  0.67717671366E+01 -0.11915352086E+02  0.26228709775E+02  0.29593540887E+02  0.51100000000E-03 0.  1.
         12    1    3    3    0    0  0.15274107461E+01 -0.38265373740E+01 -0.30169772525E+01  0.51066156702E+01  0.00000000000E+00 0. -1.
</event>
<event>
 7    1  0.2838209E-011  0.5052886E+02  0.7816164E-02  0.1300439E+00
        -11   -1    0    0    0    0  0.00000000000E+00  0.00000000000E+00  0.45593999997E+02  0.45594000000E+02  0.51100000000E-03 0. -1.
         11   -1    0    0    0    0 -0.00000000000E+00 -0.00000000000E+00 -0.45593999997E+02  0.45594000000E+02  0.51100000000E-03 0.  1.
    9900012    2    1    2    0    0 -0.13776289951E+00  0.12921794027E+02 -0.38550924669E+02  0.50528861638E+02  0.30000005436E+02 0.  0.
         12    1    1    2    0    0  0.13776289951E+00 -0.12921794027E+02  0.38550924669E+02  0.40659138362E+02  0.00000000000E+00 0. -1.
         11    1    3    3    0    0  0.99480137823E+00 -0.40397872653E+01 -0.24183981594E+02  0.24539243609E+02  0.51100000000E-03 0. -1.
        -11    1    3    3    0    0  0.59472190488E+01  0.10283390611E+02 -0.87345149656E+01  0.14744805486E+02  0.51100000000E-03 0.  1.
         12    1    3    3    0    0 -0.70797833266E+01  0.66781906805E+01 -0.56324281095E+01  0.11244812543E+02  0.00000000000E+00 0. -1.
</event>
<event>
 7    1  0.2838209E-011  0.5052886E+02  0.7816164E-02  0.1300439E+00
        -11   -1    0    0    0    0  0.00000000000E+00  0.00000000000E+00  0.45593999997E+02  0.45594000000E+02  0.51100000000E-03 0. -1.
         11   -1    0    0    0    0 -0.00000000000E+00 -0.00000000000E+00 -0.45593999997E+02  0.45594000000E+02  0.51100000000E-03 0.  1.
    9900012    2    1    2    0    0  0.17829365832E+02  0.94761145939E+01 -0.35291399695E+02  0.50528856794E+02  0.29999990711E+02 0.  0.
         12    1    1    2    0    0 -0.17829365832E+02 -0.94761145939E+01  0.35291399695E+02  0.40659143206E+02  0.00000000000E+00 0. -1.
         11    1    3    3    0    0 -0.10478436143E+01  0.12142927396E+01 -0.19484375208E+01  0.25236664064E+01  0.51100000000E-03 0. -1.
        -11    1    3    3    0    0  0.15670621036E+02 -0.76996027459E+01 -0.12107872440E+02  0.21247419170E+02  0.51100000000E-03 0.  1.
        -12    1    3    3    0    0  0.32065884104E+01  0.15961424600E+02 -0.21235089734E+02  0.26757771217E+02  0.00000000000E+00 0.  1.
</event>
<event>
 7    1  0.2838209E-011  0.5052886E+02  0.7816164E-02  0.1300439E+00
        -11   -1    0    0    0    0  0.00000000000E+00  0.00000000000E+00  0.45593999997E+02  0.45594000000E+02  0.51100000000E-03 0.  1.
         11   -1    0    0    0    0 -0.00000000000E+00 -0.00000000000E+00 -0.45593999997E+02  0.45594000000E+02  0.51100000000E-03 0. -1.
    9900012    2    1    2    0    0  0.54028053451E+01  0.31545019722E+02  0.25077615725E+02  0.50528863446E+02  0.30000010931E+02 0.  0.
         12    1    1    2    0    0 -0.54028053451E+01 -0.31545019722E+02 -0.25077615725E+02  0.40659136554E+02  0.00000000000E+00 0. -1.
         11    1    3    3    0    0 -0.79095630292E+01  0.14623138797E+02  0.85764905004E+01  0.18707045869E+02  0.51100000000E-03 0. -1.
        -11    1    3    3    0    0 -0.29763154115E+01  0.42162386929E+01  0.79184374174E+01  0.94518132408E+01  0.51100000000E-03 0.  1.
         12    1    3    3    0    0  0.16288683786E+02  0.12705642232E+02  0.85826878070E+01  0.22370004336E+02  0.00000000000E+00 0. -1.
</event>
<event>
 7    1  0.2838209E-011  0.5052885E+02  0.7816164E-02  0.1300439E+00
        -11   -1    0    0    0    0  0.00000000000E+00  0.00000000000E+00  0.45593999997E+02  0.45594000000E+02  0.51100000000E-03 0.  1.
         11   -1    0    0    0    0 -0.00000000000E+00 -0.00000000000E+00 -0.45593999997E+02  0.45594000000E+02  0.51100000000E-03 0. -1.
    9900012    2    1    2    0    0  0.82546930274E+00  0.28037911283E+02  0.29433997753E+02  0.50528854751E+02  0.29999984500E+02 0.  0.
         12    1    1    2    0    0 -0.82546930274E+00 -0.28037911283E+02 -0.29433997753E+02  0.40659145249E+02  0.00000000000E+00 0. -1.
         11    1    3    3    0    0 -0.37493306099E+01 -0.33144037082E-01 -0.75348470480E+00  0.38244369534E+01  0.51100000000E-03 0. -1.
        -11    1    3    3    0    0  0.11568983492E+02  0.17442005192E+02  0.10900282831E+02  0.23598328123E+02  0.51100000000E-03 0.  1.
         12    1    3    3    0    0 -0.69941835797E+01  0.10629050128E+02  0.19287199627E+02  0.23106089674E+02  0.00000000000E+00 0. -1.
</event>
<event>
 7    1  0.2838209E-011  0.5052888E+02  0.7816164E-02  0.1300439E+00
        -11   -1    0    0    0    0  0.00000000000E+00  0.00000000000E+00  0.45593999997E+02  0.45594000000E+02  0.51100000000E-03 0. -1.
         11   -1    0    0    0    0 -0.00000000000E+00 -0.00000000000E+00 -0.45593999997E+02  0.45594000000E+02  0.51100000000E-03 0.  1.
    9900012    2    1    2    0    0  0.44925207489E+01  0.34520253147E+02 -0.21007944906E+02  0.50528875942E+02  0.30000048913E+02 0.  0.
         12    1    1    2    0    0 -0.44925207489E+01 -0.34520253147E+02  0.21007944906E+02  0.40659124058E+02  0.00000000000E+00 0. -1.
         11    1    3    3    0    0  0.87105717622E+01  0.79440982291E+01  0.19382429981E+01  0.11947365537E+02  0.51100000000E-03 0. -1.
        -11    1    3    3    0    0  0.48454648762E+01  0.14649955611E+02 -0.15432089744E+02  0.21823132758E+02  0.51100000000E-03 0.  1.
        -12    1    3    3    0    0 -0.90635158894E+01  0.11926199307E+02 -0.75140981598E+01  0.16758377647E+02  0.00000000000E+00 0.  1.
</event>
<event>
 7    1  0.2838209E-011  0.5052886E+02  0.7816164E-02  0.1300439E+00
        -11   -1    0    0    0    0  0.00000000000E+00  0.00000000000E+00  0.45593999997E+02  0.45594000000E+02  0.51100000000E-03 0.  1.
         11   -1    0    0    0    0 -0.00000000000E+00 -0.00000000000E+00 -0.45593999997E+02  0.45594000000E+02  0.51100000000E-03 0. -1.
    9900012    2    1    2    0    0  0.23153882390E+02 -0.21697841587E+02  0.25421783816E+02  0.50528859679E+02  0.29999999480E+02 0.  0.
         12    1    1    2    0    0 -0.23153882390E+02  0.21697841587E+02 -0.25421783816E+02  0.40659140321E+02  0.00000000000E+00 0. -1.
         11    1    3    3    0    0 -0.36571092912E+01 -0.55656592786E+01  0.15418893595E+01  0.68358199677E+01  0.51100000000E-03 0. -1.
        -11    1    3    3    0    0  0.10216023061E+02 -0.11913981124E+02  0.21176608611E+02  0.26358278129E+02  0.51100000000E-03 0.  1.
         12    1    3    3    0    0  0.16594968620E+02 -0.42182011841E+01  0.27032858455E+01  0.17334761582E+02  0.00000000000E+00 0. -1.
</event>
<event>
 7    1  0.2838209E-011  0.5052886E+02  0.7816164E-02  0.1300439E+00
        -11   -1    0    0    0    0  0.00000000000E+00  0.00000000000E+00  0.45593999997E+02  0.45594000000E+02  0.51100000000E-03 0.  1.
         11   -1    0    0    0    0 -0.00000000000E+00 -0.00000000000E+00 -0.45593999997E+02  0.45594000000E+02  0.51100000000E-03 0. -1.
    9900012    2    1    2    0    0 -0.11471852438E+02 -0.18359400588E+01  0.38963980889E+02  0.50528857351E+02  0.29999992404E+02 0.  0.
         12    1    1    2    0    0  0.11471852438E+02  0.18359400588E+01 -0.38963980889E+02  0.40659142649E+02  0.00000000000E+00 0. -1.
         11    1    3    3    0    0 -0.21886369129E+01 -0.24383503160E+01 -0.35411981112E+01  0.48244966705E+01  0.51100000000E-03 0. -1.
        -11    1    3    3    0    0  0.15793946987E+00  0.59474665600E+01  0.15063910713E+02  0.16196256036E+02  0.51100000000E-03 0.  1.
        -12    1    3    3    0    0 -0.94411549947E+01 -0.53450563028E+01  0.27441268287E+02  0.29508104645E+02  0.00000000000E+00 0.  1.
</event>
<event>
 7    1  0.2838209E-011  0.5052887E+02  0.7816164E-02  0.1300439E+00
        -11   -1    0    0    0    0  0.00000000000E+00  0.00000000000E+00  0.45593999997E+02  0.45594000000E+02  0.51100000000E-03 0.  1.
         11   -1    0    0    0    0 -0.00000000000E+00 -0.00000000000E+00 -0.45593999997E+02  0.45594000000E+02  0.51100000000E-03 0. -1.
    9900012    2    1    2    0    0 -0.34773154121E+02 -0.20369848895E+02  0.53909154800E+01  0.50528868662E+02  0.30000026784E+02 0.  0.
         12    1    1    2    0    0  0.34773154121E+02  0.20369848895E+02 -0.53909154800E+01  0.40659131338E+02  0.00000000000E+00 0. -1.
         11    1    3    3    0    0  0.37509960396E+00 -0.11842501880E+01 -0.19846779210E+01  0.23413873947E+01  0.51100000000E-03 0. -1.
        -11    1    3    3    0    0 -0.13101842471E+02 -0.18476933310E+02 -0.45634763905E+01  0.23105857649E+02  0.51100000000E-03 0.  1.
        -12    1    3    3    0    0 -0.22046411254E+02 -0.70866539655E+00  0.11939069791E+02  0.25081623618E+02  0.00000000000E+00 0.  1.
</event>
<event>
 7    1  0.2838209E-011  0.5052888E+02  0.7816164E-02  0.1300439E+00
        -11   -1    0    0    0    0  0.00000000000E+00  0.00000000000E+00  0.45593999997E+02  0.45594000000E+02  0.51100000000E-03 0. -1.
         11   -1    0    0    0    0 -0.00000000000E+00 -0.00000000000E+00 -0.45593999997E+02  0.45594000000E+02  0.51100000000E-03 0.  1.
    9900012    2    1    2    0    0 -0.32156560881E+02 -0.28104538217E+01 -0.24722886390E+02  0.50528878393E+02  0.30000056363E+02 0.  0.
         12    1    1    2    0    0  0.32156560881E+02  0.28104538217E+01  0.24722886390E+02  0.40659121607E+02  0.00000000000E+00 0. -1.
         11    1    3    3    0    0 -0.23134412603E+02  0.65342524616E+01 -0.97540849142E+01  0.25943008200E+02  0.51100000000E-03 0. -1.
        -11    1    3    3    0    0 -0.66732358208E+01  0.23136974064E+01 -0.28791739233E+01  0.76272481768E+01  0.51100000000E-03 0.  1.
        -12    1    3    3    0    0 -0.23489124581E+01 -0.11658403690E+02 -0.12089627553E+02  0.16958622016E+02  0.00000000000E+00 0.  1.
</event>
<event>
 7    1  0.2838209E-011  0.5052886E+02  0.7816164E-02  0.1300439E+00
        -11   -1    0    0    0    0  0.00000000000E+00  0.00000000000E+00  0.45593999997E+02  0.45594000000E+02  0.51100000000E-03 0. -1.
         11   -1    0    0    0    0 -0.00000000000E+00 -0.00000000000E+00 -0.45593999997E+02  0.45594000000E+02  0.51100000000E-03 0.  1.
    9900012    2    1    2    0    0 -0.20799184299E+02  0.24995544544E+02 -0.24408654328E+02  0.50528859322E+02  0.29999998396E+02 0.  0.
         12    1    1    2    0    0  0.20799184299E+02 -0.24995544544E+02  0.24408654328E+02  0.40659140678E+02  0.00000000000E+00 0. -1.
         11    1    3    3    0    0 -0.24709401889E+01  0.15379068753E+02 -0.10207290467E+02  0.18622837594E+02  0.51100000000E-03 0. -1.
        -11    1    3    3    0    0  0.12877828329E+01  0.74347445751E+01  0.76937623015E-01  0.75458419796E+01  0.51100000000E-03 0.  1.
         12    1    3    3    0    0 -0.19616026943E+02  0.21817312162E+01 -0.14278301484E+02  0.24360179749E+02  0.00000000000E+00 0. -1.
</event>
<event>
 7    1  0.2838209E-011  0.5052886E+02  0.7816164E-02  0.1300439E+00
        -11   -1    0    0    0    0  0.00000000000E+00  0.00000000000E+00  0.45593999997E+02  0.45594000000E+02  0.51100000000E-03 0.  1.
         11   -1    0    0    0    0 -0.00000000000E+00 -0.00000000000E+00 -0.45593999997E+02  0.45594000000E+02  0.51100000000E-03 0. -1.
    9900012    2    1    2    0    0  0.73745273959E+01  0.26886725734E+02  0.29595375084E+02  0.50528857100E+02  0.29999991641E+02 0.  0.
         12    1    1    2    0    0 -0.73745273959E+01 -0.26886725734E+02 -0.29595375084E+02  0.40659142900E+02  0.00000000000E+00 0. -1.
         11    1    3    3    0    0  0.50529038336E+01  0.62889547720E+01  0.97162268122E+00  0.81256901351E+01  0.51100000000E-03 0. -1.
        -11    1    3    3    0    0  0.11101561645E+02  0.37523345971E+01  0.14959845229E+02  0.19003201189E+02  0.51100000000E-03 0.  1.
         12    1    3    3    0    0 -0.87799380825E+01  0.16845436365E+02  0.13663907173E+02  0.23399965776E+02  0.00000000000E+00 0. -1.
</event>
<event>
 7    1  0.2838209E-011  0.5052886E+02  0.7816164E-02  0.1300439E+00
        -11   -1    0    0    0    0  0.00000000000E+00  0.00000000000E+00  0.45593999997E+02  0.45594000000E+02  0.51100000000E-03 0.  1.
         11   -1    0    0    0    0 -0.00000000000E+00 -0.00000000000E+00 -0.45593999997E+02  0.45594000000E+02  0.51100000000E-03 0. -1.
    9900012    2    1    2    0    0  0.22695559757E+01  0.82307302865E+01  0.39752605277E+02  0.50528862876E+02  0.30000009197E+02 0.  0.
         12    1    1    2    0    0 -0.22695559757E+01 -0.82307302865E+01 -0.39752605277E+02  0.40659137124E+02  0.00000000000E+00 0. -1.
         11    1    3    3    0    0  0.48094179234E+01  0.12198925848E+02  0.13210630251E+02  0.18613571513E+02  0.51100000000E-03 0. -1.
        -11    1    3    3    0    0 -0.19948747162E+00  0.27822561435E+01  0.24253077957E+02  0.24412958345E+02  0.51100000000E-03 0.  1.
        -12    1    3    3    0    0 -0.23403744761E+01 -0.67504517046E+01  0.22888970687E+01  0.75023330169E+01  0.00000000000E+00 0.  1.
</event>
<event>
 7    1  0.2838209E-011  0.5052885E+02  0.7816164E-02  0.1300439E+00
        -11   -1    0    0    0    0  0.00000000000E+00  0.00000000000E+00  0.45593999997E+02  0.45594000000E+02  0.51100000000E-03 0. -1.
         11   -1    0    0    0    0 -0.00000000000E+00 -0.00000000000E+00 -0.45593999997E+02  0.45594000000E+02  0.51100000000E-03 0.  1.
    9900012    2    1    2    0    0 -0.33896032280E+01  0.33213874290E+02 -0.23205941228E+02  0.50528848955E+02  0.29999966884E+02 0.  0.
         12    1    1    2    0    0  0.33896032280E+01 -0.33213874290E+02  0.23205941228E+02  0.40659151045E+02  0.00000000000E+00 0. -1.
         11    1    3    3    0    0 -0.86371391945E+01  0.18068298207E+02 -0.22785179432E+02  0.30335259609E+02  0.51100000000E-03 0. -1.
        -11    1    3    3    0    0 -0.28462546493E+01  0.88303174504E+01 -0.27300006742E+01  0.96710173066E+01  0.51100000000E-03 0.  1.
         12    1    3    3    0    0  0.80937906158E+01  0.63152586324E+01  0.23092388779E+01  0.10522572039E+02  0.00000000000E+00 0. -1.
</event>
<event>
 7    1  0.2838209E-011  0.5052886E+02  0.7816164E-02  0.1300439E+00
        -11   -1    0    0    0    0  0.00000000000E+00  0.00000000000E+00  0.45593999997E+02  0.45594000000E+02  0.51100000000E-03 0.  1.
         11   -1    0    0    0    0 -0.00000000000E+00 -0.00000000000E+00 -0.45593999997E+02  0.45594000000E+02  0.51100000000E-03 0. -1.
    9900012    2    1    2    0    0 -0.29688610186E+02 -0.25309539515E+02  0.11453339358E+02  0.50528863909E+02  0.30000012336E+02 0.  0.
         12    1    1    2    0    0  0.29688610186E+02  0.25309539515E+02 -0.11453339358E+02  0.40659136091E+02  0.00000000000E+00 0. -1.
         11    1    3    3    0    0 -0.44619619863E+01 -0.30002713972E+01  0.63640378712E+01  0.83313691258E+01  0.51100000000E-03 0. -1.
        -11    1    3    3    0    0 -0.12958678283E+02 -0.25945433513E+02  0.22356245996E+01  0.29087641372E+02  0.51100000000E-03 0.  1.
         12    1    3    3    0    0 -0.12267969917E+02  0.36361653947E+01  0.28536768877E+01  0.13109853410E+02  0.00000000000E+00 0. -1.
</event>
<event>
 7    1  0.2838209E-011  0.5052887E+02  0.7816164E-02  0.1300439E+00
        -11   -1    0    0    0    0  0.00000000000E+00  0.00000000000E+00  0.45593999997E+02  0.45594000000E+02  0.51100000000E-03 0. -1.
         11   -1    0    0    0    0 -0.00000000000E+00 -0.00000000000E+00 -0.45593999997E+02  0.45594000000E+02  0.51100000000E-03 0.  1.
    9900012    2    1    2    0    0 -0.14019879874E+01 -0.31913766061E+01 -0.40509439453E+02  0.50528866466E+02  0.30000020110E+02 0.  0.
         12    1    1    2    0    0  0.14019879874E+01  0.31913766061E+01  0.40509439453E+02  0.40659133534E+02  0.00000000000E+00 0. -1.
         11    1    3    3    0    0  0.10383126887E+01 -0.31004751856E+00  0.79922025339E+00  0.13464679639E+01  0.51100000000E-03 0. -1.
        -11    1    3    3    0    0 -0.55763391152E+01  0.70067190701E+01 -0.29231333731E+01  0.94198927294E+01  0.51100000000E-03 0.  1.
        -12    1    3    3    0    0  0.31360384391E+01 -0.98880481577E+01 -0.38385526333E+02  0.39762505773E+02  0.00000000000E+00 0.  1.
</event>
<event>
 7    1  0.2838209E-011  0.5052885E+02  0.7816164E-02  0.1300439E+00
        -11   -1    0    0    0    0  0.00000000000E+00  0.00000000000E+00  0.45593999997E+02  0.45594000000E+02  0.51100000000E-03 0.  1.
         11   -1    0    0    0    0 -0.00000000000E+00 -0.00000000000E+00 -0.45593999997E+02  0.45594000000E+02  0.51100000000E-03 0. -1.
    9900012    2    1    2    0    0 -0.38546631545E+02 -0.12436991391E+02  0.35559263674E+01  0.50528853789E+02  0.29999981576E+02 0.  0.
         12    1    1    2    0    0  0.38546631545E+02  0.12436991391E+02 -0.35559263674E+01  0.40659146211E+02  0.00000000000E+00 0. -1.
         11    1    3    3    0    0 -0.37274165445E+01 -0.87382290396E+01 -0.40187596323E+01  0.10315071987E+02  0.51100000000E-03 0. -1.
        -11    1    3    3    0    0 -0.13240831118E+02 -0.70197447077E+01  0.10339185864E+02  0.18207009338E+02  0.51100000000E-03 0.  1.
        -12    1    3    3    0    0 -0.21578383882E+02  0.33209823568E+01 -0.27644998638E+01  0.22006772464E+02  0.00000000000E+00 0.  1.
</event>
<event>
 7    1  0.2838209E-011  0.5052886E+02  0.7816164E-02  0.1300439E+00
        -11   -1    0    0    0    0  0.00000000000E+00  0.00000000000E+00  0.45593999997E+02  0.45594000000E+02  0.51100000000E-03 0. -1.
         11   -1    0    0    0    0 -0.00000000000E+00 -0.00000000000E+00 -0.45593999997E+02  0.45594000000E+02  0.51100000000E-03 0.  1.
    9900012    2    1    2    0    0  0.27696207252E+02 -0.29263984679E+02  0.54502169247E+01  0.50528861298E+02  0.30000004401E+02 0.  0.
         12    1    1    2    0    0 -0.27696207252E+02  0.29263984679E+02 -0.54502169247E+01  0.40659138702E+02  0.00000000000E+00 0. -1.
         11    1    3    3    0    0  0.55739388504E+01 -0.67570853300E+01  0.30675452208E+01  0.92809929645E+01  0.51100000000E-03 0.  1.
        -11    1    3    3    0    0 -0.27857064684E+01 -0.11571521841E+02 -0.52292349694E+01  0.13000199109E+02  0.51100000000E-03 0. -1.
         12    1    3    3    0    0  0.24907974870E+02 -0.10935377508E+02  0.76119066733E+01  0.28247669224E+02  0.00000000000E+00 0. -1.
</event>
<event>
 7    1  0.2838209E-011  0.5052885E+02  0.7816164E-02  0.1300439E+00
        -11   -1    0    0    0    0  0.00000000000E+00  0.00000000000E+00  0.45593999997E+02  0.45594000000E+02  0.51100000000E-03 0. -1.
         11   -1    0    0    0    0 -0.00000000000E+00 -0.00000000000E+00 -0.45593999997E+02  0.45594000000E+02  0.51100000000E-03 0.  1.
    9900012    2    1    2    0    0  0.14538593433E+02  0.12760903237E+01 -0.37949534125E+02  0.50528852864E+02  0.29999978765E+02 0.  0.
         12    1    1    2    0    0 -0.14538593433E+02 -0.12760903237E+01  0.37949534125E+02  0.40659147136E+02  0.00000000000E+00 0. -1.
         11    1    3    3    0    0  0.10119885079E+02 -0.83144239111E+01 -0.15789797911E+02  0.20514858940E+02  0.51100000000E-03 0. -1.
        -11    1    3    3    0    0  0.59656619680E+01  0.59710906766E-01 -0.18906006648E+02  0.19824978581E+02  0.51100000000E-03 0.  1.
        -12    1    3    3    0    0 -0.15469536140E+01  0.95308033281E+01 -0.32537295654E+01  0.10189015342E+02  0.00000000000E+00 0.  1.
</event>
<event>
 7    1  0.2838209E-011  0.5052886E+02  0.7816164E-02  0.1300439E+00
        -11   -1    0    0    0    0  0.00000000000E+00  0.00000000000E+00  0.45593999997E+02  0.45594000000E+02  0.51100000000E-03 0.  1.
         11   -1    0    0    0    0 -0.00000000000E+00 -0.00000000000E+00 -0.45593999997E+02  0.45594000000E+02  0.51100000000E-03 0. -1.
    9900012    2    1    2    0    0 -0.35304964418E+02  0.63022312692E+01  0.19157435894E+02  0.50528856113E+02  0.29999988642E+02 0.  0.
         12    1    1    2    0    0  0.35304964418E+02 -0.63022312692E+01 -0.19157435894E+02  0.40659143887E+02  0.00000000000E+00 0. -1.
         11    1    3    3    0    0 -0.73492143185E+00  0.59044050056E+01  0.93726273038E+01  0.11101722876E+02  0.51100000000E-03 0. -1.
        -11    1    3    3    0    0 -0.81738110876E+01 -0.40382966911E+01  0.87564526116E+01  0.12640984553E+02  0.51100000000E-03 0.  1.
        -12    1    3    3    0    0 -0.26396231899E+02  0.44361229547E+01  0.10283559785E+01  0.26786148685E+02  0.00000000000E+00 0.  1.
</event>
<event>
 7    1  0.2838209E-011  0.5052886E+02  0.7816164E-02  0.1300439E+00
        -11   -1    0    0    0    0  0.00000000000E+00  0.00000000000E+00  0.45593999997E+02  0.45594000000E+02  0.51100000000E-03 0.  1.
         11   -1    0    0    0    0 -0.00000000000E+00 -0.00000000000E+00 -0.45593999997E+02  0.45594000000E+02  0.51100000000E-03 0. -1.
    9900012    2    1    2    0    0  0.22112746279E+02 -0.31401157780E+02  0.13347635650E+02  0.50528860371E+02  0.30000001583E+02 0.  0.
         12    1    1    2    0    0 -0.22112746279E+02  0.31401157780E+02 -0.13347635650E+02  0.40659139629E+02  0.00000000000E+00 0. -1.
         11    1    3    3    0    0  0.95507164542E+01 -0.13965501697E+02  0.39639398746E+01  0.17377118346E+02  0.51100000000E-03 0.  1.
        -11    1    3    3    0    0 -0.26401900570E+01 -0.57434528705E+01 -0.58856784829E+01  0.86370750765E+01  0.51100000000E-03 0. -1.
         12    1    3    3    0    0  0.15202219882E+02 -0.11692203213E+02  0.15269374258E+02  0.24514666948E+02  0.00000000000E+00 0. -1.
</event>
<event>
 7    1  0.2838209E-011  0.5052886E+02  0.7816164E-02  0.1300439E+00
        -11   -1    0    0    0    0  0.00000000000E+00  0.00000000000E+00  0.45593999997E+02  0.45594000000E+02  0.51100000000E-03 0.  1.
         11   -1    0    0    0    0 -0.00000000000E+00 -0.00000000000E+00 -0.45593999997E+02  0.45594000000E+02  0.51100000000E-03 0. -1.
    9900012    2    1    2    0    0  0.31439635722E+02  0.25505876463E+02  0.37636391438E+01  0.50528863166E+02  0.30000010079E+02 0.  0.
         12    1    1    2    0    0 -0.31439635722E+02 -0.25505876463E+02 -0.37636391438E+01  0.40659136834E+02  0.00000000000E+00 0. -1.
         11    1    3    3    0    0 -0.40235896034E+01  0.87346156023E+00 -0.15797737810E+01  0.44099766274E+01  0.51100000000E-03 0. -1.
        -11    1    3    3    0    0  0.32561941372E+01  0.54714806108E+01  0.58400747061E+01  0.86398132601E+01  0.51100000000E-03 0.  1.
         12    1    3    3    0    0  0.32207031188E+02  0.19160934292E+02 -0.49666178133E+00  0.37479073279E+02  0.00000000000E+00 0. -1.
</event>
<event>
 7    1  0.2838209E-011  0.5052889E+02  0.7816164E-02  0.1300439E+00
        -11   -1    0    0    0    0  0.00000000000E+00  0.00000000000E+00  0.45593999997E+02  0.45594000000E+02  0.51100000000E-03 0.  1.
         11   -1    0    0    0    0 -0.00000000000E+00 -0.00000000000E+00 -0.45593999997E+02  0.45594000000E+02  0.51100000000E-03 0. -1.
    9900012    2    1    2    0    0 -0.31268103800E+02 -0.12414708448E+01  0.25960117754E+02  0.50528889349E+02  0.30000089666E+02 0.  0.
         12    1    1    2    0    0  0.31268103800E+02  0.12414708448E+01 -0.25960117754E+02  0.40659110651E+02  0.00000000000E+00 0. -1.
         11    1    3    3    0    0 -0.11301201754E+01  0.60272691625E+01  0.10441895695E+02  0.12109431495E+02  0.51100000000E-03 0. -1.
        -11    1    3    3    0    0  0.62442115243E+00  0.26028787746E+01  0.25769452944E+00  0.26891051342E+01  0.51100000000E-03 0.  1.
         12    1    3    3    0    0 -0.30762404777E+02 -0.98716187820E+01  0.15260527530E+02  0.35730352720E+02  0.00000000000E+00 0. -1.
</event>
<event>
 7    1  0.2838209E-011  0.5052886E+02  0.7816164E-02  0.1300439E+00
        -11   -1    0    0    0    0  0.00000000000E+00  0.00000000000E+00  0.45593999997E+02  0.45594000000E+02  0.51100000000E-03 0. -1.
         11   -1    0    0    0    0 -0.00000000000E+00 -0.00000000000E+00 -0.45593999997E+02  0.45594000000E+02  0.51100000000E-03 0.  1.
    9900012    2    1    2    0    0 -0.34335623006E+02  0.21401822793E+02 -0.40239916445E+01  0.50528861608E+02  0.30000005344E+02 0.  0.
         12    1    1    2    0    0  0.34335623006E+02 -0.21401822793E+02  0.40239916445E+01  0.40659138392E+02  0.00000000000E+00 0. -1.
         11    1    3    3    0    0 -0.22198326255E+02  0.53438538501E+01 -0.56296014107E+01  0.23516268301E+02  0.51100000000E-03 0.  1.
        -11    1    3    3    0    0 -0.26855035546E+01  0.12246964805E+02 -0.63776975609E+01  0.14066808548E+02  0.51100000000E-03 0. -1.
         12    1    3    3    0    0 -0.94517931962E+01  0.38110041371E+01  0.79833073271E+01  0.12945784759E+02  0.00000000000E+00 0. -1.
</event>
<event>
 7    1  0.2838209E-011  0.5052885E+02  0.7816164E-02  0.1300439E+00
        -11   -1    0    0    0    0  0.00000000000E+00  0.00000000000E+00  0.45593999997E+02  0.45594000000E+02  0.51100000000E-03 0.  1.
         11   -1    0    0    0    0 -0.00000000000E+00 -0.00000000000E+00 -0.45593999997E+02  0.45594000000E+02  0.51100000000E-03 0. -1.
    9900012    2    1    2    0    0  0.12545987432E+02  0.38268508168E+02  0.55933689418E+01  0.50528852270E+02  0.29999976959E+02 0.  0.
         12    1    1    2    0    0 -0.12545987432E+02 -0.38268508168E+02 -0.55933689418E+01  0.40659147730E+02  0.00000000000E+00 0. -1.
         11    1    3    3    0    0  0.56091532895E+01  0.16935512761E+01 -0.20866315370E+01  0.62197064225E+01  0.51100000000E-03 0. -1.
        -11    1    3    3    0    0 -0.83719731179E+01  0.11262721588E+02  0.31509711995E+01  0.14382887443E+02  0.51100000000E-03 0.  1.
         12    1    3    3    0    0  0.15308807261E+02  0.25312235304E+02  0.45290292793E+01  0.29926258404E+02  0.00000000000E+00 0. -1.
</event>
<event>
 7    1  0.2838209E-011  0.5052889E+02  0.7816164E-02  0.1300439E+00
        -11   -1    0    0    0    0  0.00000000000E+00  0.00000000000E+00  0.45593999997E+02  0.45594000000E+02  0.51100000000E-03 0.  1.
         11   -1    0    0    0    0 -0.00000000000E+00 -0.00000000000E+00 -0.45593999997E+02  0.45594000000E+02  0.51100000000E-03 0. -1.
    9900012    2    1    2    0    0  0.57954601383E+01  0.29979342375E+02  0.26848002577E+02  0.50528885772E+02  0.30000078793E+02 0.  0.
         12    1    1    2    0    0 -0.57954601383E+01 -0.29979342375E+02 -0.26848002577E+02  0.40659114228E+02  0.00000000000E+00 0. -1.
         11    1    3    3    0    0 -0.60969353714E+01  0.10780140412E+02  0.14051912716E+02  0.18730731419E+02  0.51100000000E-03 0. -1.
        -11    1    3    3    0    0 -0.13292215399E+01  0.14324777267E+02  0.97562469473E+01  0.17382474749E+02  0.51100000000E-03 0.  1.
         12    1    3    3    0    0  0.13221617050E+02  0.48744246960E+01  0.30398429134E+01  0.14415679605E+02  0.00000000000E+00 0. -1.
</event>
<event>
 7    1  0.2838209E-011  0.5052888E+02  0.7816164E-02  0.1300439E+00
        -11   -1    0    0    0    0  0.00000000000E+00  0.00000000000E+00  0.45593999997E+02  0.45594000000E+02  0.51100000000E-03 0.  1.
         11   -1    0    0    0    0 -0.00000000000E+00 -0.00000000000E+00 -0.45593999997E+02  0.45594000000E+02  0.51100000000E-03 0. -1.
    9900012    2    1    2    0    0  0.24571292046E+02 -0.79794738241E+01  0.31396560288E+02  0.50528875646E+02  0.30000048013E+02 0.  0.
         12    1    1    2    0    0 -0.24571292046E+02  0.79794738241E+01 -0.31396560288E+02  0.40659124354E+02  0.00000000000E+00 0. -1.
         11    1    3    3    0    0  0.14197627478E+02 -0.55883790035E+01  0.25120600122E+02  0.29391276880E+02  0.51100000000E-03 0. -1.
        -11    1    3    3    0    0  0.79492430665E+01 -0.57932069490E+01  0.11050059331E+02  0.14793766375E+02  0.51100000000E-03 0.  1.
         12    1    3    3    0    0  0.24244215014E+01  0.34021121284E+01 -0.47740991655E+01  0.63438323900E+01  0.00000000000E+00 0. -1.
</event>
<event>
 7    1  0.2838209E-011  0.5052885E+02  0.7816164E-02  0.1300439E+00
        -11   -1    0    0    0    0  0.00000000000E+00  0.00000000000E+00  0.45593999997E+02  0.45594000000E+02  0.51100000000E-03 0.  1.
         11   -1    0    0    0    0 -0.00000000000E+00 -0.00000000000E+00 -0.45593999997E+02  0.45594000000E+02  0.51100000000E-03 0. -1.
    9900012    2    1    2    0    0 -0.36515037213E+02 -0.17363777830E+02 -0.42799159835E+01  0.50528850918E+02  0.29999972851E+02 0.  0.
         12    1    1    2    0    0  0.36515037213E+02  0.17363777830E+02  0.42799159835E+01  0.40659149082E+02  0.00000000000E+00 0. -1.
         11    1    3    3    0    0 -0.17208804276E+02  0.20192849388E+01 -0.71315731385E+01  0.18737123364E+02  0.51100000000E-03 0. -1.
        -11    1    3    3    0    0 -0.22167788473E+02 -0.17365472392E+02  0.26622710127E+01  0.28285299440E+02  0.51100000000E-03 0.  1.
         12    1    3    3    0    0  0.28615555356E+01 -0.20175903762E+01  0.18938614232E+00  0.35064281142E+01  0.00000000000E+00 0. -1.
</event>
<event>
 7    1  0.2838209E-011  0.5052886E+02  0.7816164E-02  0.1300439E+00
        -11   -1    0    0    0    0  0.00000000000E+00  0.00000000000E+00  0.45593999997E+02  0.45594000000E+02  0.51100000000E-03 0. -1.
         11   -1    0    0    0    0 -0.00000000000E+00 -0.00000000000E+00 -0.45593999997E+02  0.45594000000E+02  0.51100000000E-03 0.  1.
    9900012    2    1    2    0    0 -0.26850903952E+02 -0.24339470440E+02  0.18433253764E+02  0.50528859470E+02  0.29999998844E+02 0.  0.
         12    1    1    2    0    0  0.26850903952E+02  0.24339470440E+02 -0.18433253764E+02  0.40659140530E+02  0.00000000000E+00 0. -1.
         11    1    3    3    0    0 -0.68140665515E+01 -0.41255205321E+00  0.12896019065E+02  0.14591401925E+02  0.51100000000E-03 0. -1.
        -11    1    3    3    0    0 -0.16056591389E+01 -0.14003883502E+02  0.51322971860E+01  0.15000912275E+02  0.51100000000E-03 0.  1.
         12    1    3    3    0    0 -0.18431178261E+02 -0.99230348845E+01  0.40493751363E+00  0.20936545269E+02  0.00000000000E+00 0. -1.
</event>
<event>
 7    1  0.2838209E-011  0.5052886E+02  0.7816164E-02  0.1300439E+00
        -11   -1    0    0    0    0  0.00000000000E+00  0.00000000000E+00  0.45593999997E+02  0.45594000000E+02  0.51100000000E-03 0. -1.
         11   -1    0    0    0    0 -0.00000000000E+00 -0.00000000000E+00 -0.45593999997E+02  0.45594000000E+02  0.51100000000E-03 0.  1.
    9900012    2    1    2    0    0  0.51038511928E+00 -0.39260584858E+02 -0.10559906774E+02  0.50528860223E+02  0.30000001133E+02 0.  0.
         12    1    1    2    0    0 -0.51038511928E+00  0.39260584858E+02  0.10559906774E+02  0.40659139777E+02  0.00000000000E+00 0. -1.
         11    1    3    3    0    0 -0.30473337390E+00 -0.26875987164E+02 -0.44095650025E+01  0.27237030165E+02  0.51100000000E-03 0. -1.
        -11    1    3    3    0    0  0.57820906333E+00 -0.16251191199E+02 -0.89034428064E+01  0.18539332112E+02  0.51100000000E-03 0.  1.
         12    1    3    3    0    0  0.23690942985E+00  0.38665935045E+01  0.27531010353E+01  0.47524979450E+01  0.00000000000E+00 0. -1.
</event>
<event>
 7    1  0.2838209E-011  0.5052885E+02  0.7816164E-02  0.1300439E+00
        -11   -1    0    0    0    0  0.00000000000E+00  0.00000000000E+00  0.45593999997E+02  0.45594000000E+02  0.51100000000E-03 0.  1.
         11   -1    0    0    0    0 -0.00000000000E+00 -0.00000000000E+00 -0.45593999997E+02  0.45594000000E+02  0.51100000000E-03 0. -1.
    9900012    2    1    2    0    0  0.43929555855E+01 -0.40402336313E+02 -0.12328810569E+01  0.50528845631E+02  0.29999956780E+02 0.  0.
         12    1    1    2    0    0 -0.43929555855E+01  0.40402336313E+02  0.12328810569E+01  0.40659154369E+02  0.00000000000E+00 0. -1.
         11    1    3    3    0    0  0.78179027335E+00 -0.68160132406E+01 -0.36619194643E+01  0.77768172765E+01  0.51100000000E-03 0.  1.
        -11    1    3    3    0    0 -0.39322787865E+01 -0.34739780791E+01 -0.83749306946E+01  0.98828540690E+01  0.51100000000E-03 0. -1.
        -12    1    3    3    0    0  0.75434440987E+01 -0.30112344993E+02  0.10803969102E+02  0.32869174285E+02  0.00000000000E+00 0.  1.
</event>
<event>
 7    1  0.2838209E-011  0.5052885E+02  0.7816164E-02  0.1300439E+00
        -11   -1    0    0    0    0  0.00000000000E+00  0.00000000000E+00  0.45593999997E+02  0.45594000000E+02  0.51100000000E-03 0. -1.
         11   -1    0    0    0    0 -0.00000000000E+00 -0.00000000000E+00 -0.45593999997E+02  0.45594000000E+02  0.51100000000E-03 0.  1.
    9900012    2    1    2    0    0  0.58926908305E+01  0.35482063455E+02 -0.18959576176E+02  0.50528853907E+02  0.29999981936E+02 0.  0.
         12    1    1    2    0    0 -0.58926908305E+01 -0.35482063455E+02  0.18959576176E+02  0.40659146093E+02  0.00000000000E+00 0. -1.
         11    1    3    3    0    0  0.36491085538E+01  0.12458954681E+02  0.22187318043E+01  0.13170585259E+02  0.51100000000E-03 0. -1.
        -11    1    3    3    0    0 -0.31393482114E+01  0.24021255289E+02 -0.12934815547E+02  0.27462441012E+02  0.51100000000E-03 0.  1.
         12    1    3    3    0    0  0.53829304881E+01 -0.99814651528E+00 -0.82434924327E+01  0.98958276356E+01  0.00000000000E+00 0. -1.
</event>
<event>
 7    1  0.2838209E-011  0.5052886E+02  0.7816164E-02  0.1300439E+00
        -11   -1    0    0    0    0  0.00000000000E+00  0.00000000000E+00  0.45593999997E+02  0.45594000000E+02  0.51100000000E-03 0. -1.
         11   -1    0    0    0    0 -0.00000000000E+00 -0.00000000000E+00 -0.45593999997E+02  0.45594000000E+02  0.51100000000E-03 0.  1.
    9900012    2    1    2    0    0  0.28504580751E+02  0.94671163025E+01 -0.27404896723E+02  0.50528858602E+02  0.29999996206E+02 0.  0.
         12    1    1    2    0    0 -0.28504580751E+02 -0.94671163025E+01  0.27404896723E+02  0.40659141398E+02  0.00000000000E+00 0. -1.
         11    1    3    3    0    0 -0.80746034529E+00  0.32650315563E+01 -0.24625467517E+01  0.41685201256E+01  0.51100000000E-03 0.  1.
        -11    1    3    3    0    0  0.31175967180E+01 -0.28328098356E+01  0.43386278706E+01  0.60471408882E+01  0.51100000000E-03 0. -1.
         12    1    3    3    0    0  0.26194444378E+02  0.90348945818E+01 -0.29280977842E+02  0.40313197588E+02  0.00000000000E+00 0. -1.
</event>
<event>
 7    1  0.2838209E-011  0.5052883E+02  0.7816164E-02  0.1300439E+00
        -11   -1    0    0    0    0  0.00000000000E+00  0.00000000000E+00  0.45593999997E+02  0.45594000000E+02  0.51100000000E-03 0. -1.
         11   -1    0    0    0    0 -0.00000000000E+00 -0.00000000000E+00 -0.45593999997E+02  0.45594000000E+02  0.51100000000E-03 0.  1.
    9900012    2    1    2    0    0 -0.10040848453E+02  0.36604568372E+02 -0.14575832292E+02  0.50528831902E+02  0.29999915051E+02 0.  0.
         12    1    1    2    0    0  0.10040848453E+02 -0.36604568372E+02  0.14575832292E+02  0.40659168098E+02  0.00000000000E+00 0. -1.
         11    1    3    3    0    0 -0.10736202374E+02  0.21213485084E+02 -0.15904589450E+02  0.28604789051E+02  0.51100000000E-03 0. -1.
        -11    1    3    3    0    0 -0.12133298656E+01  0.97226442083E+01 -0.67310682146E+01  0.11887357121E+02  0.51100000000E-03 0.  1.
         12    1    3    3    0    0  0.19086837873E+01  0.56684390805E+01  0.80598253725E+01  0.10036685730E+02  0.00000000000E+00 0. -1.
</event>
<event>
 7    1  0.2838209E-011  0.5052888E+02  0.7816164E-02  0.1300439E+00
        -11   -1    0    0    0    0  0.00000000000E+00  0.00000000000E+00  0.45593999997E+02  0.45594000000E+02  0.51100000000E-03 0. -1.
         11   -1    0    0    0    0 -0.00000000000E+00 -0.00000000000E+00 -0.45593999997E+02  0.45594000000E+02  0.51100000000E-03 0.  1.
    9900012    2    1    2    0    0  0.43002283089E+01  0.33231978051E+01 -0.40294268936E+02  0.50528883971E+02  0.30000073317E+02 0.  0.
         12    1    1    2    0    0 -0.43002283089E+01 -0.33231978051E+01  0.40294268936E+02  0.40659116029E+02  0.00000000000E+00 0. -1.
         11    1    3    3    0    0 -0.22717691046E+01 -0.69198985827E+01 -0.14519418572E+02  0.16243751020E+02  0.51100000000E-03 0. -1.
        -11    1    3    3    0    0 -0.24886910256E+01  0.17227768673E+01 -0.20588155265E+02  0.20809461325E+02  0.51100000000E-03 0.  1.
         12    1    3    3    0    0  0.90606884391E+01  0.85203195205E+01 -0.51866950992E+01  0.13475671626E+02  0.00000000000E+00 0. -1.
</event>
<event>
 7    1  0.2838209E-011  0.5052886E+02  0.7816164E-02  0.1300439E+00
        -11   -1    0    0    0    0  0.00000000000E+00  0.00000000000E+00  0.45593999997E+02  0.45594000000E+02  0.51100000000E-03 0.  1.
         11   -1    0    0    0    0 -0.00000000000E+00 -0.00000000000E+00 -0.45593999997E+02  0.45594000000E+02  0.51100000000E-03 0. -1.
    9900012    2    1    2    0    0 -0.17087601319E+02  0.27643080636E+02  0.24434400274E+02  0.50528856592E+02  0.29999990097E+02 0.  0.
         12    1    1    2    0    0  0.17087601319E+02 -0.27643080636E+02 -0.24434400274E+02  0.40659143408E+02  0.00000000000E+00 0. -1.
         11    1    3    3    0    0 -0.12724995077E+02  0.43973018449E+01  0.88042732822E+01  0.16086546911E+02  0.51100000000E-03 0. -1.
        -11    1    3    3    0    0  0.41541803396E+01  0.18479925631E+01 -0.24481660122E+01  0.51638946437E+01  0.51100000000E-03 0.  1.
        -12    1    3    3    0    0 -0.85167865819E+01  0.21397786228E+02  0.18078293004E+02  0.29278415037E+02  0.00000000000E+00 0.  1.
</event>
<event>
 7    1  0.2838209E-011  0.5052886E+02  0.7816164E-02  0.1300439E+00
        -11   -1    0    0    0    0  0.00000000000E+00  0.00000000000E+00  0.45593999997E+02  0.45594000000E+02  0.51100000000E-03 0.  1.
         11   -1    0    0    0    0 -0.00000000000E+00 -0.00000000000E+00 -0.45593999997E+02  0.45594000000E+02  0.51100000000E-03 0. -1.
    9900012    2    1    2    0    0 -0.14811055427E+02 -0.73039624588E+01  0.37154410216E+02  0.50528862910E+02  0.30000009301E+02 0.  0.
         12    1    1    2    0    0  0.14811055427E+02  0.73039624588E+01 -0.37154410216E+02  0.40659137090E+02  0.00000000000E+00 0. -1.
         11    1    3    3    0    0 -0.90083684268E+01  0.35738902776E+01  0.32812113353E+02  0.34213420998E+02  0.51100000000E-03 0. -1.
        -11    1    3    3    0    0 -0.58112364099E+01 -0.56810447309E+01  0.67721742081E+01  0.10578614352E+02  0.51100000000E-03 0.  1.
        -12    1    3    3    0    0  0.85494100899E-02 -0.51968080056E+01 -0.24298773453E+01  0.57368275599E+01  0.00000000000E+00 0.  1.
</event>
<event>
 7    1  0.2838209E-011  0.5052884E+02  0.7816164E-02  0.1300439E+00
        -11   -1    0    0    0    0  0.00000000000E+00  0.00000000000E+00  0.45593999997E+02  0.45594000000E+02  0.51100000000E-03 0. -1.
         11   -1    0    0    0    0 -0.00000000000E+00 -0.00000000000E+00 -0.45593999997E+02  0.45594000000E+02  0.51100000000E-03 0.  1.
    9900012    2    1    2    0    0 -0.11429261034E+02  0.37363451275E+02 -0.11247756281E+02  0.50528837191E+02  0.29999931127E+02 0.  0.
         12    1    1    2    0    0  0.11429261034E+02 -0.37363451275E+02  0.11247756281E+02  0.40659162809E+02  0.00000000000E+00 0. -1.
         11    1    3    3    0    0 -0.34709616112E+00  0.14010167587E+02 -0.62614017066E+01  0.15349606612E+02  0.51100000000E-03 0. -1.
        -11    1    3    3    0    0  0.68422310025E+01  0.10740919897E+02 -0.15524942597E+00  0.12736074277E+02  0.51100000000E-03 0.  1.
        -12    1    3    3    0    0 -0.17924395875E+02  0.12612363790E+02 -0.48311051489E+01  0.22443156303E+02  0.00000000000E+00 0.  1.
</event>
<event>
 7    1  0.2838209E-011  0.5052886E+02  0.7816164E-02  0.1300439E+00
        -11   -1    0    0    0    0  0.00000000000E+00  0.00000000000E+00  0.45593999997E+02  0.45594000000E+02  0.51100000000E-03 0. -1.
         11   -1    0    0    0    0 -0.00000000000E+00 -0.00000000000E+00 -0.45593999997E+02  0.45594000000E+02  0.51100000000E-03 0.  1.
    9900012    2    1    2    0    0 -0.30375919286E+02 -0.23086606428E+02 -0.14052681264E+02  0.50528859336E+02  0.29999998438E+02 0.  0.
         12    1    1    2    0    0  0.30375919286E+02  0.23086606428E+02  0.14052681264E+02  0.40659140664E+02  0.00000000000E+00 0. -1.
         11    1    3    3    0    0  0.40763070715E+01 -0.68982976550E+01 -0.57149748910E+01  0.98419372150E+01  0.51100000000E-03 0. -1.
        -11    1    3    3    0    0 -0.17334651191E+02 -0.14386429648E+02 -0.60363578503E+01  0.23321601709E+02  0.51100000000E-03 0.  1.
        -12    1    3    3    0    0 -0.17117575167E+02 -0.18018791245E+01 -0.23013485228E+01  0.17365320412E+02  0.00000000000E+00 0.  1.
</event>
<event>
 7    1  0.2838209E-011  0.5052887E+02  0.7816164E-02  0.1300439E+00
        -11   -1    0    0    0    0  0.00000000000E+00  0.00000000000E+00  0.45593999997E+02  0.45594000000E+02  0.51100000000E-03 0.  1.
         11   -1    0    0    0    0 -0.00000000000E+00 -0.00000000000E+00 -0.45593999997E+02  0.45594000000E+02  0.51100000000E-03 0. -1.
    9900012    2    1    2    0    0  0.10405145728E+02  0.17216639762E+02  0.35333903159E+02  0.50528874889E+02  0.30000045712E+02 0.  0.
         12    1    1    2    0    0 -0.10405145728E+02 -0.17216639762E+02 -0.35333903159E+02  0.40659125111E+02  0.00000000000E+00 0. -1.
         11    1    3    3    0    0  0.74023314579E+01  0.15189580427E+02  0.16418980438E+02  0.23560576891E+02  0.51100000000E-03 0. -1.
        -11    1    3    3    0    0  0.82048506770E+01  0.55427353364E+01  0.38080267624E+01  0.10608607719E+02  0.51100000000E-03 0.  1.
         12    1    3    3    0    0 -0.52020364070E+01 -0.35156760008E+01  0.15106895959E+02  0.16359690279E+02  0.00000000000E+00 0. -1.
</event>
<event>
 7    1  0.2838209E-011  0.5052887E+02  0.7816164E-02  0.1300439E+00
        -11   -1    0    0    0    0  0.00000000000E+00  0.00000000000E+00  0.45593999997E+02  0.45594000000E+02  0.51100000000E-03 0.  1.
         11   -1    0    0    0    0 -0.00000000000E+00 -0.00000000000E+00 -0.45593999997E+02  0.45594000000E+02  0.51100000000E-03 0. -1.
    9900012    2    1    2    0    0  0.72968073989E+01  0.47929907353E+00  0.39996149382E+02  0.50528867062E+02  0.30000021923E+02 0.  0.
         12    1    1    2    0    0 -0.72968073989E+01 -0.47929907353E+00 -0.39996149382E+02  0.40659132938E+02  0.00000000000E+00 0. -1.
         11    1    3    3    0    0 -0.64230086061E+01 -0.40190184319E+01  0.10025713117E+02  0.12566720832E+02  0.51100000000E-03 0. -1.
        -11    1    3    3    0    0  0.11236096742E+02 -0.54546112478E+01  0.20474574958E+02  0.23983554236E+02  0.51100000000E-03 0.  1.
        -12    1    3    3    0    0  0.24837192635E+01  0.99529287533E+01  0.94958613076E+01  0.13978591993E+02  0.00000000000E+00 0.  1.
</event>
<event>
 7    1  0.2838209E-011  0.5052886E+02  0.7816164E-02  0.1300439E+00
        -11   -1    0    0    0    0  0.00000000000E+00  0.00000000000E+00  0.45593999997E+02  0.45594000000E+02  0.51100000000E-03 0. -1.
         11   -1    0    0    0    0 -0.00000000000E+00 -0.00000000000E+00 -0.45593999997E+02  0.45594000000E+02  0.51100000000E-03 0.  1.
    9900012    2    1    2    0    0 -0.28656302781E+02  0.10471271919E+02 -0.26876282466E+02  0.50528858545E+02  0.29999996032E+02 0.  0.
         12    1    1    2    0    0  0.28656302781E+02 -0.10471271919E+02  0.26876282466E+02  0.40659141455E+02  0.00000000000E+00 0. -1.
         11    1    3    3    0    0 -0.79209799246E+00 -0.25855526234E+01  0.56559934358E-01  0.27047552358E+01  0.51100000000E-03 0. -1.
        -11    1    3    3    0    0 -0.85680457502E+00 -0.17276386823E+01  0.38375486126E+01  0.42948374954E+01  0.51100000000E-03 0.  1.
        -12    1    3    3    0    0 -0.27007400213E+02  0.14784463225E+02 -0.30770391013E+02  0.43529265813E+02  0.00000000000E+00 0.  1.
</event>
<event>
 7    1  0.2838209E-011  0.5052886E+02  0.7816164E-02  0.1300439E+00
        -11   -1    0    0    0    0  0.00000000000E+00  0.00000000000E+00  0.45593999997E+02  0.45594000000E+02  0.51100000000E-03 0.  1.
         11   -1    0    0    0    0 -0.00000000000E+00 -0.00000000000E+00 -0.45593999997E+02  0.45594000000E+02  0.51100000000E-03 0. -1.
    9900012    2    1    2    0    0  0.99184950823E+01 -0.23632871502E+02  0.31563848277E+02  0.50528859844E+02  0.29999999983E+02 0.  0.
         12    1    1    2    0    0 -0.99184950823E+01  0.23632871502E+02 -0.31563848277E+02  0.40659140156E+02  0.00000000000E+00 0. -1.
         11    1    3    3    0    0  0.18102352887E+01  0.13217081230E+00  0.20911164195E+02  0.20989788212E+02  0.51100000000E-03 0. -1.
        -11    1    3    3    0    0  0.48450633680E+01 -0.17599345491E+01  0.32507238072E+01  0.60941951223E+01  0.51100000000E-03 0.  1.
        -12    1    3    3    0    0  0.32631964256E+01 -0.22005107765E+02  0.74019602753E+01  0.23444876510E+02  0.00000000000E+00 0.  1.
</event>
<event>
 7    1  0.2838209E-011  0.5052888E+02  0.7816164E-02  0.1300439E+00
        -11   -1    0    0    0    0  0.00000000000E+00  0.00000000000E+00  0.45593999997E+02  0.45594000000E+02  0.51100000000E-03 0.  1.
         11   -1    0    0    0    0 -0.00000000000E+00 -0.00000000000E+00 -0.45593999997E+02  0.45594000000E+02  0.51100000000E-03 0. -1.
    9900012    2    1    2    0    0  0.31235895707E+02 -0.25032561332E+02  0.71311983735E+01  0.50528876820E+02  0.30000051583E+02 0.  0.
         12    1    1    2    0    0 -0.31235895707E+02  0.25032561332E+02 -0.71311983735E+01  0.40659123180E+02  0.00000000000E+00 0. -1.
         11    1    3    3    0    0  0.12467379903E+02 -0.84916030056E+01 -0.67656318938E+01  0.16532291385E+02  0.51100000000E-03 0. -1.
        -11    1    3    3    0    0  0.33853723321E+01 -0.98388403328E+01  0.13715786652E+02  0.17215874322E+02  0.51100000000E-03 0.  1.
         12    1    3    3    0    0  0.15383143472E+02 -0.67021179938E+01  0.18104361531E+00  0.16780711113E+02  0.00000000000E+00 0. -1.
</event>
<event>
 7    1  0.2838209E-011  0.5052887E+02  0.7816164E-02  0.1300439E+00
        -11   -1    0    0    0    0  0.00000000000E+00  0.00000000000E+00  0.45593999997E+02  0.45594000000E+02  0.51100000000E-03 0.  1.
         11   -1    0    0    0    0 -0.00000000000E+00 -0.00000000000E+00 -0.45593999997E+02  0.45594000000E+02  0.51100000000E-03 0. -1.
    9900012    2    1    2    0    0 -0.27995700278E+02 -0.26620891484E+02 -0.12678097425E+02  0.50528865088E+02  0.30000015922E+02 0.  0.
         12    1    1    2    0    0  0.27995700278E+02  0.26620891484E+02  0.12678097425E+02  0.40659134912E+02  0.00000000000E+00 0. -1.
         11    1    3    3    0    0 -0.11649561247E+02 -0.44325942414E+01 -0.16578067040E+02  0.20741081843E+02  0.51100000000E-03 0. -1.
        -11    1    3    3    0    0 -0.39093108077E+01 -0.11354285121E+02 -0.21880163189E+01  0.12206142604E+02  0.51100000000E-03 0.  1.
        -12    1    3    3    0    0 -0.12436828223E+02 -0.10834012122E+02  0.60879859341E+01  0.17581640641E+02  0.00000000000E+00 0.  1.
</event>
<event>
 7    1  0.2838209E-011  0.5052889E+02  0.7816164E-02  0.1300439E+00
        -11   -1    0    0    0    0  0.00000000000E+00  0.00000000000E+00  0.45593999997E+02  0.45594000000E+02  0.51100000000E-03 0.  1.
         11   -1    0    0    0    0 -0.00000000000E+00 -0.00000000000E+00 -0.45593999997E+02  0.45594000000E+02  0.51100000000E-03 0. -1.
    9900012    2    1    2    0    0 -0.39793402807E+02 -0.25203574858E+01 -0.79558742606E+01  0.50528892237E+02  0.30000098445E+02 0.  0.
         12    1    1    2    0    0  0.39793402807E+02  0.25203574858E+01  0.79558742606E+01  0.40659107763E+02  0.00000000000E+00 0. -1.
         11    1    3    3    0    0 -0.10813561949E+02  0.32580716412E+00 -0.78102702910E+01  0.13343147852E+02  0.51100000000E-03 0. -1.
        -11    1    3    3    0    0 -0.25122494624E+02  0.18690080406E+01 -0.87279984838E+01  0.26661036832E+02  0.51100000000E-03 0.  1.
        -12    1    3    3    0    0 -0.38573462338E+01 -0.47151726904E+01  0.85823945142E+01  0.10524707553E+02  0.00000000000E+00 0.  1.
</event>
<event>
 7    1  0.2838209E-011  0.5052885E+02  0.7816164E-02  0.1300439E+00
        -11   -1    0    0    0    0  0.00000000000E+00  0.00000000000E+00  0.45593999997E+02  0.45594000000E+02  0.51100000000E-03 0.  1.
         11   -1    0    0    0    0 -0.00000000000E+00 -0.00000000000E+00 -0.45593999997E+02  0.45594000000E+02  0.51100000000E-03 0. -1.
    9900012    2    1    2    0    0 -0.29696028677E+02 -0.17019209523E+02  0.21946721798E+02  0.50528853309E+02  0.29999980118E+02 0.  0.
         12    1    1    2    0    0  0.29696028677E+02  0.17019209523E+02 -0.21946721798E+02  0.40659146691E+02  0.00000000000E+00 0. -1.
         11    1    3    3    0    0  0.96891764833E+00  0.28129281029E+01  0.29218556561E+00  0.29894378380E+01  0.51100000000E-03 0. -1.
        -11    1    3    3    0    0 -0.23583678332E+02 -0.62325290196E+01  0.49977808875E+01  0.24900042484E+02  0.51100000000E-03 0.  1.
        -12    1    3    3    0    0 -0.70812679934E+01 -0.13599608606E+02  0.16656755345E+02  0.22639372987E+02  0.00000000000E+00 0.  1.
</event>
<event>
 7    1  0.2838209E-011  0.5052885E+02  0.7816164E-02  0.1300439E+00
        -11   -1    0    0    0    0  0.00000000000E+00  0.00000000000E+00  0.45593999997E+02  0.45594000000E+02  0.51100000000E-03 0.  1.
         11   -1    0    0    0    0 -0.00000000000E+00 -0.00000000000E+00 -0.45593999997E+02  0.45594000000E+02  0.51100000000E-03 0. -1.
    9900012    2    1    2    0    0 -0.15479160334E+02  0.18405538031E+02  0.32784111072E+02  0.50528853752E+02  0.29999981464E+02 0.  0.
         12    1    1    2    0    0  0.15479160334E+02 -0.18405538031E+02 -0.32784111072E+02  0.40659146248E+02  0.00000000000E+00 0. -1.
         11    1    3    3    0    0 -0.73502192425E+01  0.80292371040E+01  0.25339621643E+01  0.11176552952E+02  0.51100000000E-03 0. -1.
        -11    1    3    3    0    0 -0.92032349613E+01  0.14557212708E+02  0.30501894741E+02  0.35028239445E+02  0.51100000000E-03 0.  1.
         12    1    3    3    0    0  0.10742938694E+01 -0.41809117803E+01 -0.25174583333E+00  0.43240613544E+01  0.00000000000E+00 0. -1.
</event>
<event>
 7    1  0.2838209E-011  0.5052886E+02  0.7816164E-02  0.1300439E+00
        -11   -1    0    0    0    0  0.00000000000E+00  0.00000000000E+00  0.45593999997E+02  0.45594000000E+02  0.51100000000E-03 0.  1.
         11   -1    0    0    0    0 -0.00000000000E+00 -0.00000000000E+00 -0.45593999997E+02  0.45594000000E+02  0.51100000000E-03 0. -1.
    9900012    2    1    2    0    0  0.37332760677E+02  0.64273975247E+01  0.14768847950E+02  0.50528864145E+02  0.30000013054E+02 0.  0.
         12    1    1    2    0    0 -0.37332760677E+02 -0.64273975247E+01 -0.14768847950E+02  0.40659135855E+02  0.00000000000E+00 0. -1.
         11    1    3    3    0    0  0.19546292870E+02  0.15745325764E+01  0.27325510019E+01  0.19799079601E+02  0.51100000000E-03 0. -1.
        -11    1    3    3    0    0  0.12639467489E+02 -0.46722763200E+01 -0.13160663294E+01  0.13539510156E+02  0.51100000000E-03 0.  1.
        -12    1    3    3    0    0  0.51470003189E+01  0.95251412683E+01  0.13352363277E+02  0.17190274389E+02  0.00000000000E+00 0.  1.
</event>
<event>
 7    1  0.2838209E-011  0.5052887E+02  0.7816164E-02  0.1300439E+00
        -11   -1    0    0    0    0  0.00000000000E+00  0.00000000000E+00  0.45593999997E+02  0.45594000000E+02  0.51100000000E-03 0.  1.
         11   -1    0    0    0    0 -0.00000000000E+00 -0.00000000000E+00 -0.45593999997E+02  0.45594000000E+02  0.51100000000E-03 0. -1.
    9900012    2    1    2    0    0  0.26868350151E+02 -0.23584465271E+02  0.19365691374E+02  0.50528865179E+02  0.30000016198E+02 0.  0.
         12    1    1    2    0    0 -0.26868350151E+02  0.23584465271E+02 -0.19365691374E+02  0.40659134821E+02  0.00000000000E+00 0. -1.
         11    1    3    3    0    0  0.72612537357E+01  0.26866999773E+01 -0.13913368668E+01  0.78663829757E+01  0.51100000000E-03 0. -1.
        -11    1    3    3    0    0  0.15827071524E+02 -0.87970490754E+01  0.15996155036E+02  0.24161151497E+02  0.51100000000E-03 0.  1.
         12    1    3    3    0    0  0.37800248918E+01 -0.17474116173E+02  0.47608732049E+01  0.18501330706E+02  0.00000000000E+00 0. -1.
</event>
<event>
 7    1  0.2838209E-011  0.5052886E+02  0.7816164E-02  0.1300439E+00
        -11   -1    0    0    0    0  0.00000000000E+00  0.00000000000E+00  0.45593999997E+02  0.45594000000E+02  0.51100000000E-03 0. -1.
         11   -1    0    0    0    0 -0.00000000000E+00 -0.00000000000E+00 -0.45593999997E+02  0.45594000000E+02  0.51100000000E-03 0.  1.
    9900012    2    1    2    0    0  0.14542603116E+02 -0.18017331024E+02 -0.33422354492E+02  0.50528864465E+02  0.30000014028E+02 0.  0.
         12    1    1    2    0    0 -0.14542603116E+02  0.18017331024E+02  0.33422354492E+02  0.40659135535E+02  0.00000000000E+00 0. -1.
         11    1    3    3    0    0  0.38579231458E+01 -0.94382169525E+01 -0.12085805128E+02  0.15812343157E+02  0.51100000000E-03 0. -1.
        -11    1    3    3    0    0  0.58623975601E+01 -0.44875265748E+01 -0.25891000357E+02  0.26923029169E+02  0.51100000000E-03 0.  1.
        -12    1    3    3    0    0  0.48222824102E+01 -0.40915874969E+01  0.45544509922E+01  0.77934921395E+01  0.00000000000E+00 0.  1.
</event>
<event>
 7    1  0.2838209E-011  0.5052886E+02  0.7816164E-02  0.1300439E+00
        -11   -1    0    0    0    0  0.00000000000E+00  0.00000000000E+00  0.45593999997E+02  0.45594000000E+02  0.51100000000E-03 0.  1.
         11   -1    0    0    0    0 -0.00000000000E+00 -0.00000000000E+00 -0.45593999997E+02  0.45594000000E+02  0.51100000000E-03 0. -1.
    9900012    2    1    2    0    0 -0.10912529143E+02  0.35902386589E+02  0.15655713832E+02  0.50528855510E+02  0.29999986808E+02 0.  0.
         12    1    1    2    0    0  0.10912529143E+02 -0.35902386589E+02 -0.15655713832E+02  0.40659144490E+02  0.00000000000E+00 0. -1.
         11    1    3    3    0    0  0.28876700853E+01  0.22343352245E+02  0.84904672676E+01  0.24075964420E+02  0.51100000000E-03 0.  1.
        -11    1    3    3    0    0 -0.12412081477E+00  0.17022099582E+01 -0.45719955098E+01  0.48801708906E+01  0.51100000000E-03 0. -1.
        -12    1    3    3    0    0 -0.13676078414E+02  0.11856824386E+02  0.11737242074E+02  0.21572720199E+02  0.00000000000E+00 0.  1.
</event>
<event>
 7    1  0.2838209E-011  0.5052887E+02  0.7816164E-02  0.1300439E+00
        -11   -1    0    0    0    0  0.00000000000E+00  0.00000000000E+00  0.45593999997E+02  0.45594000000E+02  0.51100000000E-03 0. -1.
         11   -1    0    0    0    0 -0.00000000000E+00 -0.00000000000E+00 -0.45593999997E+02  0.45594000000E+02  0.51100000000E-03 0.  1.
    9900012    2    1    2    0    0  0.65447084245E+01 -0.46359588309E+01 -0.39860253692E+02  0.50528866377E+02  0.30000019838E+02 0.  0.
         12    1    1    2    0    0 -0.65447084245E+01  0.46359588309E+01  0.39860253692E+02  0.40659133623E+02  0.00000000000E+00 0. -1.
         11    1    3    3    0    0 -0.18231081871E+01  0.34241339825E+01 -0.17138096553E+01  0.42409386682E+01  0.51100000000E-03 0. -1.
        -11    1    3    3    0    0  0.37507686605E+01  0.70372391826E+00  0.24271384443E+01  0.45226645008E+01  0.51100000000E-03 0.  1.
        -12    1    3    3    0    0  0.46170479510E+01 -0.87638167316E+01 -0.40573582481E+02  0.41765263208E+02  0.00000000000E+00 0.  1.
</event>
<event>
 7    1  0.2838209E-011  0.5052886E+02  0.7816164E-02  0.1300439E+00
        -11   -1    0    0    0    0  0.00000000000E+00  0.00000000000E+00  0.45593999997E+02  0.45594000000E+02  0.51100000000E-03 0.  1.
         11   -1    0    0    0    0 -0.00000000000E+00 -0.00000000000E+00 -0.45593999997E+02  0.45594000000E+02  0.51100000000E-03 0. -1.
    9900012    2    1    2    0    0  0.30302898879E+02  0.24220193218E+01  0.27000630992E+02  0.50528856723E+02  0.29999990495E+02 0.  0.
         12    1    1    2    0    0 -0.30302898879E+02 -0.24220193218E+01 -0.27000630992E+02  0.40659143277E+02  0.00000000000E+00 0. -1.
         11    1    3    3    0    0  0.15138653204E+01  0.46670136743E+01  0.77739262084E+01  0.91927544185E+01  0.51100000000E-03 0. -1.
        -11    1    3    3    0    0  0.76935502467E+01  0.44755074886E+01  0.16866025347E+02  0.19070492756E+02  0.51100000000E-03 0.  1.
        -12    1    3    3    0    0  0.21095483312E+02 -0.67205018411E+01  0.23606794361E+01  0.22265609549E+02  0.00000000000E+00 0.  1.
</event>
<event>
 7    1  0.2838209E-011  0.5052886E+02  0.7816164E-02  0.1300439E+00
        -11   -1    0    0    0    0  0.00000000000E+00  0.00000000000E+00  0.45593999997E+02  0.45594000000E+02  0.51100000000E-03 0. -1.
         11   -1    0    0    0    0 -0.00000000000E+00 -0.00000000000E+00 -0.45593999997E+02  0.45594000000E+02  0.51100000000E-03 0.  1.
    9900012    2    1    2    0    0 -0.38362424365E+02  0.12169587640E+01 -0.13416746100E+02  0.50528859974E+02  0.30000000376E+02 0.  0.
         12    1    1    2    0    0  0.38362424365E+02 -0.12169587640E+01  0.13416746100E+02  0.40659140026E+02  0.00000000000E+00 0. -1.
         11    1    3    3    0    0 -0.10386591966E+02  0.19706680616E+01 -0.55143614773E+01  0.11923632334E+02  0.51100000000E-03 0. -1.
        -11    1    3    3    0    0 -0.82427184242E+01  0.11606707484E+02 -0.52369018749E+01  0.15168493899E+02  0.51100000000E-03 0.  1.
         12    1    3    3    0    0 -0.19733113975E+02 -0.12360416782E+02 -0.26654827475E+01  0.23436733741E+02  0.00000000000E+00 0. -1.
</event>
<event>
 7    1  0.2838209E-011  0.5052887E+02  0.7816164E-02  0.1300439E+00
        -11   -1    0    0    0    0  0.00000000000E+00  0.00000000000E+00  0.45593999997E+02  0.45594000000E+02  0.51100000000E-03 0.  1.
         11   -1    0    0    0    0 -0.00000000000E+00 -0.00000000000E+00 -0.45593999997E+02  0.45594000000E+02  0.51100000000E-03 0. -1.
    9900012    2    1    2    0    0  0.15459477169E+02  0.25571711490E+02  0.27572765321E+02  0.50528865106E+02  0.30000015976E+02 0.  0.
         12    1    1    2    0    0 -0.15459477169E+02 -0.25571711490E+02 -0.27572765321E+02  0.40659134894E+02  0.00000000000E+00 0. -1.
         11    1    3    3    0    0 -0.62266842100E+01  0.50945316329E+01  0.76765964176E+01  0.11120071116E+02  0.51100000000E-03 0. -1.
        -11    1    3    3    0    0  0.16565216253E+02  0.20766680754E+02  0.21346729486E+02  0.34078501714E+02  0.51100000000E-03 0.  1.
         12    1    3    3    0    0  0.51209451251E+01 -0.28950089702E+00 -0.14505605820E+01  0.53302922759E+01  0.00000000000E+00 0. -1.
</event>
<event>
 7    1  0.2838209E-011  0.5052886E+02  0.7816164E-02  0.1300439E+00
        -11   -1    0    0    0    0  0.00000000000E+00  0.00000000000E+00  0.45593999997E+02  0.45594000000E+02  0.51100000000E-03 0. -1.
         11   -1    0    0    0    0 -0.00000000000E+00 -0.00000000000E+00 -0.45593999997E+02  0.45594000000E+02  0.51100000000E-03 0.  1.
    9900012    2    1    2    0    0  0.23034424846E+02  0.11545965992E+02 -0.31452692065E+02  0.50528857156E+02  0.29999991810E+02 0.  0.
         12    1    1    2    0    0 -0.23034424846E+02 -0.11545965992E+02  0.31452692065E+02  0.40659142844E+02  0.00000000000E+00 0. -1.
         11    1    3    3    0    0  0.31829013913E+01 -0.45024436547E+01  0.39405065782E+01  0.67772009328E+01  0.51100000000E-03 0. -1.
        -11    1    3    3    0    0  0.62719220351E+01  0.39256830518E+01 -0.12192622494E+02  0.14262118951E+02  0.51100000000E-03 0.  1.
         12    1    3    3    0    0  0.13579601420E+02  0.12122726595E+02 -0.23200576149E+02  0.29489537271E+02  0.00000000000E+00 0. -1.
</event>
<event>
 7    1  0.2838209E-011  0.5052887E+02  0.7816164E-02  0.1300439E+00
        -11   -1    0    0    0    0  0.00000000000E+00  0.00000000000E+00  0.45593999997E+02  0.45594000000E+02  0.51100000000E-03 0.  1.
         11   -1    0    0    0    0 -0.00000000000E+00 -0.00000000000E+00 -0.45593999997E+02  0.45594000000E+02  0.51100000000E-03 0. -1.
    9900012    2    1    2    0    0 -0.15803415519E+02 -0.14225972356E+02  0.34656004919E+02  0.50528869309E+02  0.30000028753E+02 0.  0.
         12    1    1    2    0    0  0.15803415519E+02  0.14225972356E+02 -0.34656004919E+02  0.40659130691E+02  0.00000000000E+00 0. -1.
         11    1    3    3    0    0 -0.82008151444E+01 -0.10659305230E+02  0.20854757692E+02  0.24815218630E+02  0.51100000000E-03 0. -1.
        -11    1    3    3    0    0 -0.80706014254E+01 -0.11257287448E+02  0.74456131729E+01  0.15725720455E+02  0.51100000000E-03 0.  1.
         12    1    3    3    0    0  0.46800105085E+00  0.76906203219E+01  0.63556340546E+01  0.99879302238E+01  0.00000000000E+00 0. -1.
</event>
<event>
 7    1  0.2838209E-011  0.5052887E+02  0.7816164E-02  0.1300439E+00
        -11   -1    0    0    0    0  0.00000000000E+00  0.00000000000E+00  0.45593999997E+02  0.45594000000E+02  0.51100000000E-03 0.  1.
         11   -1    0    0    0    0 -0.00000000000E+00 -0.00000000000E+00 -0.45593999997E+02  0.45594000000E+02  0.51100000000E-03 0. -1.
    9900012    2    1    2    0    0  0.26238322153E+02  0.15340741626E+02  0.27006983846E+02  0.50528867206E+02  0.30000022361E+02 0.  0.
         12    1    1    2    0    0 -0.26238322153E+02 -0.15340741626E+02 -0.27006983846E+02  0.40659132794E+02  0.00000000000E+00 0. -1.
         11    1    3    3    0    0 -0.19698889992E+01  0.41009987550E+01  0.10948820120E+01  0.46794679547E+01  0.51100000000E-03 0. -1.
        -11    1    3    3    0    0  0.18830359314E+02  0.98157772535E+01  0.35118000619E+01  0.21523583692E+02  0.51100000000E-03 0.  1.
         12    1    3    3    0    0  0.93778518382E+01  0.14239656178E+01  0.22400301772E+02  0.24325815560E+02  0.00000000000E+00 0. -1.
</event>
<event>
 7    1  0.2838209E-011  0.5052886E+02  0.7816164E-02  0.1300439E+00
        -11   -1    0    0    0    0  0.00000000000E+00  0.00000000000E+00  0.45593999997E+02  0.45594000000E+02  0.51100000000E-03 0. -1.
         11   -1    0    0    0    0 -0.00000000000E+00 -0.00000000000E+00 -0.45593999997E+02  0.45594000000E+02  0.51100000000E-03 0.  1.
    9900012    2    1    2    0    0 -0.19036512735E+02 -0.35628156106E+02 -0.46272806532E+01  0.50528855262E+02  0.29999986053E+02 0.  0.
         12    1    1    2    0    0  0.19036512735E+02  0.35628156106E+02  0.46272806532E+01  0.40659144738E+02  0.00000000000E+00 0. -1.
         11    1    3    3    0    0 -0.36553805656E+01  0.34820419940E+00 -0.43114774696E+01  0.56632050533E+01  0.51100000000E-03 0. -1.
        -11    1    3    3    0    0  0.10975014676E+01  0.73037149589E+00  0.41765930556E+01  0.43797125256E+01  0.51100000000E-03 0.  1.
        -12    1    3    3    0    0 -0.16478633637E+02 -0.36706731801E+02 -0.44923962393E+01  0.40485937683E+02  0.00000000000E+00 0.  1.
</event>
<event>
 7    1  0.2838209E-011  0.5052886E+02  0.7816164E-02  0.1300439E+00
        -11   -1    0    0    0    0  0.00000000000E+00  0.00000000000E+00  0.45593999997E+02  0.45594000000E+02  0.51100000000E-03 0. -1.
         11   -1    0    0    0    0 -0.00000000000E+00 -0.00000000000E+00 -0.45593999997E+02  0.45594000000E+02  0.51100000000E-03 0.  1.
    9900012    2    1    2    0    0 -0.20709811090E+02  0.34252531348E+02  0.71437604023E+01  0.50528862137E+02  0.30000006950E+02 0.  0.
         12    1    1    2    0    0  0.20709811090E+02 -0.34252531348E+02 -0.71437604023E+01  0.40659137863E+02  0.00000000000E+00 0. -1.
         11    1    3    3    0    0  0.43609776573E+01  0.27418993547E+01 -0.22913588892E+01  0.56379485647E+01  0.51100000000E-03 0. -1.
        -11    1    3    3    0    0 -0.10565661101E+02  0.19748573088E+02 -0.27902187055E+01  0.22570437617E+02  0.51100000000E-03 0.  1.
        -12    1    3    3    0    0 -0.14505127646E+02  0.11762058905E+02  0.12225337997E+02  0.22320475955E+02  0.00000000000E+00 0.  1.
</event>
<event>
 7    1  0.2838209E-011  0.5052886E+02  0.7816164E-02  0.1300439E+00
        -11   -1    0    0    0    0  0.00000000000E+00  0.00000000000E+00  0.45593999997E+02  0.45594000000E+02  0.51100000000E-03 0.  1.
         11   -1    0    0    0    0 -0.00000000000E+00 -0.00000000000E+00 -0.45593999997E+02  0.45594000000E+02  0.51100000000E-03 0. -1.
    9900012    2    1    2    0    0 -0.32173943250E+02  0.21453212790E+02  0.12560372320E+02  0.50528856919E+02  0.29999991092E+02 0.  0.
         12    1    1    2    0    0  0.32173943250E+02 -0.21453212790E+02 -0.12560372320E+02  0.40659143081E+02  0.00000000000E+00 0. -1.
         11    1    3    3    0    0 -0.49444180642E+01  0.46704550472E+00 -0.18592254450E+01  0.53030294185E+01  0.51100000000E-03 0. -1.
        -11    1    3    3    0    0 -0.47888983226E+01  0.72216336452E+01 -0.71168318354E+01  0.11213154564E+02  0.51100000000E-03 0.  1.
        -12    1    3    3    0    0 -0.22440626863E+02  0.13764533640E+02  0.21536429601E+02  0.34012672936E+02  0.00000000000E+00 0.  1.
</event>
<event>
 7    1  0.2838209E-011  0.5052886E+02  0.7816164E-02  0.1300439E+00
        -11   -1    0    0    0    0  0.00000000000E+00  0.00000000000E+00  0.45593999997E+02  0.45594000000E+02  0.51100000000E-03 0. -1.
         11   -1    0    0    0    0 -0.00000000000E+00 -0.00000000000E+00 -0.45593999997E+02  0.45594000000E+02  0.51100000000E-03 0.  1.
    9900012    2    1    2    0    0  0.23115237280E+02 -0.11430479855E+02 -0.31435581236E+02  0.50528857954E+02  0.29999994238E+02 0.  0.
         12    1    1    2    0    0 -0.23115237280E+02  0.11430479855E+02  0.31435581236E+02  0.40659142046E+02  0.00000000000E+00 0. -1.
         11    1    3    3    0    0  0.31645801133E+01  0.41186319375E+01  0.20985090633E+01  0.56019136802E+01  0.51100000000E-03 0. -1.
        -11    1    3    3    0    0 -0.16128496394E+01  0.22693851508E+00  0.45731770884E+00  0.16917224349E+01  0.51100000000E-03 0.  1.
        -12    1    3    3    0    0  0.21563506806E+02 -0.15776050308E+02 -0.33991408008E+02  0.43235221839E+02  0.00000000000E+00 0.  1.
</event>
<event>
 7    1  0.2838209E-011  0.5052885E+02  0.7816164E-02  0.1300439E+00
        -11   -1    0    0    0    0  0.00000000000E+00  0.00000000000E+00  0.45593999997E+02  0.45594000000E+02  0.51100000000E-03 0.  1.
         11   -1    0    0    0    0 -0.00000000000E+00 -0.00000000000E+00 -0.45593999997E+02  0.45594000000E+02  0.51100000000E-03 0. -1.
    9900012    2    1    2    0    0 -0.22283457540E+02 -0.68003988629E+01  0.33322192106E+02  0.50528851074E+02  0.29999973324E+02 0.  0.
         12    1    1    2    0    0  0.22283457540E+02  0.68003988629E+01 -0.33322192106E+02  0.40659148926E+02  0.00000000000E+00 0. -1.
         11    1    3    3    0    0  0.81300726948E+00  0.59321642882E+01  0.76019634446E+01  0.96768487865E+01  0.51100000000E-03 0. -1.
        -11    1    3    3    0    0  0.23681350410E+01 -0.42349458246E+01  0.47157740891E+01  0.67661920775E+01  0.51100000000E-03 0.  1.
         12    1    3    3    0    0 -0.25464599851E+02 -0.84976173266E+01  0.21004454572E+02  0.34085810210E+02  0.00000000000E+00 0. -1.
</event>
<event>
 7    1  0.2838209E-011  0.5052887E+02  0.7816164E-02  0.1300439E+00
        -11   -1    0    0    0    0  0.00000000000E+00  0.00000000000E+00  0.45593999997E+02  0.45594000000E+02  0.51100000000E-03 0.  1.
         11   -1    0    0    0    0 -0.00000000000E+00 -0.00000000000E+00 -0.45593999997E+02  0.45594000000E+02  0.51100000000E-03 0. -1.
    9900012    2    1    2    0    0 -0.32257378576E+02  0.83909853546E+01  0.23285565776E+02  0.50528872103E+02  0.30000037245E+02 0.  0.
         12    1    1    2    0    0  0.32257378576E+02 -0.83909853546E+01 -0.23285565776E+02  0.40659127897E+02  0.00000000000E+00 0. -1.
         11    1    3    3    0    0 -0.62748598546E+01  0.57852576172E+01 -0.21191052965E+01  0.87939569825E+01  0.51100000000E-03 0. -1.
        -11    1    3    3    0    0 -0.98853644606E+01  0.66031270239E+01  0.60916680659E+00  0.11903478545E+02  0.51100000000E-03 0.  1.
        -12    1    3    3    0    0 -0.16097154261E+02 -0.39973992865E+01  0.24795504266E+02  0.29831436576E+02  0.00000000000E+00 0.  1.
</event>
<event>
 7    1  0.2838209E-011  0.5052886E+02  0.7816164E-02  0.1300439E+00
        -11   -1    0    0    0    0  0.00000000000E+00  0.00000000000E+00  0.45593999997E+02  0.45594000000E+02  0.51100000000E-03 0.  1.
         11   -1    0    0    0    0 -0.00000000000E+00 -0.00000000000E+00 -0.45593999997E+02  0.45594000000E+02  0.51100000000E-03 0. -1.
    9900012    2    1    2    0    0 -0.36141218541E+02  0.46216536972E+01  0.18044895926E+02  0.50528860443E+02  0.30000001804E+02 0.  0.
         12    1    1    2    0    0  0.36141218541E+02 -0.46216536972E+01 -0.18044895926E+02  0.40659139557E+02  0.00000000000E+00 0. -1.
         11    1    3    3    0    0 -0.34338119784E+01  0.31123461309E+01  0.27273166614E-01  0.46344910430E+01  0.51100000000E-03 0. -1.
        -11    1    3    3    0    0 -0.24144435341E+02  0.12946762400E+02  0.83410438866E+01  0.28638181296E+02  0.51100000000E-03 0.  1.
         12    1    3    3    0    0 -0.85629712208E+01 -0.11437454833E+02  0.96765788729E+01  0.17256188104E+02  0.00000000000E+00 0. -1.
</event>
<event>
 7    1  0.2838209E-011  0.5052885E+02  0.7816164E-02  0.1300439E+00
        -11   -1    0    0    0    0  0.00000000000E+00  0.00000000000E+00  0.45593999997E+02  0.45594000000E+02  0.51100000000E-03 0. -1.
         11   -1    0    0    0    0 -0.00000000000E+00 -0.00000000000E+00 -0.45593999997E+02  0.45594000000E+02  0.51100000000E-03 0.  1.
    9900012    2    1    2    0    0 -0.19389831309E+02  0.21223515307E+02 -0.28753486482E+02  0.50528854103E+02  0.29999982532E+02 0.  0.
         12    1    1    2    0    0  0.19389831309E+02 -0.21223515307E+02  0.28753486482E+02  0.40659145897E+02  0.00000000000E+00 0. -1.
         11    1    3    3    0    0  0.12148970721E+01  0.33892224847E+01  0.17313928961E+01  0.39950626489E+01  0.51100000000E-03 0. -1.
        -11    1    3    3    0    0 -0.23565549959E+01  0.14928091495E+02 -0.20685013520E+02  0.25617787799E+02  0.51100000000E-03 0.  1.
        -12    1    3    3    0    0 -0.18248173386E+02  0.29062013272E+01 -0.97998658586E+01  0.20916003655E+02  0.00000000000E+00 0.  1.
</event>
<event>
 7    1  0.2838209E-011  0.5052885E+02  0.7816164E-02  0.1300439E+00
        -11   -1    0    0    0    0  0.00000000000E+00  0.00000000000E+00  0.45593999997E+02  0.45594000000E+02  0.51100000000E-03 0. -1.
         11   -1    0    0    0    0 -0.00000000000E+00 -0.00000000000E+00 -0.45593999997E+02  0.45594000000E+02  0.51100000000E-03 0.  1.
    9900012    2    1    2    0    0 -0.18136022220E+02  0.86131537132E+01 -0.35356252884E+02  0.50528851745E+02  0.29999975364E+02 0.  0.
         12    1    1    2    0    0  0.18136022220E+02 -0.86131537132E+01  0.35356252884E+02  0.40659148255E+02  0.00000000000E+00 0. -1.
         11    1    3    3    0    0 -0.23470509057E+01 -0.56506746752E+01 -0.13472175081E+02  0.14796562909E+02  0.51100000000E-03 0. -1.
        -11    1    3    3    0    0 -0.74047268799E+00 -0.38409952725E+01 -0.65732794499E+01  0.76491533827E+01  0.51100000000E-03 0.  1.
        -12    1    3    3    0    0 -0.15048498627E+02  0.18104823661E+02 -0.15310798353E+02  0.28083135453E+02  0.00000000000E+00 0.  1.
</event>
<event>
 7    1  0.2838209E-011  0.5052884E+02  0.7816164E-02  0.1300439E+00
        -11   -1    0    0    0    0  0.00000000000E+00  0.00000000000E+00  0.45593999997E+02  0.45594000000E+02  0.51100000000E-03 0.  1.
         11   -1    0    0    0    0 -0.00000000000E+00 -0.00000000000E+00 -0.45593999997E+02  0.45594000000E+02  0.51100000000E-03 0. -1.
    9900012    2    1    2    0    0 -0.79482687602E+01 -0.72426032889E+01  0.39211435786E+02  0.50528843896E+02  0.29999951507E+02 0.  0.
         12    1    1    2    0    0  0.79482687602E+01  0.72426032889E+01 -0.39211435786E+02  0.40659156104E+02  0.00000000000E+00 0. -1.
         11    1    3    3    0    0 -0.65006443082E+01  0.35100098043E+01  0.16179014853E+02  0.17785923285E+02  0.51100000000E-03 0. -1.
        -11    1    3    3    0    0  0.83436959646E+01 -0.31815390228E+01  0.16466979633E+02  0.18732348262E+02  0.51100000000E-03 0.  1.
         12    1    3    3    0    0 -0.97913204166E+01 -0.75710740704E+01  0.65654413001E+01  0.14010572349E+02  0.00000000000E+00 0. -1.
</event>
<event>
 7    1  0.3769499E-011  0.5052886E+02  0.7816164E-02  0.1300439E+00
        -11   -1    0    0    0    0  0.00000000000E+00  0.00000000000E+00  0.45593999997E+02  0.45594000000E+02  0.51100000000E-03 0. -1.
         11   -1    0    0    0    0 -0.00000000000E+00 -0.00000000000E+00 -0.45593999997E+02  0.45594000000E+02  0.51100000000E-03 0.  1.
    9900012    2    1    2    0    0  0.68488531545E+01 -0.24094681278E+02 -0.32026629805E+02  0.50528862379E+02  0.30000007687E+02 0.  0.
         12    1    1    2    0    0 -0.68488531545E+01  0.24094681278E+02  0.32026629805E+02  0.40659137621E+02  0.00000000000E+00 0. -1.
         11    1    3    3    0    0  0.22684199860E+01  0.25654461860E+01  0.55431749381E+00  0.34690793463E+01  0.51100000000E-03 0. -1.
        -11    1    3    3    0    0  0.71023857485E+01 -0.49166234451E+01 -0.10872765384E+01  0.87062758947E+01  0.51100000000E-03 0.  1.
        -12    1    3    3    0    0 -0.25219525800E+01 -0.21743504019E+02 -0.31493670760E+02  0.38353507138E+02  0.00000000000E+00 0.  1.
</event>
<event>
 7    1  0.2838209E-011  0.5052885E+02  0.7816164E-02  0.1300439E+00
        -11   -1    0    0    0    0  0.00000000000E+00  0.00000000000E+00  0.45593999997E+02  0.45594000000E+02  0.51100000000E-03 0. -1.
         11   -1    0    0    0    0 -0.00000000000E+00 -0.00000000000E+00 -0.45593999997E+02  0.45594000000E+02  0.51100000000E-03 0.  1.
    9900012    2    1    2    0    0 -0.28217317434E+02  0.29247306705E+02 -0.12427203664E+01  0.50528852117E+02  0.29999976494E+02 0.  0.
         12    1    1    2    0    0  0.28217317434E+02 -0.29247306705E+02  0.12427203664E+01  0.40659147883E+02  0.00000000000E+00 0. -1.
         11    1    3    3    0    0  0.18891421196E+01 -0.14714271652E+01 -0.34002291565E+01  0.41587876152E+01  0.51100000000E-03 0. -1.
        -11    1    3    3    0    0 -0.18125098134E+02  0.18013744132E+02 -0.72114735032E+01  0.26552203494E+02  0.51100000000E-03 0.  1.
        -12    1    3    3    0    0 -0.11981361420E+02  0.12704989738E+02  0.93689822933E+01  0.19817861008E+02  0.00000000000E+00 0.  1.
</event>
<event>
 7    1  0.2838209E-011  0.5052886E+02  0.7816164E-02  0.1300439E+00
        -11   -1    0    0    0    0  0.00000000000E+00  0.00000000000E+00  0.45593999997E+02  0.45594000000E+02  0.51100000000E-03 0. -1.
         11   -1    0    0    0    0 -0.00000000000E+00 -0.00000000000E+00 -0.45593999997E+02  0.45594000000E+02  0.51100000000E-03 0.  1.
    9900012    2    1    2    0    0 -0.84640233874E+01  0.35792013536E+02 -0.17333718381E+02  0.50528859357E+02  0.29999998502E+02 0.  0.
         12    1    1    2    0    0  0.84640233874E+01 -0.35792013536E+02  0.17333718381E+02  0.40659140643E+02  0.00000000000E+00 0. -1.
         11    1    3    3    0    0 -0.90547665157E+01  0.12825564350E+02  0.22515840640E+01  0.15860439105E+02  0.51100000000E-03 0. -1.
        -11    1    3    3    0    0 -0.51986130765E+01  0.12641476852E+01 -0.84592826264E+00  0.54165710718E+01  0.51100000000E-03 0.  1.
        -12    1    3    3    0    0  0.57893562048E+01  0.21702301501E+02 -0.18739374182E+02  0.29251849180E+02  0.00000000000E+00 0.  1.
</event>
<event>
 7    1  0.2838209E-011  0.5052886E+02  0.7816164E-02  0.1300439E+00
        -11   -1    0    0    0    0  0.00000000000E+00  0.00000000000E+00  0.45593999997E+02  0.45594000000E+02  0.51100000000E-03 0.  1.
         11   -1    0    0    0    0 -0.00000000000E+00 -0.00000000000E+00 -0.45593999997E+02  0.45594000000E+02  0.51100000000E-03 0. -1.
    9900012    2    1    2    0    0 -0.34346803479E+02 -0.12112992403E+02  0.18075903400E+02  0.50528858618E+02  0.29999996256E+02 0.  0.
         12    1    1    2    0    0  0.34346803479E+02  0.12112992403E+02 -0.18075903400E+02  0.40659141382E+02  0.00000000000E+00 0. -1.
         11    1    3    3    0    0 -0.57451912192E+01 -0.26816250475E+01  0.80736321491E+01  0.10265567270E+02  0.51100000000E-03 0. -1.
        -11    1    3    3    0    0 -0.21735492899E+02 -0.13208065956E+02  0.16300995568E+02  0.30209387856E+02  0.51100000000E-03 0.  1.
         12    1    3    3    0    0 -0.68661193609E+01  0.37766986006E+01 -0.62987243175E+01  0.10053903492E+02  0.00000000000E+00 0. -1.
</event>
<event>
 7    1  0.3266013E-011  0.5052886E+02  0.7816164E-02  0.1300439E+00
        -11   -1    0    0    0    0  0.00000000000E+00  0.00000000000E+00  0.45593999997E+02  0.45594000000E+02  0.51100000000E-03 0.  1.
         11   -1    0    0    0    0 -0.00000000000E+00 -0.00000000000E+00 -0.45593999997E+02  0.45594000000E+02  0.51100000000E-03 0. -1.
    9900012    2    1    2    0    0  0.24449152323E+02 -0.32248161909E+02 -0.39319773455E+01  0.50528862753E+02  0.30000008824E+02 0.  0.
         12    1    1    2    0    0 -0.24449152323E+02  0.32248161909E+02  0.39319773455E+01  0.40659137247E+02  0.00000000000E+00 0. -1.
         11    1    3    3    0    0 -0.17213358635E+01  0.14310687432E+01 -0.30696895872E+01  0.37992037752E+01  0.51100000000E-03 0. -1.
        -11    1    3    3    0    0 -0.22998692318E+01 -0.80076007785E+01 -0.10240928723E+01  0.83940356911E+01  0.51100000000E-03 0.  1.
        -12    1    3    3    0    0  0.28470357418E+02 -0.25671629874E+02  0.16180511410E+00  0.38335623287E+02  0.00000000000E+00 0.  1.
</event>
<event>
 7    1  0.2838209E-011  0.5052886E+02  0.7816164E-02  0.1300439E+00
        -11   -1    0    0    0    0  0.00000000000E+00  0.00000000000E+00  0.45593999997E+02  0.45594000000E+02  0.51100000000E-03 0. -1.
         11   -1    0    0    0    0 -0.00000000000E+00 -0.00000000000E+00 -0.45593999997E+02  0.45594000000E+02  0.51100000000E-03 0.  1.
    9900012    2    1    2    0    0 -0.14063425392E+02 -0.36040686159E+02 -0.12508178091E+02  0.50528861892E+02  0.30000006206E+02 0.  0.
         12    1    1    2    0    0  0.14063425392E+02  0.36040686159E+02  0.12508178091E+02  0.40659138108E+02  0.00000000000E+00 0. -1.
         11    1    3    3    0    0  0.89967024336E+00 -0.15722776357E+02  0.31073049397E+01  0.16052116595E+02  0.51100000000E-03 0. -1.
        -11    1    3    3    0    0 -0.21111445635E+01 -0.14743934275E+02 -0.21552273321E+01  0.15049436348E+02  0.51100000000E-03 0.  1.
        -12    1    3    3    0    0 -0.12851951072E+02 -0.55739755266E+01 -0.13460255699E+02  0.19427308949E+02  0.00000000000E+00 0.  1.
</event>
<event>
 7    1  0.2838209E-011  0.5052887E+02  0.7816164E-02  0.1300439E+00
        -11   -1    0    0    0    0  0.00000000000E+00  0.00000000000E+00  0.45593999997E+02  0.45594000000E+02  0.51100000000E-03 0. -1.
         11   -1    0    0    0    0 -0.00000000000E+00 -0.00000000000E+00 -0.45593999997E+02  0.45594000000E+02  0.51100000000E-03 0.  1.
    9900012    2    1    2    0    0 -0.19375819175E+02 -0.20273074897E+02 -0.29440537656E+02  0.50528865824E+02  0.30000018159E+02 0.  0.
         12    1    1    2    0    0  0.19375819175E+02  0.20273074897E+02  0.29440537656E+02  0.40659134176E+02  0.00000000000E+00 0. -1.
         11    1    3    3    0    0 -0.45715741188E+01  0.52252478963E+01  0.11329756760E+01  0.70346385582E+01  0.51100000000E-03 0. -1.
        -11    1    3    3    0    0 -0.18483887126E+01  0.38381101041E+00 -0.28259948171E+01  0.33985436133E+01  0.51100000000E-03 0.  1.
        -12    1    3    3    0    0 -0.12955856343E+02 -0.25882133804E+02 -0.27747518515E+02  0.40095683652E+02  0.00000000000E+00 0.  1.
</event>
<event>
 7    1  0.2838209E-011  0.5052887E+02  0.7816164E-02  0.1300439E+00
        -11   -1    0    0    0    0  0.00000000000E+00  0.00000000000E+00  0.45593999997E+02  0.45594000000E+02  0.51100000000E-03 0.  1.
         11   -1    0    0    0    0 -0.00000000000E+00 -0.00000000000E+00 -0.45593999997E+02  0.45594000000E+02  0.51100000000E-03 0. -1.
    9900012    2    1    2    0    0  0.22821975223E+02  0.36264958201E+01  0.33454013188E+02  0.50528867897E+02  0.30000024459E+02 0.  0.
         12    1    1    2    0    0 -0.22821975223E+02 -0.36264958201E+01 -0.33454013188E+02  0.40659132103E+02  0.00000000000E+00 0. -1.
         11    1    3    3    0    0  0.86045876404E+01 -0.24372246622E+01  0.22906636841E+01  0.92318000894E+01  0.51100000000E-03 0. -1.
        -11    1    3    3    0    0 -0.11081241808E+01 -0.64327187799E+01  0.12521593648E+02  0.14120839842E+02  0.51100000000E-03 0.  1.
         12    1    3    3    0    0  0.15325511764E+02  0.12496439262E+02  0.18641755856E+02  0.27176227966E+02  0.00000000000E+00 0. -1.
</event>
<event>
 7    1  0.2838209E-011  0.5052885E+02  0.7816164E-02  0.1300439E+00
        -11   -1    0    0    0    0  0.00000000000E+00  0.00000000000E+00  0.45593999997E+02  0.45594000000E+02  0.51100000000E-03 0. -1.
         11   -1    0    0    0    0 -0.00000000000E+00 -0.00000000000E+00 -0.45593999997E+02  0.45594000000E+02  0.51100000000E-03 0.  1.
    9900012    2    1    2    0    0 -0.22481061396E+02  0.25261695062E+02 -0.22574654548E+02  0.50528851130E+02  0.29999973495E+02 0.  0.
         12    1    1    2    0    0  0.22481061396E+02 -0.25261695062E+02  0.22574654548E+02  0.40659148870E+02  0.00000000000E+00 0. -1.
         11    1    3    3    0    0 -0.12827588330E+02  0.20896278306E+01 -0.12471483460E+02  0.18012536379E+02  0.51100000000E-03 0.  1.
        -11    1    3    3    0    0 -0.98810639886E+01  0.25290728396E+02 -0.11978954792E+02  0.29677461591E+02  0.51100000000E-03 0. -1.
         12    1    3    3    0    0  0.22759092251E+00 -0.21186611648E+01  0.18757837045E+01  0.28388531602E+01  0.00000000000E+00 0. -1.
</event>
<event>
 7    1  0.2838209E-011  0.5052886E+02  0.7816164E-02  0.1300439E+00
        -11   -1    0    0    0    0  0.00000000000E+00  0.00000000000E+00  0.45593999997E+02  0.45594000000E+02  0.51100000000E-03 0.  1.
         11   -1    0    0    0    0 -0.00000000000E+00 -0.00000000000E+00 -0.45593999997E+02  0.45594000000E+02  0.51100000000E-03 0. -1.
    9900012    2    1    2    0    0 -0.95622326278E+01 -0.31077450252E+02  0.24411498136E+02  0.50528862672E+02  0.30000008577E+02 0.  0.
         12    1    1    2    0    0  0.95622326278E+01  0.31077450252E+02 -0.24411498136E+02  0.40659137328E+02  0.00000000000E+00 0. -1.
         11    1    3    3    0    0 -0.82598445807E+01 -0.73173206121E+00  0.25048390075E+01  0.86622562315E+01  0.51100000000E-03 0. -1.
        -11    1    3    3    0    0 -0.68355195392E+01 -0.52146230248E+01  0.10889529499E+02  0.13874381919E+02  0.51100000000E-03 0.  1.
        -12    1    3    3    0    0  0.55331314920E+01 -0.25131095166E+02  0.11017129630E+02  0.27992224521E+02  0.00000000000E+00 0.  1.
</event>
<event>
 7    1  0.2838209E-011  0.5052886E+02  0.7816164E-02  0.1300439E+00
        -11   -1    0    0    0    0  0.00000000000E+00  0.00000000000E+00  0.45593999997E+02  0.45594000000E+02  0.51100000000E-03 0. -1.
         11   -1    0    0    0    0 -0.00000000000E+00 -0.00000000000E+00 -0.45593999997E+02  0.45594000000E+02  0.51100000000E-03 0.  1.
    9900012    2    1    2    0    0 -0.29321796143E+02  0.19926477249E+02 -0.19908116386E+02  0.50528864217E+02  0.30000013273E+02 0.  0.
         12    1    1    2    0    0  0.29321796143E+02 -0.19926477249E+02  0.19908116386E+02  0.40659135783E+02  0.00000000000E+00 0. -1.
         11    1    3    3    0    0 -0.23492094586E+02  0.91295973189E+01 -0.41505799827E+01  0.25543205940E+02  0.51100000000E-03 0. -1.
        -11    1    3    3    0    0 -0.94537349979E+01  0.31736242330E+01 -0.45658783409E+01  0.10967781976E+02  0.51100000000E-03 0.  1.
         12    1    3    3    0    0  0.36240334406E+01  0.76232556973E+01 -0.11191658062E+02  0.14017876301E+02  0.00000000000E+00 0. -1.
</event>
<event>
 7    1  0.2838209E-011  0.5052885E+02  0.7816164E-02  0.1300439E+00
        -11   -1    0    0    0    0  0.00000000000E+00  0.00000000000E+00  0.45593999997E+02  0.45594000000E+02  0.51100000000E-03 0. -1.
         11   -1    0    0    0    0 -0.00000000000E+00 -0.00000000000E+00 -0.45593999997E+02  0.45594000000E+02  0.51100000000E-03 0.  1.
    9900012    2    1    2    0    0  0.32496039614E+02 -0.13155622759E+02 -0.20593763053E+02  0.50528854935E+02  0.29999985059E+02 0.  0.
         12    1    1    2    0    0 -0.32496039614E+02  0.13155622759E+02  0.20593763053E+02  0.40659145065E+02  0.00000000000E+00 0. -1.
         11    1    3    3    0    0  0.64862936952E+01  0.44986988837E+01 -0.17749080168E+01  0.80907722917E+01  0.51100000000E-03 0. -1.
        -11    1    3    3    0    0  0.75508183458E+01  0.47309084912E+01 -0.58359320913E+01  0.10651500199E+02  0.51100000000E-03 0.  1.
        -12    1    3    3    0    0  0.18458927573E+02 -0.22385230134E+02 -0.12982922945E+02  0.31786582444E+02  0.00000000000E+00 0.  1.
</event>
<event>
 7    1  0.2838209E-011  0.5052891E+02  0.7816164E-02  0.1300439E+00
        -11   -1    0    0    0    0  0.00000000000E+00  0.00000000000E+00  0.45593999997E+02  0.45594000000E+02  0.51100000000E-03 0.  1.
         11   -1    0    0    0    0 -0.00000000000E+00 -0.00000000000E+00 -0.45593999997E+02  0.45594000000E+02  0.51100000000E-03 0. -1.
    9900012    2    1    2    0    0 -0.91755055017E+01 -0.37777170389E+02  0.11910376813E+02  0.50528910245E+02  0.30000153181E+02 0.  0.
         12    1    1    2    0    0  0.91755055017E+01  0.37777170389E+02 -0.11910376813E+02  0.40659089755E+02  0.00000000000E+00 0. -1.
         11    1    3    3    0    0 -0.47017350122E+01 -0.53158132546E+01 -0.10300320459E+01  0.71711330317E+01  0.51100000000E-03 0. -1.
        -11    1    3    3    0    0 -0.23800634636E+01 -0.19635307264E+02 -0.57458178280E+01  0.20596708868E+02  0.51100000000E-03 0.  1.
        -12    1    3    3    0    0 -0.20937070260E+01 -0.12826049871E+02  0.18686226687E+02  0.22761068345E+02  0.00000000000E+00 0.  1.
</event>
<event>
 7    1  0.2838209E-011  0.5052880E+02  0.7816164E-02  0.1300439E+00
        -11   -1    0    0    0    0  0.00000000000E+00  0.00000000000E+00  0.45593999997E+02  0.45594000000E+02  0.51100000000E-03 0. -1.
         11   -1    0    0    0    0 -0.00000000000E+00 -0.00000000000E+00 -0.45593999997E+02  0.45594000000E+02  0.51100000000E-03 0.  1.
    9900012    2    1    2    0    0  0.22551682975E+02 -0.33177497069E+02 -0.66215900490E+01  0.50528804588E+02  0.29999832026E+02 0.  0.
         12    1    1    2    0    0 -0.22551682975E+02  0.33177497069E+02  0.66215900490E+01  0.40659195412E+02  0.00000000000E+00 0. -1.
         11    1    3    3    0    0 -0.38093933608E+01 -0.11903079605E+02  0.16346233258E+01  0.12604236412E+02  0.51100000000E-03 0. -1.
        -11    1    3    3    0    0  0.24495511135E+01 -0.10495199644E+02 -0.27820286987E+01  0.11130552555E+02  0.51100000000E-03 0.  1.
        -12    1    3    3    0    0  0.23911525222E+02 -0.10779217820E+02 -0.54741846761E+01  0.26794015621E+02  0.00000000000E+00 0.  1.
</event>
<event>
 7    1  0.2838209E-011  0.5052884E+02  0.7816164E-02  0.1300439E+00
        -11   -1    0    0    0    0  0.00000000000E+00  0.00000000000E+00  0.45593999997E+02  0.45594000000E+02  0.51100000000E-03 0. -1.
         11   -1    0    0    0    0 -0.00000000000E+00 -0.00000000000E+00 -0.45593999997E+02  0.45594000000E+02  0.51100000000E-03 0.  1.
    9900012    2    1    2    0    0 -0.86728570934E+01  0.18307201469E+02 -0.35253296754E+02  0.50528843494E+02  0.29999950283E+02 0.  0.
         12    1    1    2    0    0  0.86728570934E+01 -0.18307201469E+02  0.35253296754E+02  0.40659156506E+02  0.00000000000E+00 0. -1.
         11    1    3    3    0    0  0.99782078362E+00  0.10341374141E+02 -0.56667720754E+01  0.11834355557E+02  0.51100000000E-03 0. -1.
        -11    1    3    3    0    0 -0.35281802142E+01 -0.44866245291E+01  0.32539444633E+00  0.57169692229E+01  0.51100000000E-03 0.  1.
        -12    1    3    3    0    0 -0.61424976629E+01  0.12452451858E+02 -0.29911919125E+02  0.32977518714E+02  0.00000000000E+00 0.  1.
</event>
<event>
 7    1  0.2838209E-011  0.5052885E+02  0.7816164E-02  0.1300439E+00
        -11   -1    0    0    0    0  0.00000000000E+00  0.00000000000E+00  0.45593999997E+02  0.45594000000E+02  0.51100000000E-03 0. -1.
         11   -1    0    0    0    0 -0.00000000000E+00 -0.00000000000E+00 -0.45593999997E+02  0.45594000000E+02  0.51100000000E-03 0.  1.
    9900012    2    1    2    0    0  0.38435142578E+02 -0.27457369422E+01  0.12975627735E+02  0.50528853778E+02  0.29999981545E+02 0.  0.
         12    1    1    2    0    0 -0.38435142578E+02  0.27457369422E+01 -0.12975627735E+02  0.40659146222E+02  0.00000000000E+00 0. -1.
         11    1    3    3    0    0  0.53849911236E+00 -0.21978098868E+01  0.40120492983E+01  0.46061794826E+01  0.51100000000E-03 0. -1.
        -11    1    3    3    0    0  0.56134317247E+00 -0.50602687608E+01 -0.36413551297E+01  0.62594643166E+01  0.51100000000E-03 0.  1.
        -12    1    3    3    0    0  0.37335300293E+02  0.45123417053E+01  0.12604933566E+02  0.39663209979E+02  0.00000000000E+00 0.  1.
</event>
<event>
 7    1  0.2838209E-011  0.5052886E+02  0.7816164E-02  0.1300439E+00
        -11   -1    0    0    0    0  0.00000000000E+00  0.00000000000E+00  0.45593999997E+02  0.45594000000E+02  0.51100000000E-03 0. -1.
         11   -1    0    0    0    0 -0.00000000000E+00 -0.00000000000E+00 -0.45593999997E+02  0.45594000000E+02  0.51100000000E-03 0.  1.
    9900012    2    1    2    0    0  0.36191213352E+02  0.21678245835E+01 -0.18402779730E+02  0.50528859710E+02  0.29999999575E+02 0.  0.
         12    1    1    2    0    0 -0.36191213352E+02 -0.21678245835E+01  0.18402779730E+02  0.40659140290E+02  0.00000000000E+00 0. -1.
         11    1    3    3    0    0  0.29085238245E+02 -0.12694480687E+01 -0.43770268210E+01  0.29440124766E+02  0.51100000000E-03 0. -1.
        -11    1    3    3    0    0  0.52899231566E+01 -0.43985992111E+01 -0.31626961496E+01  0.75718960122E+01  0.51100000000E-03 0.  1.
         12    1    3    3    0    0  0.18160519499E+01  0.78358718633E+01 -0.10863056760E+02  0.13516838932E+02  0.00000000000E+00 0. -1.
</event>
<event>
 7    1  0.2838209E-011  0.5052886E+02  0.7816164E-02  0.1300439E+00
        -11   -1    0    0    0    0  0.00000000000E+00  0.00000000000E+00  0.45593999997E+02  0.45594000000E+02  0.51100000000E-03 0.  1.
         11   -1    0    0    0    0 -0.00000000000E+00 -0.00000000000E+00 -0.45593999997E+02  0.45594000000E+02  0.51100000000E-03 0. -1.
    9900012    2    1    2    0    0  0.29787278092E+02 -0.21003878702E+02  0.18020015205E+02  0.50528858289E+02  0.29999995256E+02 0.  0.
         12    1    1    2    0    0 -0.29787278092E+02  0.21003878702E+02 -0.18020015205E+02  0.40659141711E+02  0.00000000000E+00 0. -1.
         11    1    3    3    0    0  0.53683548904E+01 -0.19989981322E+02  0.60008540939E+01  0.21550611073E+02  0.51100000000E-03 0. -1.
        -11    1    3    3    0    0  0.17249954818E+01 -0.26929833557E+01  0.33376053541E+01  0.46224861846E+01  0.51100000000E-03 0.  1.
        -12    1    3    3    0    0  0.22693927720E+02  0.16790859765E+01  0.86815557569E+01  0.24355761032E+02  0.00000000000E+00 0.  1.
</event>
<event>
 7    1  0.2838209E-011  0.5052887E+02  0.7816164E-02  0.1300439E+00
        -11   -1    0    0    0    0  0.00000000000E+00  0.00000000000E+00  0.45593999997E+02  0.45594000000E+02  0.51100000000E-03 0.  1.
         11   -1    0    0    0    0 -0.00000000000E+00 -0.00000000000E+00 -0.45593999997E+02  0.45594000000E+02  0.51100000000E-03 0. -1.
    9900012    2    1    2    0    0  0.38672950221E+00  0.24687517498E+02  0.32303893950E+02  0.50528872559E+02  0.30000038631E+02 0.  0.
         12    1    1    2    0    0 -0.38672950221E+00 -0.24687517498E+02 -0.32303893950E+02  0.40659127441E+02  0.00000000000E+00 0. -1.
         11    1    3    3    0    0  0.33695528240E+01  0.15772687860E+01  0.10969767308E+02  0.11583499390E+02  0.51100000000E-03 0. -1.
        -11    1    3    3    0    0 -0.79863987853E+01  0.15577603399E+02  0.23825745095E+02  0.29565358492E+02  0.51100000000E-03 0.  1.
         12    1    3    3    0    0  0.50035754635E+01  0.75326453131E+01 -0.24916184525E+01  0.93800146772E+01  0.00000000000E+00 0. -1.
</event>
<event>
 7    1  0.2838209E-011  0.5052887E+02  0.7816164E-02  0.1300439E+00
        -11   -1    0    0    0    0  0.00000000000E+00  0.00000000000E+00  0.45593999997E+02  0.45594000000E+02  0.51100000000E-03 0. -1.
         11   -1    0    0    0    0 -0.00000000000E+00 -0.00000000000E+00 -0.45593999997E+02  0.45594000000E+02  0.51100000000E-03 0.  1.
    9900012    2    1    2    0    0  0.34464928638E+02 -0.83873548636E+01 -0.19874253674E+02  0.50528868347E+02  0.30000025829E+02 0.  0.
         12    1    1    2    0    0 -0.34464928638E+02  0.83873548636E+01  0.19874253674E+02  0.40659131653E+02  0.00000000000E+00 0. -1.
         11    1    3    3    0    0 -0.15717997266E+01  0.31470116912E+00 -0.62889282316E+01  0.64900084568E+01  0.51100000000E-03 0. -1.
        -11    1    3    3    0    0  0.10555426509E+02  0.41713684297E+01 -0.10255357743E+02  0.15296722069E+02  0.51100000000E-03 0.  1.
        -12    1    3    3    0    0  0.25481301856E+02 -0.12873424462E+02 -0.33299676992E+01  0.28742137822E+02  0.00000000000E+00 0.  1.
</event>
<event>
 7    1  0.2838209E-011  0.5052885E+02  0.7816164E-02  0.1300439E+00
        -11   -1    0    0    0    0  0.00000000000E+00  0.00000000000E+00  0.45593999997E+02  0.45594000000E+02  0.51100000000E-03 0.  1.
         11   -1    0    0    0    0 -0.00000000000E+00 -0.00000000000E+00 -0.45593999997E+02  0.45594000000E+02  0.51100000000E-03 0. -1.
    9900012    2    1    2    0    0  0.18190801686E+02  0.20720797405E+02 -0.29881599405E+02  0.50528847352E+02  0.29999962011E+02 0.  0.
         12    1    1    2    0    0 -0.18190801686E+02 -0.20720797405E+02  0.29881599405E+02  0.40659152648E+02  0.00000000000E+00 0. -1.
         11    1    3    3    0    0  0.24748255917E+00  0.41637854487E+01 -0.36858255231E+01  0.55662974164E+01  0.51100000000E-03 0. -1.
        -11    1    3    3    0    0  0.44396609187E+01  0.17944111007E+02 -0.25333321927E+02  0.31360467296E+02  0.51100000000E-03 0.  1.
        -12    1    3    3    0    0  0.13503658208E+02 -0.13870990503E+01 -0.86245195452E+00  0.13602082640E+02  0.00000000000E+00 0.  1.
</event>
<event>
 7    1  0.2838209E-011  0.5052886E+02  0.7816164E-02  0.1300439E+00
        -11   -1    0    0    0    0  0.00000000000E+00  0.00000000000E+00  0.45593999997E+02  0.45594000000E+02  0.51100000000E-03 0. -1.
         11   -1    0    0    0    0 -0.00000000000E+00 -0.00000000000E+00 -0.45593999997E+02  0.45594000000E+02  0.51100000000E-03 0.  1.
    9900012    2    1    2    0    0  0.32390591876E+02 -0.22317723564E+02  0.10292449438E+02  0.50528859053E+02  0.29999997576E+02 0.  0.
         12    1    1    2    0    0 -0.32390591876E+02  0.22317723564E+02 -0.10292449438E+02  0.40659140947E+02  0.00000000000E+00 0. -1.
         11    1    3    3    0    0  0.18550066517E+02 -0.11550478829E+02  0.13036960291E+02  0.25445645263E+02  0.51100000000E-03 0. -1.
        -11    1    3    3    0    0  0.10678614579E+02 -0.78506416728E+00  0.52346868162E+01  0.11918518423E+02  0.51100000000E-03 0.  1.
        -12    1    3    3    0    0  0.31619107799E+01 -0.99821805683E+01 -0.79791976686E+01  0.13164695367E+02  0.00000000000E+00 0.  1.
</event>
<event>
 7    1  0.2838209E-011  0.5052886E+02  0.7816164E-02  0.1300439E+00
        -11   -1    0    0    0    0  0.00000000000E+00  0.00000000000E+00  0.45593999997E+02  0.45594000000E+02  0.51100000000E-03 0.  1.
         11   -1    0    0    0    0 -0.00000000000E+00 -0.00000000000E+00 -0.45593999997E+02  0.45594000000E+02  0.51100000000E-03 0. -1.
    9900012    2    1    2    0    0  0.33290289909E+02 -0.23315819128E+02 -0.11379019126E+01  0.50528860258E+02  0.30000001239E+02 0.  0.
         12    1    1    2    0    0 -0.33290289909E+02  0.23315819128E+02  0.11379019126E+01  0.40659139742E+02  0.00000000000E+00 0. -1.
         11    1    3    3    0    0  0.17525722116E+02 -0.13444349136E+02  0.55653416958E+01  0.22778816647E+02  0.51100000000E-03 0. -1.
        -11    1    3    3    0    0  0.67126811954E+01 -0.12865784025E+02  0.22331187791E+01  0.14682483003E+02  0.51100000000E-03 0.  1.
        -12    1    3    3    0    0  0.90518865972E+01  0.29943140330E+01 -0.89363623875E+01  0.13067560607E+02  0.00000000000E+00 0.  1.
</event>
<event>
 7    1  0.2838209E-011  0.5052886E+02  0.7816164E-02  0.1300439E+00
        -11   -1    0    0    0    0  0.00000000000E+00  0.00000000000E+00  0.45593999997E+02  0.45594000000E+02  0.51100000000E-03 0.  1.
         11   -1    0    0    0    0 -0.00000000000E+00 -0.00000000000E+00 -0.45593999997E+02  0.45594000000E+02  0.51100000000E-03 0. -1.
    9900012    2    1    2    0    0 -0.29235169170E+02  0.21780272800E+02  0.18002499062E+02  0.50528863608E+02  0.30000011423E+02 0.  0.
         12    1    1    2    0    0  0.29235169170E+02 -0.21780272800E+02 -0.18002499062E+02  0.40659136392E+02  0.00000000000E+00 0. -1.
         11    1    3    3    0    0 -0.18477964002E+02  0.99075845489E+01  0.60097242435E+01  0.21810826922E+02  0.51100000000E-03 0. -1.
        -11    1    3    3    0    0 -0.13010717280E+02 -0.22397380104E+00  0.26783919945E+01  0.13285432336E+02  0.51100000000E-03 0.  1.
         12    1    3    3    0    0  0.22535121121E+01  0.12096662052E+02  0.93143828242E+01  0.15432604350E+02  0.00000000000E+00 0. -1.
</event>
<event>
 7    1  0.2838209E-011  0.5052886E+02  0.7816164E-02  0.1300439E+00
        -11   -1    0    0    0    0  0.00000000000E+00  0.00000000000E+00  0.45593999997E+02  0.45594000000E+02  0.51100000000E-03 0.  1.
         11   -1    0    0    0    0 -0.00000000000E+00 -0.00000000000E+00 -0.45593999997E+02  0.45594000000E+02  0.51100000000E-03 0. -1.
    9900012    2    1    2    0    0 -0.15881108428E+02 -0.34177781146E+02  0.15258941044E+02  0.50528860674E+02  0.30000002504E+02 0.  0.
         12    1    1    2    0    0  0.15881108428E+02  0.34177781146E+02 -0.15258941044E+02  0.40659139326E+02  0.00000000000E+00 0. -1.
         11    1    3    3    0    0  0.38245395913E+01  0.31363977701E+01  0.17961047825E+01  0.52621370857E+01  0.51100000000E-03 0. -1.
        -11    1    3    3    0    0 -0.81860109354E+01 -0.20936273464E+02  0.30137229767E+01  0.22680847604E+02  0.51100000000E-03 0.  1.
        -12    1    3    3    0    0 -0.11519637084E+02 -0.16377905452E+02  0.10449113285E+02  0.22585875984E+02  0.00000000000E+00 0.  1.
</event>
<event>
 7    1  0.2838209E-011  0.5052888E+02  0.7816164E-02  0.1300439E+00
        -11   -1    0    0    0    0  0.00000000000E+00  0.00000000000E+00  0.45593999997E+02  0.45594000000E+02  0.51100000000E-03 0.  1.
         11   -1    0    0    0    0 -0.00000000000E+00 -0.00000000000E+00 -0.45593999997E+02  0.45594000000E+02  0.51100000000E-03 0. -1.
    9900012    2    1    2    0    0  0.17442756538E+02 -0.10396580655E+02  0.35225347718E+02  0.50528883349E+02  0.30000071429E+02 0.  0.
         12    1    1    2    0    0 -0.17442756538E+02  0.10396580655E+02 -0.35225347718E+02  0.40659116651E+02  0.00000000000E+00 0. -1.
         11    1    3    3    0    0  0.78170901920E+01 -0.67228795813E+01  0.14207827760E+02  0.17554668293E+02  0.51100000000E-03 0. -1.
        -11    1    3    3    0    0  0.10114674040E+02 -0.11959222959E+02  0.81353482008E+01  0.17649746041E+02  0.51100000000E-03 0.  1.
         12    1    3    3    0    0 -0.48900769386E+00  0.82855218853E+01  0.12882171757E+02  0.15324469015E+02  0.00000000000E+00 0. -1.
</event>
<event>
 7    1  0.2838209E-011  0.5052886E+02  0.7816164E-02  0.1300439E+00
        -11   -1    0    0    0    0  0.00000000000E+00  0.00000000000E+00  0.45593999997E+02  0.45594000000E+02  0.51100000000E-03 0.  1.
         11   -1    0    0    0    0 -0.00000000000E+00 -0.00000000000E+00 -0.45593999997E+02  0.45594000000E+02  0.51100000000E-03 0. -1.
    9900012    2    1    2    0    0  0.24019609188E+02  0.25399404994E+02  0.20762810278E+02  0.50528859696E+02  0.29999999532E+02 0.  0.
         12    1    1    2    0    0 -0.24019609188E+02 -0.25399404994E+02 -0.20762810278E+02  0.40659140304E+02  0.00000000000E+00 0. -1.
         11    1    3    3    0    0  0.19359155004E+01 -0.19951426339E+01  0.42370296117E+00  0.28120966225E+01  0.51100000000E-03 0. -1.
        -11    1    3    3    0    0 -0.12015477630E+01  0.58309267266E+01 -0.44613306902E+01  0.74395494021E+01  0.51100000000E-03 0.  1.
        -12    1    3    3    0    0  0.23285241451E+02  0.21563620901E+02  0.24800438007E+02  0.40277213672E+02  0.00000000000E+00 0.  1.
</event>
<event>
 7    1  0.2838209E-011  0.5052885E+02  0.7816164E-02  0.1300439E+00
        -11   -1    0    0    0    0  0.00000000000E+00  0.00000000000E+00  0.45593999997E+02  0.45594000000E+02  0.51100000000E-03 0.  1.
         11   -1    0    0    0    0 -0.00000000000E+00 -0.00000000000E+00 -0.45593999997E+02  0.45594000000E+02  0.51100000000E-03 0. -1.
    9900012    2    1    2    0    0 -0.17911280929E+02 -0.20568358571E+02  0.30154522866E+02  0.50528848409E+02  0.29999965224E+02 0.  0.
         12    1    1    2    0    0  0.17911280929E+02  0.20568358571E+02 -0.30154522866E+02  0.40659151591E+02  0.00000000000E+00 0. -1.
         11    1    3    3    0    0  0.84667525274E+00 -0.92818850751E+00 -0.16851698395E+00  0.12675926491E+01  0.51100000000E-03 0. -1.
        -11    1    3    3    0    0 -0.57716695667E+01  0.70250623017E+01  0.58798090084E+01  0.10827549315E+02  0.51100000000E-03 0.  1.
         12    1    3    3    0    0 -0.12986286615E+02 -0.26665232365E+02  0.24443230842E+02  0.38433706445E+02  0.00000000000E+00 0. -1.
</event>
<event>
 7    1  0.2838209E-011  0.5052886E+02  0.7816164E-02  0.1300439E+00
        -11   -1    0    0    0    0  0.00000000000E+00  0.00000000000E+00  0.45593999997E+02  0.45594000000E+02  0.51100000000E-03 0. -1.
         11   -1    0    0    0    0 -0.00000000000E+00 -0.00000000000E+00 -0.45593999997E+02  0.45594000000E+02  0.51100000000E-03 0.  1.
    9900012    2    1    2    0    0 -0.23666963246E+02  0.32155812227E+02 -0.76840498254E+01  0.50528855505E+02  0.29999986794E+02 0.  0.
         12    1    1    2    0    0  0.23666963246E+02 -0.32155812227E+02  0.76840498254E+01  0.40659144495E+02  0.00000000000E+00 0. -1.
         11    1    3    3    0    0 -0.89480496802E+01  0.23329112480E+01  0.82348751348E+01  0.12382376053E+02  0.51100000000E-03 0. -1.
        -11    1    3    3    0    0  0.74968846800E-01 -0.36587973776E-01 -0.20508611094E+01  0.20525570781E+01  0.51100000000E-03 0.  1.
        -12    1    3    3    0    0 -0.14793882413E+02  0.29859488953E+02 -0.13868063851E+02  0.36093922374E+02  0.00000000000E+00 0.  1.
</event>
<event>
 7    1  0.2838209E-011  0.5052886E+02  0.7816164E-02  0.1300439E+00
        -11   -1    0    0    0    0  0.00000000000E+00  0.00000000000E+00  0.45593999997E+02  0.45594000000E+02  0.51100000000E-03 0.  1.
         11   -1    0    0    0    0 -0.00000000000E+00 -0.00000000000E+00 -0.45593999997E+02  0.45594000000E+02  0.51100000000E-03 0. -1.
    9900012    2    1    2    0    0 -0.24183917457E+02 -0.19722277596E+02  0.26064062478E+02  0.50528862650E+02  0.30000008512E+02 0.  0.
         12    1    1    2    0    0  0.24183917457E+02  0.19722277596E+02 -0.26064062478E+02  0.40659137350E+02  0.00000000000E+00 0. -1.
         11    1    3    3    0    0 -0.78149399708E+01 -0.10171362929E+02  0.27054367993E+01  0.13109130372E+02  0.51100000000E-03 0.  1.
        -11    1    3    3    0    0 -0.86840114107E+00  0.56872564003E+01  0.11005009176E+02  0.12418101027E+02  0.51100000000E-03 0. -1.
         12    1    3    3    0    0 -0.15500576345E+02 -0.15238171067E+02  0.12353616504E+02  0.25001631251E+02  0.00000000000E+00 0. -1.
</event>
<event>
 7    1  0.2838209E-011  0.5052886E+02  0.7816164E-02  0.1300439E+00
        -11   -1    0    0    0    0  0.00000000000E+00  0.00000000000E+00  0.45593999997E+02  0.45594000000E+02  0.51100000000E-03 0.  1.
         11   -1    0    0    0    0 -0.00000000000E+00 -0.00000000000E+00 -0.45593999997E+02  0.45594000000E+02  0.51100000000E-03 0. -1.
    9900012    2    1    2    0    0 -0.28831101284E+02  0.44758181193E+01  0.28317840382E+02  0.50528862859E+02  0.30000009147E+02 0.  0.
         12    1    1    2    0    0  0.28831101284E+02 -0.44758181193E+01 -0.28317840382E+02  0.40659137141E+02  0.00000000000E+00 0. -1.
         11    1    3    3    0    0 -0.10744621706E+02 -0.57443180349E+00  0.11490049660E+02  0.15741604395E+02  0.51100000000E-03 0. -1.
        -11    1    3    3    0    0 -0.11886648940E+02  0.56784240522E+01  0.22686652433E+02  0.26233968850E+02  0.51100000000E-03 0.  1.
         12    1    3    3    0    0 -0.61998306383E+01 -0.62817412934E+00 -0.58588617102E+01  0.85532896139E+01  0.00000000000E+00 0. -1.
</event>
<event>
 7    1  0.2838209E-011  0.5052886E+02  0.7816164E-02  0.1300439E+00
        -11   -1    0    0    0    0  0.00000000000E+00  0.00000000000E+00  0.45593999997E+02  0.45594000000E+02  0.51100000000E-03 0.  1.
         11   -1    0    0    0    0 -0.00000000000E+00 -0.00000000000E+00 -0.45593999997E+02  0.45594000000E+02  0.51100000000E-03 0. -1.
    9900012    2    1    2    0    0  0.29153113987E+02 -0.17205860266E+02  0.22521548644E+02  0.50528857904E+02  0.29999994085E+02 0.  0.
         12    1    1    2    0    0 -0.29153113987E+02  0.17205860266E+02 -0.22521548644E+02  0.40659142096E+02  0.00000000000E+00 0. -1.
         11    1    3    3    0    0  0.52703240471E+01 -0.45233824997E+01 -0.14747966717E+01  0.71001641026E+01  0.51100000000E-03 0. -1.
        -11    1    3    3    0    0  0.17849278316E+02 -0.11130368881E+02  0.26616240169E+01  0.21202973624E+02  0.51100000000E-03 0.  1.
        -12    1    3    3    0    0  0.60335116237E+01 -0.15521088861E+01  0.21334721299E+02  0.22225720178E+02  0.00000000000E+00 0.  1.
</event>
<event>
 7    1  0.2838209E-011  0.5052886E+02  0.7816164E-02  0.1300439E+00
        -11   -1    0    0    0    0  0.00000000000E+00  0.00000000000E+00  0.45593999997E+02  0.45594000000E+02  0.51100000000E-03 0. -1.
         11   -1    0    0    0    0 -0.00000000000E+00 -0.00000000000E+00 -0.45593999997E+02  0.45594000000E+02  0.51100000000E-03 0.  1.
    9900012    2    1    2    0    0  0.22048040544E+02  0.44267573111E+01 -0.33874077958E+02  0.50528862901E+02  0.30000009275E+02 0.  0.
         12    1    1    2    0    0 -0.22048040544E+02 -0.44267573111E+01  0.33874077958E+02  0.40659137099E+02  0.00000000000E+00 0. -1.
         11    1    3    3    0    0  0.12139617387E+01  0.30184788338E+01  0.17116943023E+01  0.36762501573E+01  0.51100000000E-03 0. -1.
        -11    1    3    3    0    0  0.48157777198E+01 -0.95336103791E+00  0.24699840541E+01  0.54955831177E+01  0.51100000000E-03 0.  1.
        -12    1    3    3    0    0  0.16018301086E+02  0.23616395153E+01 -0.38055756314E+02  0.41357029626E+02  0.00000000000E+00 0.  1.
</event>
<event>
 7    1  0.2838209E-011  0.5052886E+02  0.7816164E-02  0.1300439E+00
        -11   -1    0    0    0    0  0.00000000000E+00  0.00000000000E+00  0.45593999997E+02  0.45594000000E+02  0.51100000000E-03 0. -1.
         11   -1    0    0    0    0 -0.00000000000E+00 -0.00000000000E+00 -0.45593999997E+02  0.45594000000E+02  0.51100000000E-03 0.  1.
    9900012    2    1    2    0    0  0.24853755920E+02  0.30516996143E+02 -0.10206342402E+02  0.50528860042E+02  0.30000000584E+02 0.  0.
         12    1    1    2    0    0 -0.24853755920E+02 -0.30516996143E+02  0.10206342402E+02  0.40659139958E+02  0.00000000000E+00 0. -1.
         11    1    3    3    0    0  0.47479722154E+01  0.14702664242E-01 -0.45834392354E+01  0.65993463170E+01  0.51100000000E-03 0. -1.
        -11    1    3    3    0    0  0.97296940167E+01 -0.52139418649E+00  0.28221765308E+01  0.10144135162E+02  0.51100000000E-03 0.  1.
         12    1    3    3    0    0  0.10376089688E+02  0.31023687665E+02 -0.84450796974E+01  0.33785378563E+02  0.00000000000E+00 0. -1.
</event>
<event>
 7    1  0.2838209E-011  0.5052887E+02  0.7816164E-02  0.1300439E+00
        -11   -1    0    0    0    0  0.00000000000E+00  0.00000000000E+00  0.45593999997E+02  0.45594000000E+02  0.51100000000E-03 0.  1.
         11   -1    0    0    0    0 -0.00000000000E+00 -0.00000000000E+00 -0.45593999997E+02  0.45594000000E+02  0.51100000000E-03 0. -1.
    9900012    2    1    2    0    0 -0.13005645381E+02 -0.25466779490E+02  0.28904343856E+02  0.50528871097E+02  0.30000034188E+02 0.  0.
         12    1    1    2    0    0  0.13005645381E+02  0.25466779490E+02 -0.28904343856E+02  0.40659128903E+02  0.00000000000E+00 0. -1.
         11    1    3    3    0    0 -0.83971742165E+01 -0.12450289959E+02  0.14451380075E+01  0.15086771656E+02  0.51100000000E-03 0. -1.
        -11    1    3    3    0    0 -0.10619899295E+02 -0.12266802122E+02  0.18257392630E+02  0.24425173106E+02  0.51100000000E-03 0.  1.
        -12    1    3    3    0    0  0.60114281304E+01 -0.74968740936E+00  0.92018132186E+01  0.11016926336E+02  0.00000000000E+00 0.  1.
</event>
<event>
 7    1  0.2894616E-011  0.5052887E+02  0.7816164E-02  0.1300439E+00
        -11   -1    0    0    0    0  0.00000000000E+00  0.00000000000E+00  0.45593999997E+02  0.45594000000E+02  0.51100000000E-03 0. -1.
         11   -1    0    0    0    0 -0.00000000000E+00 -0.00000000000E+00 -0.45593999997E+02  0.45594000000E+02  0.51100000000E-03 0.  1.
    9900012    2    1    2    0    0 -0.17409796480E+02  0.65230372781E+01 -0.36159559832E+02  0.50528870692E+02  0.30000032957E+02 0.  0.
         12    1    1    2    0    0  0.17409796480E+02 -0.65230372781E+01  0.36159559832E+02  0.40659129308E+02  0.00000000000E+00 0. -1.
         11    1    3    3    0    0 -0.50176053584E+01 -0.26682698627E+01  0.26400563436E+01  0.62662528956E+01  0.51100000000E-03 0. -1.
        -11    1    3    3    0    0 -0.13723583243E+02  0.29077954416E+01 -0.20266000214E+02  0.24647571407E+02  0.51100000000E-03 0.  1.
        -12    1    3    3    0    0  0.13313921208E+01  0.62835116992E+01 -0.18533615962E+02  0.19615046390E+02  0.00000000000E+00 0.  1.
</event>
<event>
 7    1  0.2838209E-011  0.5052888E+02  0.7816164E-02  0.1300439E+00
        -11   -1    0    0    0    0  0.00000000000E+00  0.00000000000E+00  0.45593999997E+02  0.45594000000E+02  0.51100000000E-03 0. -1.
         11   -1    0    0    0    0 -0.00000000000E+00 -0.00000000000E+00 -0.45593999997E+02  0.45594000000E+02  0.51100000000E-03 0.  1.
    9900012    2    1    2    0    0 -0.31745961735E+02  0.22498635394E+02 -0.11797004187E+02  0.50528880618E+02  0.30000063128E+02 0.  0.
         12    1    1    2    0    0  0.31745961735E+02 -0.22498635394E+02  0.11797004187E+02  0.40659119382E+02  0.00000000000E+00 0. -1.
         11    1    3    3    0    0 -0.14737487191E+02  0.22660709409E+01 -0.13248518364E+02  0.19946223836E+02  0.51100000000E-03 0. -1.
        -11    1    3    3    0    0 -0.83346762158E+01  0.12537947774E+01 -0.35163027353E+01  0.91325360198E+01  0.51100000000E-03 0.  1.
         12    1    3    3    0    0 -0.86737983283E+01  0.18978769676E+02  0.49678169124E+01  0.21450120762E+02  0.00000000000E+00 0. -1.
</event>
<event>
 7    1  0.2838209E-011  0.5052885E+02  0.7816164E-02  0.1300439E+00
        -11   -1    0    0    0    0  0.00000000000E+00  0.00000000000E+00  0.45593999997E+02  0.45594000000E+02  0.51100000000E-03 0.  1.
         11   -1    0    0    0    0 -0.00000000000E+00 -0.00000000000E+00 -0.45593999997E+02  0.45594000000E+02  0.51100000000E-03 0. -1.
    9900012    2    1    2    0    0 -0.56944934623E+01 -0.34181770609E+02 -0.21268423878E+02  0.50528849099E+02  0.29999967320E+02 0.  0.
         12    1    1    2    0    0  0.56944934623E+01  0.34181770609E+02  0.21268423878E+02  0.40659150901E+02  0.00000000000E+00 0. -1.
         11    1    3    3    0    0  0.22163355259E+01  0.26166172555E-01 -0.39240797884E+01  0.45067982292E+01  0.51100000000E-03 0. -1.
        -11    1    3    3    0    0  0.68858789170E+01 -0.10931525453E+02 -0.12579450217E+02  0.18032086547E+02  0.51100000000E-03 0.  1.
         12    1    3    3    0    0 -0.14796707905E+02 -0.23276411329E+02 -0.47648938719E+01  0.27989964323E+02  0.00000000000E+00 0. -1.
</event>
<event>
 7    1  0.2838209E-011  0.5052887E+02  0.7816164E-02  0.1300439E+00
        -11   -1    0    0    0    0  0.00000000000E+00  0.00000000000E+00  0.45593999997E+02  0.45594000000E+02  0.51100000000E-03 0.  1.
         11   -1    0    0    0    0 -0.00000000000E+00 -0.00000000000E+00 -0.45593999997E+02  0.45594000000E+02  0.51100000000E-03 0. -1.
    9900012    2    1    2    0    0  0.31427946092E+02  0.15700165457E+02  0.20468357334E+02  0.50528872576E+02  0.30000038681E+02 0.  0.
         12    1    1    2    0    0 -0.31427946092E+02 -0.15700165457E+02 -0.20468357334E+02  0.40659127424E+02  0.00000000000E+00 0. -1.
         11    1    3    3    0    0  0.18311259817E+01 -0.16209646869E+01  0.82319252023E+01  0.85874991514E+01  0.51100000000E-03 0. -1.
        -11    1    3    3    0    0  0.53301738840E+01 -0.38475026514E+01  0.64763797585E+01  0.92280835131E+01  0.51100000000E-03 0.  1.
        -12    1    3    3    0    0  0.24266646226E+02  0.21168632795E+02  0.57600523736E+01  0.32713289911E+02  0.00000000000E+00 0.  1.
</event>
<event>
 7    1  0.2838209E-011  0.5052885E+02  0.7816164E-02  0.1300439E+00
        -11   -1    0    0    0    0  0.00000000000E+00  0.00000000000E+00  0.45593999997E+02  0.45594000000E+02  0.51100000000E-03 0.  1.
         11   -1    0    0    0    0 -0.00000000000E+00 -0.00000000000E+00 -0.45593999997E+02  0.45594000000E+02  0.51100000000E-03 0. -1.
    9900012    2    1    2    0    0  0.21965122707E+02 -0.33689861952E+02  0.59743511539E+01  0.50528852375E+02  0.29999977279E+02 0.  0.
         12    1    1    2    0    0 -0.21965122707E+02  0.33689861952E+02 -0.59743511539E+01  0.40659147625E+02  0.00000000000E+00 0. -1.
         11    1    3    3    0    0  0.39632689759E+01 -0.78783424062E+01  0.13343407112E+02  0.15994445713E+02  0.51100000000E-03 0. -1.
        -11    1    3    3    0    0  0.14306403404E+00 -0.16695224223E+01  0.24254174226E+01  0.29479522335E+01  0.51100000000E-03 0.  1.
        -12    1    3    3    0    0  0.17858789697E+02 -0.24141997123E+02 -0.97944733806E+01  0.31586454429E+02  0.00000000000E+00 0.  1.
</event>
<event>
 7    1  0.2838209E-011  0.5052886E+02  0.7816164E-02  0.1300439E+00
        -11   -1    0    0    0    0  0.00000000000E+00  0.00000000000E+00  0.45593999997E+02  0.45594000000E+02  0.51100000000E-03 0.  1.
         11   -1    0    0    0    0 -0.00000000000E+00 -0.00000000000E+00 -0.45593999997E+02  0.45594000000E+02  0.51100000000E-03 0. -1.
    9900012    2    1    2    0    0 -0.33188556442E+00 -0.30503767785E+02  0.26880769029E+02  0.50528859076E+02  0.29999997648E+02 0.  0.
         12    1    1    2    0    0  0.33188556442E+00  0.30503767785E+02 -0.26880769029E+02  0.40659140924E+02  0.00000000000E+00 0. -1.
         11    1    3    3    0    0  0.26250600043E+01 -0.14910671548E+02  0.77819748517E+01  0.17022872815E+02  0.51100000000E-03 0.  1.
        -11    1    3    3    0    0 -0.10255385240E+02 -0.12843285127E+02  0.19732953354E+02  0.25680972482E+02  0.51100000000E-03 0. -1.
         12    1    3    3    0    0  0.72984396714E+01 -0.27498111102E+01 -0.63415917734E+00  0.78250137790E+01  0.00000000000E+00 0. -1.
</event>
<event>
 7    1  0.2838209E-011  0.5052886E+02  0.7816164E-02  0.1300439E+00
        -11   -1    0    0    0    0  0.00000000000E+00  0.00000000000E+00  0.45593999997E+02  0.45594000000E+02  0.51100000000E-03 0. -1.
         11   -1    0    0    0    0 -0.00000000000E+00 -0.00000000000E+00 -0.45593999997E+02  0.45594000000E+02  0.51100000000E-03 0.  1.
    9900012    2    1    2    0    0  0.37362070328E+02  0.98245727064E+01 -0.12677491859E+02  0.50528864152E+02  0.30000013076E+02 0.  0.
         12    1    1    2    0    0 -0.37362070328E+02 -0.98245727064E+01  0.12677491859E+02  0.40659135848E+02  0.00000000000E+00 0. -1.
         11    1    3    3    0    0  0.79233342579E+01  0.10152739028E+02 -0.14004468194E+02  0.19025836780E+02  0.51100000000E-03 0. -1.
        -11    1    3    3    0    0  0.69016238443E+01  0.45990536765E+01 -0.81930702294E+00  0.83339648828E+01  0.51100000000E-03 0.  1.
        -12    1    3    3    0    0  0.22537112226E+02 -0.49272199979E+01  0.21462833572E+01  0.23169062489E+02  0.00000000000E+00 0.  1.
</event>
<event>
 7    1  0.2838209E-011  0.5052886E+02  0.7816164E-02  0.1300439E+00
        -11   -1    0    0    0    0  0.00000000000E+00  0.00000000000E+00  0.45593999997E+02  0.45594000000E+02  0.51100000000E-03 0.  1.
         11   -1    0    0    0    0 -0.00000000000E+00 -0.00000000000E+00 -0.45593999997E+02  0.45594000000E+02  0.51100000000E-03 0. -1.
    9900012    2    1    2    0    0 -0.13249776389E+02  0.10589424158E+02  0.36952311441E+02  0.50528858357E+02  0.29999995461E+02 0.  0.
         12    1    1    2    0    0  0.13249776389E+02 -0.10589424158E+02 -0.36952311441E+02  0.40659141643E+02  0.00000000000E+00 0. -1.
         11    1    3    3    0    0 -0.35096830563E+01  0.78685892716E+00 -0.68465251341E+00  0.36613892790E+01  0.51100000000E-03 0. -1.
        -11    1    3    3    0    0 -0.47929073433E+01 -0.28675835829E+01 -0.12041846749E+01  0.57135853366E+01  0.51100000000E-03 0.  1.
        -12    1    3    3    0    0 -0.49471859893E+01  0.12670148814E+02  0.38841148629E+02  0.41153883741E+02  0.00000000000E+00 0.  1.
</event>
<event>
 7    1  0.2838209E-011  0.5052885E+02  0.7816164E-02  0.1300439E+00
        -11   -1    0    0    0    0  0.00000000000E+00  0.00000000000E+00  0.45593999997E+02  0.45594000000E+02  0.51100000000E-03 0.  1.
         11   -1    0    0    0    0 -0.00000000000E+00 -0.00000000000E+00 -0.45593999997E+02  0.45594000000E+02  0.51100000000E-03 0. -1.
    9900012    2    1    2    0    0  0.10999616381E+02 -0.83338420274E+01  0.38245548539E+02  0.50528850150E+02  0.29999970517E+02 0.  0.
         12    1    1    2    0    0 -0.10999616381E+02  0.83338420274E+01 -0.38245548539E+02  0.40659149850E+02  0.00000000000E+00 0. -1.
         11    1    3    3    0    0  0.32040369460E+01 -0.49460038247E+01  0.21394344178E+00  0.58969974261E+01  0.51100000000E-03 0. -1.
        -11    1    3    3    0    0  0.11689231333E+02  0.77911734525E+00  0.82979708376E+01  0.14356234648E+02  0.51100000000E-03 0.  1.
        -12    1    3    3    0    0 -0.38936518977E+01 -0.41669555479E+01  0.29733634259E+02  0.30275618076E+02  0.00000000000E+00 0.  1.
</event>
<event>
 7    1  0.2838209E-011  0.5052900E+02  0.7816164E-02  0.1300438E+00
        -11   -1    0    0    0    0  0.00000000000E+00  0.00000000000E+00  0.45593999997E+02  0.45594000000E+02  0.51100000000E-03 0.  1.
         11   -1    0    0    0    0 -0.00000000000E+00 -0.00000000000E+00 -0.45593999997E+02  0.45594000000E+02  0.51100000000E-03 0. -1.
    9900012    2    1    2    0    0 -0.36842700900E+02  0.13176322860E+00  0.17197439708E+02  0.50529004640E+02  0.30000440101E+02 0.  0.
         12    1    1    2    0    0  0.36842700900E+02 -0.13176322860E+00 -0.17197439708E+02  0.40658995360E+02  0.00000000000E+00 0. -1.
         11    1    3    3    0    0 -0.15727749332E+02  0.66888464128E+01  0.26611747748E+01  0.17296953976E+02  0.51100000000E-03 0. -1.
        -11    1    3    3    0    0 -0.78175813014E+01 -0.69264353870E+01 -0.33252841132E+01  0.10961186034E+02  0.51100000000E-03 0.  1.
        -12    1    3    3    0    0 -0.13297370266E+02  0.36935220284E+00  0.17861549046E+02  0.22270864630E+02  0.00000000000E+00 0.  1.
</event>
<event>
 7    1  0.2838209E-011  0.5052886E+02  0.7816164E-02  0.1300439E+00
        -11   -1    0    0    0    0  0.00000000000E+00  0.00000000000E+00  0.45593999997E+02  0.45594000000E+02  0.51100000000E-03 0.  1.
         11   -1    0    0    0    0 -0.00000000000E+00 -0.00000000000E+00 -0.45593999997E+02  0.45594000000E+02  0.51100000000E-03 0. -1.
    9900012    2    1    2    0    0  0.20159260620E+02  0.24401827921E+02  0.25520985438E+02  0.50528859670E+02  0.29999999454E+02 0.  0.
         12    1    1    2    0    0 -0.20159260620E+02 -0.24401827921E+02 -0.25520985438E+02  0.40659140330E+02  0.00000000000E+00 0. -1.
         11    1    3    3    0    0  0.17748633312E+01  0.88101667584E+01 -0.10091704065E+01  0.90436498896E+01  0.51100000000E-03 0. -1.
        -11    1    3    3    0    0  0.40475016017E+01  0.15049381109E+02  0.65905935759E+01  0.16920462905E+02  0.51100000000E-03 0.  1.
         12    1    3    3    0    0  0.14336895687E+02  0.54228005359E+00  0.19939562268E+02  0.24564746875E+02  0.00000000000E+00 0. -1.
</event>
<event>
 7    1  0.2838209E-011  0.5052886E+02  0.7816164E-02  0.1300439E+00
        -11   -1    0    0    0    0  0.00000000000E+00  0.00000000000E+00  0.45593999997E+02  0.45594000000E+02  0.51100000000E-03 0.  1.
         11   -1    0    0    0    0 -0.00000000000E+00 -0.00000000000E+00 -0.45593999997E+02  0.45594000000E+02  0.51100000000E-03 0. -1.
    9900012    2    1    2    0    0 -0.14718843259E+02 -0.27964433511E+02  0.25583433984E+02  0.50528856097E+02  0.29999988593E+02 0.  0.
         12    1    1    2    0    0  0.14718843259E+02  0.27964433511E+02 -0.25583433984E+02  0.40659143903E+02  0.00000000000E+00 0. -1.
         11    1    3    3    0    0  0.44669185884E+00 -0.24339917771E+02  0.74930334230E+01  0.25471095007E+02  0.51100000000E-03 0. -1.
        -11    1    3    3    0    0 -0.30914701692E+01 -0.28535003648E+01  0.13806500172E+01  0.44278490117E+01  0.51100000000E-03 0.  1.
        -12    1    3    3    0    0 -0.12074064949E+02 -0.77101537499E+00  0.16709750544E+02  0.20629912078E+02  0.00000000000E+00 0.  1.
</event>
<event>
 7    1  0.2838209E-011  0.5052886E+02  0.7816164E-02  0.1300439E+00
        -11   -1    0    0    0    0  0.00000000000E+00  0.00000000000E+00  0.45593999997E+02  0.45594000000E+02  0.51100000000E-03 0.  1.
         11   -1    0    0    0    0 -0.00000000000E+00 -0.00000000000E+00 -0.45593999997E+02  0.45594000000E+02  0.51100000000E-03 0. -1.
    9900012    2    1    2    0    0 -0.34771487079E+01 -0.33736195692E+02  0.22426413458E+02  0.50528862239E+02  0.30000007261E+02 0.  0.
         12    1    1    2    0    0  0.34771487079E+01  0.33736195692E+02 -0.22426413458E+02  0.40659137761E+02  0.00000000000E+00 0. -1.
         11    1    3    3    0    0  0.82475437895E+00  0.30944530923E+00  0.17239581240E+01  0.19359772880E+01  0.51100000000E-03 0. -1.
        -11    1    3    3    0    0  0.73659740929E+01 -0.30805692126E+01 -0.22811319560E+01  0.83036765515E+01  0.51100000000E-03 0.  1.
         12    1    3    3    0    0 -0.11667877180E+02 -0.30965071788E+02  0.22983587290E+02  0.40289208399E+02  0.00000000000E+00 0. -1.
</event>
<event>
 7    1  0.2838209E-011  0.5052885E+02  0.7816164E-02  0.1300439E+00
        -11   -1    0    0    0    0  0.00000000000E+00  0.00000000000E+00  0.45593999997E+02  0.45594000000E+02  0.51100000000E-03 0.  1.
         11   -1    0    0    0    0 -0.00000000000E+00 -0.00000000000E+00 -0.45593999997E+02  0.45594000000E+02  0.51100000000E-03 0. -1.
    9900012    2    1    2    0    0 -0.10212553072E+02  0.24070496965E+02  0.31136499986E+02  0.50528847331E+02  0.29999961947E+02 0.  0.
         12    1    1    2    0    0  0.10212553072E+02 -0.24070496965E+02 -0.31136499986E+02  0.40659152669E+02  0.00000000000E+00 0. -1.
         11    1    3    3    0    0 -0.59042373923E+01  0.61949095470E+00  0.19072060255E+02  0.19974665726E+02  0.51100000000E-03 0. -1.
        -11    1    3    3    0    0  0.42983385237E+01  0.11669200090E+02  0.97041346293E+01  0.15773908012E+02  0.51100000000E-03 0.  1.
        -12    1    3    3    0    0 -0.86066542036E+01  0.11781805920E+02  0.23603051017E+01  0.14780273594E+02  0.00000000000E+00 0.  1.
</event>
<event>
 7    1  0.2838209E-011  0.5052885E+02  0.7816164E-02  0.1300439E+00
        -11   -1    0    0    0    0  0.00000000000E+00  0.00000000000E+00  0.45593999997E+02  0.45594000000E+02  0.51100000000E-03 0.  1.
         11   -1    0    0    0    0 -0.00000000000E+00 -0.00000000000E+00 -0.45593999997E+02  0.45594000000E+02  0.51100000000E-03 0. -1.
    9900012    2    1    2    0    0  0.34122505898E+02 -0.75213281159E+01  0.20790639099E+02  0.50528850236E+02  0.29999970778E+02 0.  0.
         12    1    1    2    0    0 -0.34122505898E+02  0.75213281159E+01 -0.20790639099E+02  0.40659149764E+02  0.00000000000E+00 0. -1.
         11    1    3    3    0    0  0.22451628051E+01 -0.15688946037E+01  0.13380199903E+02  0.13657669494E+02  0.51100000000E-03 0. -1.
        -11    1    3    3    0    0  0.25115211082E+02 -0.82426157317E+01  0.11292806807E+02  0.28744426028E+02  0.51100000000E-03 0.  1.
         12    1    3    3    0    0  0.67621320105E+01  0.22901822194E+01 -0.38823676115E+01  0.81267547149E+01  0.00000000000E+00 0. -1.
</event>
<event>
 7    1  0.2838209E-011  0.5052886E+02  0.7816164E-02  0.1300439E+00
        -11   -1    0    0    0    0  0.00000000000E+00  0.00000000000E+00  0.45593999997E+02  0.45594000000E+02  0.51100000000E-03 0. -1.
         11   -1    0    0    0    0 -0.00000000000E+00 -0.00000000000E+00 -0.45593999997E+02  0.45594000000E+02  0.51100000000E-03 0.  1.
    9900012    2    1    2    0    0  0.73338525368E+01 -0.27829892641E+02 -0.28720672995E+02  0.50528863576E+02  0.30000011327E+02 0.  0.
         12    1    1    2    0    0 -0.73338525368E+01  0.27829892641E+02  0.28720672995E+02  0.40659136424E+02  0.00000000000E+00 0. -1.
         11    1    3    3    0    0  0.65342699293E+01 -0.98765095731E+01 -0.11213693491E+02  0.16309170635E+02  0.51100000000E-03 0. -1.
        -11    1    3    3    0    0 -0.60749008814E+01 -0.17700025990E+02 -0.19530835854E+02  0.27049009042E+02  0.51100000000E-03 0.  1.
         12    1    3    3    0    0  0.68744834890E+01 -0.25335707774E+00  0.20238563495E+01  0.71706838986E+01  0.00000000000E+00 0. -1.
</event>
<event>
 7    1  0.2838209E-011  0.5052886E+02  0.7816164E-02  0.1300439E+00
        -11   -1    0    0    0    0  0.00000000000E+00  0.00000000000E+00  0.45593999997E+02  0.45594000000E+02  0.51100000000E-03 0.  1.
         11   -1    0    0    0    0 -0.00000000000E+00 -0.00000000000E+00 -0.45593999997E+02  0.45594000000E+02  0.51100000000E-03 0. -1.
    9900012    2    1    2    0    0  0.22666789181E+02 -0.25662683585E+02  0.21927358288E+02  0.50528859551E+02  0.29999999092E+02 0.  0.
         12    1    1    2    0    0 -0.22666789181E+02  0.25662683585E+02 -0.21927358288E+02  0.40659140449E+02  0.00000000000E+00 0. -1.
         11    1    3    3    0    0  0.11486184449E+02 -0.22204791525E+02  0.13662403014E+02  0.28489409545E+02  0.51100000000E-03 0. -1.
        -11    1    3    3    0    0  0.79005751568E+01 -0.25992089638E+01  0.13468010360E+02  0.15829159118E+02  0.51100000000E-03 0.  1.
         12    1    3    3    0    0  0.32800295761E+01 -0.85868309547E+00 -0.52030550868E+01  0.62102908881E+01  0.00000000000E+00 0. -1.
</event>
<event>
 7    1  0.2838209E-011  0.5052886E+02  0.7816164E-02  0.1300439E+00
        -11   -1    0    0    0    0  0.00000000000E+00  0.00000000000E+00  0.45593999997E+02  0.45594000000E+02  0.51100000000E-03 0.  1.
         11   -1    0    0    0    0 -0.00000000000E+00 -0.00000000000E+00 -0.45593999997E+02  0.45594000000E+02  0.51100000000E-03 0. -1.
    9900012    2    1    2    0    0  0.79187311661E+01  0.13570465832E+02  0.37500690090E+02  0.50528860764E+02  0.30000002779E+02 0.  0.
         12    1    1    2    0    0 -0.79187311661E+01 -0.13570465832E+02 -0.37500690090E+02  0.40659139236E+02  0.00000000000E+00 0. -1.
         11    1    3    3    0    0  0.32290681715E+01 -0.54692066117E+01  0.31413588346E+01  0.70857065848E+01  0.51100000000E-03 0.  1.
        -11    1    3    3    0    0  0.93270448041E+01  0.66156900736E+01  0.80619781700E+01  0.13991304878E+02  0.51100000000E-03 0. -1.
        -12    1    3    3    0    0 -0.46373818094E+01  0.12423982370E+02  0.26297353085E+02  0.29451849301E+02  0.00000000000E+00 0.  1.
</event>
<event>
 7    1  0.2838209E-011  0.5052883E+02  0.7816164E-02  0.1300439E+00
        -11   -1    0    0    0    0  0.00000000000E+00  0.00000000000E+00  0.45593999997E+02  0.45594000000E+02  0.51100000000E-03 0.  1.
         11   -1    0    0    0    0 -0.00000000000E+00 -0.00000000000E+00 -0.45593999997E+02  0.45594000000E+02  0.51100000000E-03 0. -1.
    9900012    2    1    2    0    0  0.17709024466E+02  0.24272680184E+02  0.27393346176E+02  0.50528831715E+02  0.29999914482E+02 0.  0.
         12    1    1    2    0    0 -0.17709024466E+02 -0.24272680184E+02 -0.27393346176E+02  0.40659168285E+02  0.00000000000E+00 0. -1.
         11    1    3    3    0    0  0.44521688071E+01  0.13517422378E+02  0.19219987135E+02  0.23915484954E+02  0.51100000000E-03 0.  1.
        -11    1    3    3    0    0 -0.29241941335E+01  0.72440840484E+01 -0.67251539549E+00  0.78409146309E+01  0.51100000000E-03 0. -1.
        -12    1    3    3    0    0  0.16181049793E+02  0.35111737574E+01  0.88458744364E+01  0.18772432131E+02  0.00000000000E+00 0.  1.
</event>
<event>
 7    1  0.2838209E-011  0.5052886E+02  0.7816164E-02  0.1300439E+00
        -11   -1    0    0    0    0  0.00000000000E+00  0.00000000000E+00  0.45593999997E+02  0.45594000000E+02  0.51100000000E-03 0. -1.
         11   -1    0    0    0    0 -0.00000000000E+00 -0.00000000000E+00 -0.45593999997E+02  0.45594000000E+02  0.51100000000E-03 0.  1.
    9900012    2    1    2    0    0 -0.30035920315E+02 -0.89672548240E+01 -0.25895894443E+02  0.50528861823E+02  0.30000005998E+02 0.  0.
         12    1    1    2    0    0  0.30035920315E+02  0.89672548240E+01  0.25895894443E+02  0.40659138177E+02  0.00000000000E+00 0. -1.
         11    1    3    3    0    0  0.38010739787E+01 -0.14970448504E+01  0.18795721268E+01  0.44968987443E+01  0.51100000000E-03 0. -1.
        -11    1    3    3    0    0 -0.42257281874E+00 -0.17188925603E+01 -0.46907452192E+01  0.50136065256E+01  0.51100000000E-03 0.  1.
        -12    1    3    3    0    0 -0.33414421475E+02 -0.57513174133E+01 -0.23084721350E+02  0.41018356553E+02  0.00000000000E+00 0.  1.
</event>
<event>
 7    1  0.2838209E-011  0.5052886E+02  0.7816164E-02  0.1300439E+00
        -11   -1    0    0    0    0  0.00000000000E+00  0.00000000000E+00  0.45593999997E+02  0.45594000000E+02  0.51100000000E-03 0.  1.
         11   -1    0    0    0    0 -0.00000000000E+00 -0.00000000000E+00 -0.45593999997E+02  0.45594000000E+02  0.51100000000E-03 0. -1.
    9900012    2    1    2    0    0  0.78656691428E-01  0.51890262060E+01  0.40326588486E+02  0.50528856887E+02  0.29999990992E+02 0.  0.
         12    1    1    2    0    0 -0.78656691428E-01 -0.51890262060E+01 -0.40326588486E+02  0.40659143113E+02  0.00000000000E+00 0. -1.
         11    1    3    3    0    0  0.43312736836E+01 -0.44984501248E+00  0.73042653703E+00  0.44154066001E+01  0.51100000000E-03 0. -1.
        -11    1    3    3    0    0 -0.85091118134E+01 -0.58670843179E+01  0.11537544536E+02  0.15490080581E+02  0.51100000000E-03 0.  1.
        -12    1    3    3    0    0  0.42564948212E+01  0.11505955536E+02  0.28058617413E+02  0.30623369705E+02  0.00000000000E+00 0.  1.
</event>
<event>
 7    1  0.2838209E-011  0.5052885E+02  0.7816164E-02  0.1300439E+00
        -11   -1    0    0    0    0  0.00000000000E+00  0.00000000000E+00  0.45593999997E+02  0.45594000000E+02  0.51100000000E-03 0. -1.
         11   -1    0    0    0    0 -0.00000000000E+00 -0.00000000000E+00 -0.45593999997E+02  0.45594000000E+02  0.51100000000E-03 0.  1.
    9900012    2    1    2    0    0 -0.19045547382E+02  0.33257420307E+02 -0.13578560186E+02  0.50528853707E+02  0.29999981328E+02 0.  0.
         12    1    1    2    0    0  0.19045547382E+02 -0.33257420307E+02  0.13578560186E+02  0.40659146293E+02  0.00000000000E+00 0. -1.
         11    1    3    3    0    0  0.16562217059E+01  0.17506386327E+02 -0.12177665414E+02  0.21389534070E+02  0.51100000000E-03 0. -1.
        -11    1    3    3    0    0 -0.14338150197E+02  0.17355878511E+02 -0.16402304796E+01  0.22572093971E+02  0.51100000000E-03 0.  1.
        -12    1    3    3    0    0 -0.63636188911E+01 -0.16048445312E+01  0.23933570707E+00  0.65672256654E+01  0.00000000000E+00 0.  1.
</event>
<event>
 7    1  0.2838209E-011  0.5052887E+02  0.7816164E-02  0.1300439E+00
        -11   -1    0    0    0    0  0.00000000000E+00  0.00000000000E+00  0.45593999997E+02  0.45594000000E+02  0.51100000000E-03 0.  1.
         11   -1    0    0    0    0 -0.00000000000E+00 -0.00000000000E+00 -0.45593999997E+02  0.45594000000E+02  0.51100000000E-03 0. -1.
    9900012    2    1    2    0    0  0.27307686291E+02 -0.18416093250E+02  0.23839095130E+02  0.50528872147E+02  0.30000037378E+02 0.  0.
         12    1    1    2    0    0 -0.27307686291E+02  0.18416093250E+02 -0.23839095130E+02  0.40659127853E+02  0.00000000000E+00 0. -1.
         11    1    3    3    0    0  0.76368752236E+01  0.24269799878E+01  0.72974559458E+01  0.10838125234E+02  0.51100000000E-03 0. -1.
        -11    1    3    3    0    0  0.12853902841E+02 -0.72759676314E+01  0.19254124369E+02  0.24266928703E+02  0.51100000000E-03 0.  1.
         12    1    3    3    0    0  0.68169082269E+01 -0.13567105606E+02 -0.27124851851E+01  0.15423818210E+02  0.00000000000E+00 0. -1.
</event>
<event>
 7    1  0.2838209E-011  0.5052886E+02  0.7816164E-02  0.1300439E+00
        -11   -1    0    0    0    0  0.00000000000E+00  0.00000000000E+00  0.45593999997E+02  0.45594000000E+02  0.51100000000E-03 0.  1.
         11   -1    0    0    0    0 -0.00000000000E+00 -0.00000000000E+00 -0.45593999997E+02  0.45594000000E+02  0.51100000000E-03 0. -1.
    9900012    2    1    2    0    0 -0.96538061007E+01  0.31167075341E+01  0.39373291369E+02  0.50528856977E+02  0.29999991268E+02 0.  0.
         12    1    1    2    0    0  0.96538061007E+01 -0.31167075341E+01 -0.39373291369E+02  0.40659143023E+02  0.00000000000E+00 0. -1.
         11    1    3    3    0    0 -0.77675682861E+01 -0.36495601070E+00  0.90131971820E+01  0.11904034344E+02  0.51100000000E-03 0. -1.
        -11    1    3    3    0    0 -0.95554575038E+01  0.98456460299E+01  0.15136136975E+02  0.20429051780E+02  0.51100000000E-03 0.  1.
         12    1    3    3    0    0  0.76692196892E+01 -0.63639824852E+01  0.15223957212E+02  0.18195770852E+02  0.00000000000E+00 0. -1.
</event>
<event>
 7    1  0.2838209E-011  0.5052889E+02  0.7816164E-02  0.1300439E+00
        -11   -1    0    0    0    0  0.00000000000E+00  0.00000000000E+00  0.45593999997E+02  0.45594000000E+02  0.51100000000E-03 0.  1.
         11   -1    0    0    0    0 -0.00000000000E+00 -0.00000000000E+00 -0.45593999997E+02  0.45594000000E+02  0.51100000000E-03 0. -1.
    9900012    2    1    2    0    0 -0.10520596628E+02 -0.23036358989E+02  0.31808909245E+02  0.50528886677E+02  0.30000081544E+02 0.  0.
         12    1    1    2    0    0  0.10520596628E+02  0.23036358989E+02 -0.31808909245E+02  0.40659113323E+02  0.00000000000E+00 0. -1.
         11    1    3    3    0    0  0.27944352932E+01 -0.96988154364E+01  0.12437463021E+02  0.16017689475E+02  0.51100000000E-03 0. -1.
        -11    1    3    3    0    0 -0.35989179027E+01 -0.16094590740E+02  0.17841539698E+02  0.24296267208E+02  0.51100000000E-03 0.  1.
         12    1    3    3    0    0 -0.97161140183E+01  0.27570471873E+01  0.15299065258E+01  0.10214929994E+02  0.00000000000E+00 0. -1.
</event>
<event>
 7    1  0.2838209E-011  0.5052885E+02  0.7816164E-02  0.1300439E+00
        -11   -1    0    0    0    0  0.00000000000E+00  0.00000000000E+00  0.45593999997E+02  0.45594000000E+02  0.51100000000E-03 0.  1.
         11   -1    0    0    0    0 -0.00000000000E+00 -0.00000000000E+00 -0.45593999997E+02  0.45594000000E+02  0.51100000000E-03 0. -1.
    9900012    2    1    2    0    0  0.31072763017E+02 -0.24829565713E+02  0.84345806570E+01  0.50528854831E+02  0.29999984744E+02 0.  0.
         12    1    1    2    0    0 -0.31072763017E+02  0.24829565713E+02 -0.84345806570E+01  0.40659145169E+02  0.00000000000E+00 0. -1.
         11    1    3    3    0    0  0.88369403863E+01 -0.11736392569E+01 -0.68231338484E+01  0.11226045620E+02  0.51100000000E-03 0. -1.
        -11    1    3    3    0    0  0.11759349387E+02 -0.88311005050E+01 -0.12595051758E+01  0.14759979257E+02  0.51100000000E-03 0.  1.
        -12    1    3    3    0    0  0.10476473244E+02 -0.14824825952E+02  0.16517219681E+02  0.24542829953E+02  0.00000000000E+00 0.  1.
</event>
<event>
 7    1  0.2838209E-011  0.5052882E+02  0.7816164E-02  0.1300439E+00
        -11   -1    0    0    0    0  0.00000000000E+00  0.00000000000E+00  0.45593999997E+02  0.45594000000E+02  0.51100000000E-03 0. -1.
         11   -1    0    0    0    0 -0.00000000000E+00 -0.00000000000E+00 -0.45593999997E+02  0.45594000000E+02  0.51100000000E-03 0.  1.
    9900012    2    1    2    0    0 -0.11856509857E+01  0.35147137532E+02 -0.20406906364E+02  0.50528820566E+02  0.29999880591E+02 0.  0.
         12    1    1    2    0    0  0.11856509857E+01 -0.35147137532E+02  0.20406906364E+02  0.40659179434E+02  0.00000000000E+00 0. -1.
         11    1    3    3    0    0 -0.10010991555E+02  0.21863761906E+02 -0.12047440114E+02  0.26895814733E+02  0.51100000000E-03 0. -1.
        -11    1    3    3    0    0 -0.57175562552E+00  0.64271431574E+01 -0.99840789916E+01  0.11887678799E+02  0.51100000000E-03 0.  1.
        -12    1    3    3    0    0  0.93970961953E+01  0.68562324684E+01  0.16246127412E+01  0.11745327034E+02  0.00000000000E+00 0.  1.
</event>
<event>
 7    1  0.2838209E-011  0.5052877E+02  0.7816164E-02  0.1300439E+00
        -11   -1    0    0    0    0  0.00000000000E+00  0.00000000000E+00  0.45593999997E+02  0.45594000000E+02  0.51100000000E-03 0. -1.
         11   -1    0    0    0    0 -0.00000000000E+00 -0.00000000000E+00 -0.45593999997E+02  0.45594000000E+02  0.51100000000E-03 0.  1.
    9900012    2    1    2    0    0  0.14509178608E+02  0.90897489509E+01 -0.36878625258E+02  0.50528772255E+02  0.29999733746E+02 0.  0.
         12    1    1    2    0    0 -0.14509178608E+02 -0.90897489509E+01  0.36878625258E+02  0.40659227745E+02  0.00000000000E+00 0. -1.
         11    1    3    3    0    0  0.19919990214E+02  0.12788880981E+02 -0.23184932394E+02  0.33134612978E+02  0.51100000000E-03 0. -1.
        -11    1    3    3    0    0 -0.37555554278E+01  0.23322596973E+01 -0.48518912792E+01  0.65638769880E+01  0.51100000000E-03 0.  1.
        -12    1    3    3    0    0 -0.16552561781E+01 -0.60313917274E+01 -0.88418015855E+01  0.10830282289E+02  0.00000000000E+00 0.  1.
</event>
<event>
 7    1  0.2838209E-011  0.5052886E+02  0.7816164E-02  0.1300439E+00
        -11   -1    0    0    0    0  0.00000000000E+00  0.00000000000E+00  0.45593999997E+02  0.45594000000E+02  0.51100000000E-03 0. -1.
         11   -1    0    0    0    0 -0.00000000000E+00 -0.00000000000E+00 -0.45593999997E+02  0.45594000000E+02  0.51100000000E-03 0.  1.
    9900012    2    1    2    0    0 -0.33683499637E+02 -0.18980252514E+02 -0.12583228724E+02  0.50528858612E+02  0.29999996238E+02 0.  0.
         12    1    1    2    0    0  0.33683499637E+02  0.18980252514E+02  0.12583228724E+02  0.40659141388E+02  0.00000000000E+00 0. -1.
         11    1    3    3    0    0 -0.20784283600E+02 -0.14118425823E+02 -0.46983719354E-01  0.25126054211E+02  0.51100000000E-03 0. -1.
        -11    1    3    3    0    0 -0.11961750762E+00 -0.42937772741E+01  0.30285498087E+01  0.52557535932E+01  0.51100000000E-03 0.  1.
        -12    1    3    3    0    0 -0.12779598529E+02 -0.56804941714E+00 -0.15564794813E+02  0.20147050808E+02  0.00000000000E+00 0.  1.
</event>
<event>
 7    1  0.2838209E-011  0.5052886E+02  0.7816164E-02  0.1300439E+00
        -11   -1    0    0    0    0  0.00000000000E+00  0.00000000000E+00  0.45593999997E+02  0.45594000000E+02  0.51100000000E-03 0.  1.
         11   -1    0    0    0    0 -0.00000000000E+00 -0.00000000000E+00 -0.45593999997E+02  0.45594000000E+02  0.51100000000E-03 0. -1.
    9900012    2    1    2    0    0  0.32442143127E+02 -0.20210756192E+02 -0.13863553718E+02  0.50528862795E+02  0.30000008953E+02 0.  0.
         12    1    1    2    0    0 -0.32442143127E+02  0.20210756192E+02  0.13863553718E+02  0.40659137205E+02  0.00000000000E+00 0. -1.
         11    1    3    3    0    0  0.70067648686E+01 -0.12062809599E+02 -0.13670482690E+02  0.19531723595E+02  0.51100000000E-03 0. -1.
        -11    1    3    3    0    0  0.16027243776E+02 -0.44911172981E+01 -0.77768790921E+01  0.18371786149E+02  0.51100000000E-03 0.  1.
         12    1    3    3    0    0  0.94081344828E+01 -0.36568292943E+01  0.75838080633E+01  0.12625353052E+02  0.00000000000E+00 0. -1.
</event>
<event>
 7    1  0.2838209E-011  0.5052886E+02  0.7816164E-02  0.1300439E+00
        -11   -1    0    0    0    0  0.00000000000E+00  0.00000000000E+00  0.45593999997E+02  0.45594000000E+02  0.51100000000E-03 0.  1.
         11   -1    0    0    0    0 -0.00000000000E+00 -0.00000000000E+00 -0.45593999997E+02  0.45594000000E+02  0.51100000000E-03 0. -1.
    9900012    2    1    2    0    0  0.16871306939E+02 -0.29055086403E+01  0.36879300736E+02  0.50528858334E+02  0.29999995391E+02 0.  0.
         12    1    1    2    0    0 -0.16871306939E+02  0.29055086403E+01 -0.36879300736E+02  0.40659141666E+02  0.00000000000E+00 0. -1.
         11    1    3    3    0    0  0.14628266686E+02  0.97769612528E+01  0.16976977823E+02  0.24449804372E+02  0.51100000000E-03 0. -1.
        -11    1    3    3    0    0  0.32452121612E+01  0.57337930361E+00  0.59890049274E+01  0.68358134907E+01  0.51100000000E-03 0.  1.
         12    1    3    3    0    0 -0.10021719084E+01 -0.13255849197E+02  0.13913317985E+02  0.19243240471E+02  0.00000000000E+00 0. -1.
</event>
<event>
 7    1  0.2838209E-011  0.5052886E+02  0.7816164E-02  0.1300439E+00
        -11   -1    0    0    0    0  0.00000000000E+00  0.00000000000E+00  0.45593999997E+02  0.45594000000E+02  0.51100000000E-03 0.  1.
         11   -1    0    0    0    0 -0.00000000000E+00 -0.00000000000E+00 -0.45593999997E+02  0.45594000000E+02  0.51100000000E-03 0. -1.
    9900012    2    1    2    0    0  0.39235501806E+02 -0.65456189633E+01 -0.84199681677E+01  0.50528860885E+02  0.30000003147E+02 0.  0.
         12    1    1    2    0    0 -0.39235501806E+02  0.65456189633E+01  0.84199681677E+01  0.40659139115E+02  0.00000000000E+00 0. -1.
         11    1    3    3    0    0  0.38339663282E+00  0.34706799823E+01  0.99945746990E+00  0.36320143189E+01  0.51100000000E-03 0. -1.
        -11    1    3    3    0    0 -0.75556890148E+00  0.26832906378E+01  0.23760109246E+01  0.36628351296E+01  0.51100000000E-03 0.  1.
        -12    1    3    3    0    0  0.39607674075E+02 -0.12699589583E+02 -0.11795436562E+02  0.43234011437E+02  0.00000000000E+00 0.  1.
</event>
<event>
 7    1  0.2838209E-011  0.5052887E+02  0.7816164E-02  0.1300439E+00
        -11   -1    0    0    0    0  0.00000000000E+00  0.00000000000E+00  0.45593999997E+02  0.45594000000E+02  0.51100000000E-03 0. -1.
         11   -1    0    0    0    0 -0.00000000000E+00 -0.00000000000E+00 -0.45593999997E+02  0.45594000000E+02  0.51100000000E-03 0.  1.
    9900012    2    1    2    0    0  0.75114543170E+01  0.83533028042E+01 -0.39076400808E+02  0.50528871704E+02  0.30000036031E+02 0.  0.
         12    1    1    2    0    0 -0.75114543170E+01 -0.83533028042E+01  0.39076400808E+02  0.40659128296E+02  0.00000000000E+00 0. -1.
         11    1    3    3    0    0 -0.31102657965E+01 -0.58427526852E+01 -0.18063541533E+02  0.19238062409E+02  0.51100000000E-03 0. -1.
        -11    1    3    3    0    0  0.11418888616E+02  0.28209582041E+01 -0.11326402015E+02  0.16328998906E+02  0.51100000000E-03 0.  1.
         12    1    3    3    0    0 -0.79716850224E+00  0.11375097285E+02 -0.96864572596E+01  0.14961810389E+02  0.00000000000E+00 0. -1.
</event>
<event>
 7    1  0.2838209E-011  0.5052886E+02  0.7816164E-02  0.1300439E+00
        -11   -1    0    0    0    0  0.00000000000E+00  0.00000000000E+00  0.45593999997E+02  0.45594000000E+02  0.51100000000E-03 0.  1.
         11   -1    0    0    0    0 -0.00000000000E+00 -0.00000000000E+00 -0.45593999997E+02  0.45594000000E+02  0.51100000000E-03 0. -1.
    9900012    2    1    2    0    0 -0.16614543237E+01  0.14732476025E+01  0.40598459767E+02  0.50528858046E+02  0.29999994516E+02 0.  0.
         12    1    1    2    0    0  0.16614543237E+01 -0.14732476025E+01 -0.40598459767E+02  0.40659141954E+02  0.00000000000E+00 0. -1.
         11    1    3    3    0    0 -0.24491536051E+01  0.21557524929E+01  0.10526388483E+02  0.11020457202E+02  0.51100000000E-03 0. -1.
        -11    1    3    3    0    0  0.62503104311E+01  0.10932530358E+02  0.17329211916E+02  0.21421675621E+02  0.51100000000E-03 0.  1.
         12    1    3    3    0    0 -0.54626111497E+01 -0.11615035248E+02  0.12742859368E+02  0.18086725223E+02  0.00000000000E+00 0. -1.
</event>
<event>
 7    1  0.2838209E-011  0.5052886E+02  0.7816164E-02  0.1300439E+00
        -11   -1    0    0    0    0  0.00000000000E+00  0.00000000000E+00  0.45593999997E+02  0.45594000000E+02  0.51100000000E-03 0.  1.
         11   -1    0    0    0    0 -0.00000000000E+00 -0.00000000000E+00 -0.45593999997E+02  0.45594000000E+02  0.51100000000E-03 0. -1.
    9900012    2    1    2    0    0 -0.16933325684E+02  0.34500494833E+02  0.13271933463E+02  0.50528857358E+02  0.29999992427E+02 0.  0.
         12    1    1    2    0    0  0.16933325684E+02 -0.34500494833E+02 -0.13271933463E+02  0.40659142642E+02  0.00000000000E+00 0. -1.
         11    1    3    3    0    0  0.71365229127E+00  0.90517131084E+01 -0.52031475455E+01  0.10464967961E+02  0.51100000000E-03 0. -1.
        -11    1    3    3    0    0 -0.12670997401E+02  0.37559692135E+01  0.81731124845E+01  0.15539023387E+02  0.51100000000E-03 0.  1.
         12    1    3    3    0    0 -0.49759805743E+01  0.21692812512E+02  0.10301968524E+02  0.24524866010E+02  0.00000000000E+00 0. -1.
</event>
<event>
 7    1  0.2838209E-011  0.5052886E+02  0.7816164E-02  0.1300439E+00
        -11   -1    0    0    0    0  0.00000000000E+00  0.00000000000E+00  0.45593999997E+02  0.45594000000E+02  0.51100000000E-03 0. -1.
         11   -1    0    0    0    0 -0.00000000000E+00 -0.00000000000E+00 -0.45593999997E+02  0.45594000000E+02  0.51100000000E-03 0.  1.
    9900012    2    1    2    0    0  0.52107628255E+01 -0.59688935240E+01 -0.39879645568E+02  0.50528857489E+02  0.29999992824E+02 0.  0.
         12    1    1    2    0    0 -0.52107628255E+01  0.59688935240E+01  0.39879645568E+02  0.40659142511E+02  0.00000000000E+00 0. -1.
         11    1    3    3    0    0 -0.91463508263E+00  0.27796510813E+01 -0.38374909586E+01  0.48259045356E+01  0.51100000000E-03 0. -1.
        -11    1    3    3    0    0 -0.84616380177E+01  0.32418316652E+01 -0.14026152891E+02  0.16698555497E+02  0.51100000000E-03 0.  1.
         12    1    3    3    0    0  0.14587035926E+02 -0.11990376270E+02 -0.22016001718E+02  0.29004397457E+02  0.00000000000E+00 0. -1.
</event>
<event>
 7    1  0.2838209E-011  0.5052885E+02  0.7816164E-02  0.1300439E+00
        -11   -1    0    0    0    0  0.00000000000E+00  0.00000000000E+00  0.45593999997E+02  0.45594000000E+02  0.51100000000E-03 0.  1.
         11   -1    0    0    0    0 -0.00000000000E+00 -0.00000000000E+00 -0.45593999997E+02  0.45594000000E+02  0.51100000000E-03 0. -1.
    9900012    2    1    2    0    0  0.17348324817E+02 -0.25469533927E+02  0.26523664591E+02  0.50528852004E+02  0.29999976152E+02 0.  0.
         12    1    1    2    0    0 -0.17348324817E+02  0.25469533927E+02 -0.26523664591E+02  0.40659147996E+02  0.00000000000E+00 0. -1.
         11    1    3    3    0    0  0.26628624637E-01  0.20036161140E+01 -0.44842852654E+00  0.20533570124E+01  0.51100000000E-03 0.  1.
        -11    1    3    3    0    0 -0.32994935184E-01 -0.94331366933E+01 -0.25474290198E+01  0.97711079931E+01  0.51100000000E-03 0. -1.
        -12    1    3    3    0    0  0.17354691128E+02 -0.18040013347E+02  0.29519522138E+02  0.38704386999E+02  0.00000000000E+00 0.  1.
</event>
<event>
 7    1  0.2838209E-011  0.5052885E+02  0.7816164E-02  0.1300439E+00
        -11   -1    0    0    0    0  0.00000000000E+00  0.00000000000E+00  0.45593999997E+02  0.45594000000E+02  0.51100000000E-03 0.  1.
         11   -1    0    0    0    0 -0.00000000000E+00 -0.00000000000E+00 -0.45593999997E+02  0.45594000000E+02  0.51100000000E-03 0. -1.
    9900012    2    1    2    0    0  0.31546029425E+02  0.24136826565E+02  0.86849177062E+01  0.50528853862E+02  0.29999981799E+02 0.  0.
         12    1    1    2    0    0 -0.31546029425E+02 -0.24136826565E+02 -0.86849177062E+01  0.40659146138E+02  0.00000000000E+00 0. -1.
         11    1    3    3    0    0 -0.20077521434E+01 -0.79236335610E+00  0.53571089070E+00  0.22239367745E+01  0.51100000000E-03 0. -1.
        -11    1    3    3    0    0  0.22698342612E+02  0.27420934866E+02  0.21676712742E+01  0.35662602615E+02  0.51100000000E-03 0.  1.
         12    1    3    3    0    0  0.10855438956E+02 -0.24917449442E+01  0.59815355413E+01  0.12642314473E+02  0.00000000000E+00 0. -1.
</event>
<event>
 7    1  0.2838209E-011  0.5052887E+02  0.7816164E-02  0.1300439E+00
        -11   -1    0    0    0    0  0.00000000000E+00  0.00000000000E+00  0.45593999997E+02  0.45594000000E+02  0.51100000000E-03 0.  1.
         11   -1    0    0    0    0 -0.00000000000E+00 -0.00000000000E+00 -0.45593999997E+02  0.45594000000E+02  0.51100000000E-03 0. -1.
    9900012    2    1    2    0    0 -0.14581936093E+02 -0.34586249250E+02  0.15630833345E+02  0.50528874967E+02  0.30000045950E+02 0.  0.
         12    1    1    2    0    0  0.14581936093E+02  0.34586249250E+02 -0.15630833345E+02  0.40659125033E+02  0.00000000000E+00 0. -1.
         11    1    3    3    0    0  0.13067686059E+01  0.22191362434E+01  0.25191418879E+01  0.36025388227E+01  0.51100000000E-03 0. -1.
        -11    1    3    3    0    0 -0.20672821726E+02 -0.26239570386E+02  0.10730631767E+02  0.35085995361E+02  0.51100000000E-03 0.  1.
         12    1    3    3    0    0  0.47841170264E+01 -0.10565815108E+02  0.23810596901E+01  0.11840340783E+02  0.00000000000E+00 0. -1.
</event>
<event>
 7    1  0.2838209E-011  0.5052886E+02  0.7816164E-02  0.1300439E+00
        -11   -1    0    0    0    0  0.00000000000E+00  0.00000000000E+00  0.45593999997E+02  0.45594000000E+02  0.51100000000E-03 0. -1.
         11   -1    0    0    0    0 -0.00000000000E+00 -0.00000000000E+00 -0.45593999997E+02  0.45594000000E+02  0.51100000000E-03 0.  1.
    9900012    2    1    2    0    0  0.89104888408E+00  0.27395240045E+02 -0.30031186309E+02  0.50528864540E+02  0.30000014254E+02 0.  0.
         12    1    1    2    0    0 -0.89104888408E+00 -0.27395240045E+02  0.30031186309E+02  0.40659135460E+02  0.00000000000E+00 0. -1.
         11    1    3    3    0    0  0.53721109019E+01  0.11796817345E+02  0.40580035291E+00  0.12968775933E+02  0.51100000000E-03 0. -1.
        -11    1    3    3    0    0 -0.64857478459E+00  0.11773158685E+02 -0.74579029290E+01  0.13951639009E+02  0.51100000000E-03 0.  1.
        -12    1    3    3    0    0 -0.38324872332E+01  0.38252640149E+01 -0.22979083733E+02  0.23608449598E+02  0.00000000000E+00 0.  1.
</event>
<event>
 7    1  0.2838209E-011  0.5052885E+02  0.7816164E-02  0.1300439E+00
        -11   -1    0    0    0    0  0.00000000000E+00  0.00000000000E+00  0.45593999997E+02  0.45594000000E+02  0.51100000000E-03 0.  1.
         11   -1    0    0    0    0 -0.00000000000E+00 -0.00000000000E+00 -0.45593999997E+02  0.45594000000E+02  0.51100000000E-03 0. -1.
    9900012    2    1    2    0    0  0.95441250312E+01 -0.34609853754E+02  0.19084919732E+02  0.50528850222E+02  0.29999970735E+02 0.  0.
         12    1    1    2    0    0 -0.95441250312E+01  0.34609853754E+02 -0.19084919732E+02  0.40659149778E+02  0.00000000000E+00 0. -1.
         11    1    3    3    0    0  0.61557583957E+01 -0.60332595192E+01  0.12452450614E+01  0.87088585576E+01  0.51100000000E-03 0. -1.
        -11    1    3    3    0    0  0.12464386444E+02 -0.13790871324E+02  0.15714481168E+02  0.24341199229E+02  0.51100000000E-03 0.  1.
         12    1    3    3    0    0 -0.90760198083E+01 -0.14785722911E+02  0.21251935026E+01  0.17478792435E+02  0.00000000000E+00 0. -1.
</event>
<event>
 7    1  0.2838209E-011  0.5052886E+02  0.7816164E-02  0.1300439E+00
        -11   -1    0    0    0    0  0.00000000000E+00  0.00000000000E+00  0.45593999997E+02  0.45594000000E+02  0.51100000000E-03 0.  1.
         11   -1    0    0    0    0 -0.00000000000E+00 -0.00000000000E+00 -0.45593999997E+02  0.45594000000E+02  0.51100000000E-03 0. -1.
    9900012    2    1    2    0    0  0.17297928559E+02  0.35916821391E+01  0.36620308032E+02  0.50528862363E+02  0.30000007638E+02 0.  0.
         12    1    1    2    0    0 -0.17297928559E+02 -0.35916821391E+01 -0.36620308032E+02  0.40659137637E+02  0.00000000000E+00 0. -1.
         11    1    3    3    0    0 -0.53194683900E+01  0.25989060868E+01  0.52595016749E+01  0.79191801930E+01  0.51100000000E-03 0. -1.
        -11    1    3    3    0    0  0.15147595753E+02  0.83321221103E+01  0.13619539920E+02  0.22008311699E+02  0.51100000000E-03 0.  1.
        -12    1    3    3    0    0  0.74698011966E+01 -0.73393460580E+01  0.17741266437E+02  0.20601370471E+02  0.00000000000E+00 0.  1.
</event>
<event>
 7    1  0.2838209E-011  0.5052886E+02  0.7816164E-02  0.1300439E+00
        -11   -1    0    0    0    0  0.00000000000E+00  0.00000000000E+00  0.45593999997E+02  0.45594000000E+02  0.51100000000E-03 0.  1.
         11   -1    0    0    0    0 -0.00000000000E+00 -0.00000000000E+00 -0.45593999997E+02  0.45594000000E+02  0.51100000000E-03 0. -1.
    9900012    2    1    2    0    0  0.56075268639E+01  0.24114908301E+02  0.32252018647E+02  0.50528857526E+02  0.29999992935E+02 0.  0.
         12    1    1    2    0    0 -0.56075268639E+01 -0.24114908301E+02 -0.32252018647E+02  0.40659142474E+02  0.00000000000E+00 0. -1.
         11    1    3    3    0    0 -0.11091303733E+02  0.80716995299E+01  0.89459491373E+01  0.16376793276E+02  0.51100000000E-03 0. -1.
        -11    1    3    3    0    0  0.44955506393E+01  0.23828310547E+01  0.10899448755E+02  0.12028542838E+02  0.51100000000E-03 0.  1.
        -12    1    3    3    0    0  0.12203279957E+02  0.13660377717E+02  0.12406620756E+02  0.22123521411E+02  0.00000000000E+00 0.  1.
</event>
<event>
 7    1  0.2838209E-011  0.5052885E+02  0.7816164E-02  0.1300439E+00
        -11   -1    0    0    0    0  0.00000000000E+00  0.00000000000E+00  0.45593999997E+02  0.45594000000E+02  0.51100000000E-03 0.  1.
         11   -1    0    0    0    0 -0.00000000000E+00 -0.00000000000E+00 -0.45593999997E+02  0.45594000000E+02  0.51100000000E-03 0. -1.
    9900012    2    1    2    0    0 -0.30454343371E+02 -0.26116044531E+02 -0.66069557452E+01  0.50528847570E+02  0.29999962675E+02 0.  0.
         12    1    1    2    0    0  0.30454343371E+02  0.26116044531E+02  0.66069557452E+01  0.40659152430E+02  0.00000000000E+00 0. -1.
         11    1    3    3    0    0 -0.17757636522E+02 -0.87656239848E+01 -0.85725069424E+01  0.21579103184E+02  0.51100000000E-03 0. -1.
        -11    1    3    3    0    0 -0.15989624631E+02 -0.97609452720E+01 -0.34681613938E+01  0.19051831728E+02  0.51100000000E-03 0.  1.
        -12    1    3    3    0    0  0.32929177834E+01 -0.75894752744E+01  0.54337125911E+01  0.98979126583E+01  0.00000000000E+00 0.  1.
</event>
<event>
 7    1  0.2838209E-011  0.5052885E+02  0.7816164E-02  0.1300439E+00
        -11   -1    0    0    0    0  0.00000000000E+00  0.00000000000E+00  0.45593999997E+02  0.45594000000E+02  0.51100000000E-03 0. -1.
         11   -1    0    0    0    0 -0.00000000000E+00 -0.00000000000E+00 -0.45593999997E+02  0.45594000000E+02  0.51100000000E-03 0.  1.
    9900012    2    1    2    0    0  0.10116590999E+02  0.37714106287E+02 -0.11334339993E+02  0.50528849867E+02  0.29999969655E+02 0.  0.
         12    1    1    2    0    0 -0.10116590999E+02 -0.37714106287E+02  0.11334339993E+02  0.40659150133E+02  0.00000000000E+00 0. -1.
         11    1    3    3    0    0  0.35819893348E+01  0.87278496051E+01 -0.29243395028E+01  0.98771335980E+01  0.51100000000E-03 0. -1.
        -11    1    3    3    0    0 -0.17254118436E+01  0.19654995093E+02 -0.16561925961E+02  0.25760304150E+02  0.51100000000E-03 0.  1.
         12    1    3    3    0    0  0.82600135079E+01  0.93312615892E+01  0.81519254709E+01  0.14891412118E+02  0.00000000000E+00 0. -1.
</event>
<event>
 7    1  0.2838209E-011  0.5052886E+02  0.7816164E-02  0.1300439E+00
        -11   -1    0    0    0    0  0.00000000000E+00  0.00000000000E+00  0.45593999997E+02  0.45594000000E+02  0.51100000000E-03 0. -1.
         11   -1    0    0    0    0 -0.00000000000E+00 -0.00000000000E+00 -0.45593999997E+02  0.45594000000E+02  0.51100000000E-03 0.  1.
    9900012    2    1    2    0    0 -0.22163648602E+02  0.14681588131E+02  0.30763446731E+02  0.50528855835E+02  0.29999987796E+02 0.  0.
         12    1    1    2    0    0  0.22163648602E+02 -0.14681588131E+02 -0.30763446731E+02  0.40659144165E+02  0.00000000000E+00 0. -1.
         11    1    3    3    0    0  0.31120340372E+01  0.55118441294E+01 -0.11773405931E+01  0.64382693862E+01  0.51100000000E-03 0. -1.
        -11    1    3    3    0    0 -0.35691025263E+01 -0.16753286362E+01 -0.44182099944E-01  0.39429901346E+01  0.51100000000E-03 0.  1.
        -12    1    3    3    0    0 -0.21706580113E+02  0.10845072638E+02  0.31984969424E+02  0.40147596314E+02  0.00000000000E+00 0.  1.
</event>
<event>
 7    1  0.2838209E-011  0.5052887E+02  0.7816164E-02  0.1300439E+00
        -11   -1    0    0    0    0  0.00000000000E+00  0.00000000000E+00  0.45593999997E+02  0.45594000000E+02  0.51100000000E-03 0. -1.
         11   -1    0    0    0    0 -0.00000000000E+00 -0.00000000000E+00 -0.45593999997E+02  0.45594000000E+02  0.51100000000E-03 0.  1.
    9900012    2    1    2    0    0  0.79041181123E+01  0.39823318291E+02 -0.21893449496E+01  0.50528868257E+02  0.30000025553E+02 0.  0.
         12    1    1    2    0    0 -0.79041181123E+01 -0.39823318291E+02  0.21893449496E+01  0.40659131743E+02  0.00000000000E+00 0. -1.
         11    1    3    3    0    0 -0.21224596847E+01  0.62898864933E+01  0.93814373843E+00  0.67042987065E+01  0.51100000000E-03 0. -1.
        -11    1    3    3    0    0  0.16119517291E+01  0.31056756073E+02 -0.10015747592E+02  0.32671634276E+02  0.51100000000E-03 0.  1.
        -12    1    3    3    0    0  0.84146260679E+01  0.24766757247E+01  0.68882589041E+01  0.11152935275E+02  0.00000000000E+00 0.  1.
</event>
<event>
 7    1  0.2838209E-011  0.5052887E+02  0.7816164E-02  0.1300439E+00
        -11   -1    0    0    0    0  0.00000000000E+00  0.00000000000E+00  0.45593999997E+02  0.45594000000E+02  0.51100000000E-03 0.  1.
         11   -1    0    0    0    0 -0.00000000000E+00 -0.00000000000E+00 -0.45593999997E+02  0.45594000000E+02  0.51100000000E-03 0. -1.
    9900012    2    1    2    0    0  0.27903806230E+02 -0.27093367719E+02  0.11852931158E+02  0.50528868756E+02  0.30000027070E+02 0.  0.
         12    1    1    2    0    0 -0.27903806230E+02  0.27093367719E+02 -0.11852931158E+02  0.40659131244E+02  0.00000000000E+00 0. -1.
         11    1    3    3    0    0 -0.87537329941E+00  0.18942827935E+01 -0.58283985186E+00  0.21666306259E+01  0.51100000000E-03 0. -1.
        -11    1    3    3    0    0 -0.69216510584E-01 -0.10239196500E+01  0.78585035439E+01  0.79252306330E+01  0.51100000000E-03 0.  1.
        -12    1    3    3    0    0  0.28848396040E+02 -0.27963730863E+02  0.45772674659E+01  0.40437007497E+02  0.00000000000E+00 0.  1.
</event>
<event>
 7    1  0.2838209E-011  0.5052892E+02  0.7816164E-02  0.1300439E+00
        -11   -1    0    0    0    0  0.00000000000E+00  0.00000000000E+00  0.45593999997E+02  0.45594000000E+02  0.51100000000E-03 0. -1.
         11   -1    0    0    0    0 -0.00000000000E+00 -0.00000000000E+00 -0.45593999997E+02  0.45594000000E+02  0.51100000000E-03 0.  1.
    9900012    2    1    2    0    0  0.72786920449E+01 -0.10446680137E+02 -0.38614096649E+02  0.50528918065E+02  0.30000176950E+02 0.  0.
         12    1    1    2    0    0 -0.72786920449E+01  0.10446680137E+02  0.38614096649E+02  0.40659081935E+02  0.00000000000E+00 0. -1.
         11    1    3    3    0    0  0.12334819896E+02  0.21301994597E+01 -0.63020761364E+01  0.14014338925E+02  0.51100000000E-03 0. -1.
        -11    1    3    3    0    0 -0.10922017531E+01  0.17640844169E+01 -0.30767864519E+01  0.37109990072E+01  0.51100000000E-03 0.  1.
         12    1    3    3    0    0 -0.39639260984E+01 -0.14340964014E+02 -0.29235234061E+02  0.32803580133E+02  0.00000000000E+00 0. -1.
</event>
<event>
 7    1  0.2838209E-011  0.5052886E+02  0.7816164E-02  0.1300439E+00
        -11   -1    0    0    0    0  0.00000000000E+00  0.00000000000E+00  0.45593999997E+02  0.45594000000E+02  0.51100000000E-03 0. -1.
         11   -1    0    0    0    0 -0.00000000000E+00 -0.00000000000E+00 -0.45593999997E+02  0.45594000000E+02  0.51100000000E-03 0.  1.
    9900012    2    1    2    0    0 -0.29186844209E+02  0.21934592347E+02 -0.17893228631E+02  0.50528857767E+02  0.29999993669E+02 0.  0.
         12    1    1    2    0    0  0.29186844209E+02 -0.21934592347E+02  0.17893228631E+02  0.40659142233E+02  0.00000000000E+00 0. -1.
         11    1    3    3    0    0 -0.14991919051E+01  0.71493151806E+01 -0.83327108482E+01  0.11081261402E+02  0.51100000000E-03 0. -1.
        -11    1    3    3    0    0 -0.11686224827E+02  0.93615943853E+01 -0.15487742355E+02  0.21542457234E+02  0.51100000000E-03 0.  1.
         12    1    3    3    0    0 -0.16001427476E+02  0.54236827807E+01  0.59272245723E+01  0.17905139131E+02  0.00000000000E+00 0. -1.
</event>
<event>
 7    1  0.2838209E-011  0.5052887E+02  0.7816164E-02  0.1300439E+00
        -11   -1    0    0    0    0  0.00000000000E+00  0.00000000000E+00  0.45593999997E+02  0.45594000000E+02  0.51100000000E-03 0.  1.
         11   -1    0    0    0    0 -0.00000000000E+00 -0.00000000000E+00 -0.45593999997E+02  0.45594000000E+02  0.51100000000E-03 0. -1.
    9900012    2    1    2    0    0 -0.30776707674E+02 -0.21477186598E+02  0.15642554469E+02  0.50528870770E+02  0.30000033192E+02 0.  0.
         12    1    1    2    0    0  0.30776707674E+02  0.21477186598E+02 -0.15642554469E+02  0.40659129230E+02  0.00000000000E+00 0. -1.
         11    1    3    3    0    0 -0.54683655043E+01 -0.79858470961E+01  0.18329924782E+01  0.98507175788E+01  0.51100000000E-03 0. -1.
        -11    1    3    3    0    0 -0.64912933241E+01 -0.13375690676E+02  0.15872324158E+02  0.21748026681E+02  0.51100000000E-03 0.  1.
         12    1    3    3    0    0 -0.18817048846E+02 -0.11564882570E+00 -0.20627621667E+01  0.18930126510E+02  0.00000000000E+00 0. -1.
</event>
<event>
 7    1  0.2838209E-011  0.5052886E+02  0.7816164E-02  0.1300439E+00
        -11   -1    0    0    0    0  0.00000000000E+00  0.00000000000E+00  0.45593999997E+02  0.45594000000E+02  0.51100000000E-03 0.  1.
         11   -1    0    0    0    0 -0.00000000000E+00 -0.00000000000E+00 -0.45593999997E+02  0.45594000000E+02  0.51100000000E-03 0. -1.
    9900012    2    1    2    0    0  0.68830270858E+01  0.15248477095E+02  0.37057704464E+02  0.50528861105E+02  0.30000003814E+02 0.  0.
         12    1    1    2    0    0 -0.68830270858E+01 -0.15248477095E+02 -0.37057704464E+02  0.40659138895E+02  0.00000000000E+00 0. -1.
         11    1    3    3    0    0 -0.12820051984E+01 -0.95334542312E+00 -0.27873571844E+01  0.32127504041E+01  0.51100000000E-03 0. -1.
        -11    1    3    3    0    0 -0.22549274774E+01 -0.17228186662E+01  0.13479278527E+02  0.13774750522E+02  0.51100000000E-03 0.  1.
        -12    1    3    3    0    0  0.10419959762E+02  0.17924641184E+02  0.26365783121E+02  0.33541360178E+02  0.00000000000E+00 0.  1.
</event>
<event>
 7    1  0.2838209E-011  0.5052885E+02  0.7816164E-02  0.1300439E+00
        -11   -1    0    0    0    0  0.00000000000E+00  0.00000000000E+00  0.45593999997E+02  0.45594000000E+02  0.51100000000E-03 0.  1.
         11   -1    0    0    0    0 -0.00000000000E+00 -0.00000000000E+00 -0.45593999997E+02  0.45594000000E+02  0.51100000000E-03 0. -1.
    9900012    2    1    2    0    0 -0.18426242504E+02 -0.35450208064E+02  0.75447260403E+01  0.50528849055E+02  0.29999967187E+02 0.  0.
         12    1    1    2    0    0  0.18426242504E+02  0.35450208064E+02 -0.75447260403E+01  0.40659150945E+02  0.00000000000E+00 0. -1.
         11    1    3    3    0    0 -0.11422495133E+02  0.85345978967E+00 -0.34352809039E+01  0.11958383830E+02  0.51100000000E-03 0. -1.
        -11    1    3    3    0    0 -0.11753324522E+00 -0.65073238005E+00  0.15135186148E+00  0.67836151222E+00  0.51100000000E-03 0.  1.
         12    1    3    3    0    0 -0.68862141253E+01 -0.35652935473E+02  0.10828655083E+02  0.37892103712E+02  0.00000000000E+00 0. -1.
</event>
<event>
 7    1  0.2838209E-011  0.5052886E+02  0.7816164E-02  0.1300439E+00
        -11   -1    0    0    0    0  0.00000000000E+00  0.00000000000E+00  0.45593999997E+02  0.45594000000E+02  0.51100000000E-03 0. -1.
         11   -1    0    0    0    0 -0.00000000000E+00 -0.00000000000E+00 -0.45593999997E+02  0.45594000000E+02  0.51100000000E-03 0.  1.
    9900012    2    1    2    0    0 -0.27317718264E+02  0.17393270089E+01 -0.30064635038E+02  0.50528864870E+02  0.30000015257E+02 0.  0.
         12    1    1    2    0    0  0.27317718264E+02 -0.17393270089E+01  0.30064635038E+02  0.40659135130E+02  0.00000000000E+00 0. -1.
         11    1    3    3    0    0 -0.69322324715E+01  0.29608719346E+01 -0.69357035619E+00  0.75699174204E+01  0.51100000000E-03 0. -1.
        -11    1    3    3    0    0  0.52245033080E+01  0.17786556408E+01 -0.43210582238E+01  0.70093220170E+01  0.51100000000E-03 0.  1.
        -12    1    3    3    0    0 -0.25609989101E+02 -0.30002005665E+01 -0.25050006458E+02  0.35949625432E+02  0.00000000000E+00 0.  1.
</event>
<event>
 7    1  0.2838209E-011  0.5052887E+02  0.7816164E-02  0.1300439E+00
        -11   -1    0    0    0    0  0.00000000000E+00  0.00000000000E+00  0.45593999997E+02  0.45594000000E+02  0.51100000000E-03 0.  1.
         11   -1    0    0    0    0 -0.00000000000E+00 -0.00000000000E+00 -0.45593999997E+02  0.45594000000E+02  0.51100000000E-03 0. -1.
    9900012    2    1    2    0    0 -0.12907281346E+01 -0.15352137151E+02  0.37627265213E+02  0.50528865950E+02  0.30000018543E+02 0.  0.
         12    1    1    2    0    0  0.12907281346E+01  0.15352137151E+02 -0.37627265213E+02  0.40659134050E+02  0.00000000000E+00 0. -1.
         11    1    3    3    0    0 -0.19619546194E+01  0.29307678569E+01  0.21206837219E+02  0.21498107155E+02  0.51100000000E-03 0. -1.
        -11    1    3    3    0    0 -0.64267952891E+00  0.59775679481E+00 -0.22684116179E+01  0.24322914488E+01  0.51100000000E-03 0.  1.
        -12    1    3    3    0    0  0.13139060137E+01 -0.18880661803E+02  0.18688839612E+02  0.26598467346E+02  0.00000000000E+00 0.  1.
</event>
<event>
 7    1  0.2838209E-011  0.5052884E+02  0.7816164E-02  0.1300439E+00
        -11   -1    0    0    0    0  0.00000000000E+00  0.00000000000E+00  0.45593999997E+02  0.45594000000E+02  0.51100000000E-03 0.  1.
         11   -1    0    0    0    0 -0.00000000000E+00 -0.00000000000E+00 -0.45593999997E+02  0.45594000000E+02  0.51100000000E-03 0. -1.
    9900012    2    1    2    0    0  0.86923191399E+01 -0.33180392878E+02  0.21832830452E+02  0.50528839050E+02  0.29999936777E+02 0.  0.
         12    1    1    2    0    0 -0.86923191399E+01  0.33180392878E+02 -0.21832830452E+02  0.40659160950E+02  0.00000000000E+00 0. -1.
         11    1    3    3    0    0  0.56762354992E+01  0.23950760504E+01  0.90095776162E+01  0.10914601587E+02  0.51100000000E-03 0. -1.
        -11    1    3    3    0    0  0.11966143662E+00 -0.14415393548E+00 -0.13357223742E+01  0.13487971451E+01  0.51100000000E-03 0.  1.
        -12    1    3    3    0    0  0.28964222041E+01 -0.35431314993E+02  0.14158975210E+02  0.38265440318E+02  0.00000000000E+00 0.  1.
</event>
<event>
 7    1  0.2838209E-011  0.5052886E+02  0.7816164E-02  0.1300439E+00
        -11   -1    0    0    0    0  0.00000000000E+00  0.00000000000E+00  0.45593999997E+02  0.45594000000E+02  0.51100000000E-03 0.  1.
         11   -1    0    0    0    0 -0.00000000000E+00 -0.00000000000E+00 -0.45593999997E+02  0.45594000000E+02  0.51100000000E-03 0. -1.
    9900012    2    1    2    0    0 -0.17310348761E+02  0.32927025573E+01  0.36642543052E+02  0.50528855571E+02  0.29999986994E+02 0.  0.
         12    1    1    2    0    0  0.17310348761E+02 -0.32927025573E+01 -0.36642543052E+02  0.40659144429E+02  0.00000000000E+00 0. -1.
         11    1    3    3    0    0 -0.50468616205E+01  0.77640360355E+01  0.20078098722E+02  0.22110656171E+02  0.51100000000E-03 0.  1.
        -11    1    3    3    0    0  0.63304082845E+00 -0.23940623196E+01 -0.36137656022E+01  0.43808192350E+01  0.51100000000E-03 0. -1.
         12    1    3    3    0    0 -0.12896527969E+02 -0.20772711586E+01  0.20178209933E+02  0.24037380165E+02  0.00000000000E+00 0. -1.
</event>
<event>
 7    1  0.2838209E-011  0.5052886E+02  0.7816164E-02  0.1300439E+00
        -11   -1    0    0    0    0  0.00000000000E+00  0.00000000000E+00  0.45593999997E+02  0.45594000000E+02  0.51100000000E-03 0. -1.
         11   -1    0    0    0    0 -0.00000000000E+00 -0.00000000000E+00 -0.45593999997E+02  0.45594000000E+02  0.51100000000E-03 0.  1.
    9900012    2    1    2    0    0 -0.83192975663E+01  0.28594102084E+02 -0.27682705255E+02  0.50528861344E+02  0.30000004542E+02 0.  0.
         12    1    1    2    0    0  0.83192975663E+01 -0.28594102084E+02  0.27682705255E+02  0.40659138656E+02  0.00000000000E+00 0. -1.
         11    1    3    3    0    0 -0.98189682583E+01  0.22304136312E+02 -0.10957035259E+02  0.26719716619E+02  0.51100000000E-03 0. -1.
        -11    1    3    3    0    0 -0.20569715584E+01  0.10225000144E+02 -0.64995481638E+01  0.12289258991E+02  0.51100000000E-03 0.  1.
         12    1    3    3    0    0  0.35566422504E+01 -0.39350343720E+01 -0.10226121832E+02  0.11519885734E+02  0.00000000000E+00 0. -1.
</event>
<event>
 7    1  0.2838209E-011  0.5052885E+02  0.7816164E-02  0.1300439E+00
        -11   -1    0    0    0    0  0.00000000000E+00  0.00000000000E+00  0.45593999997E+02  0.45594000000E+02  0.51100000000E-03 0. -1.
         11   -1    0    0    0    0 -0.00000000000E+00 -0.00000000000E+00 -0.45593999997E+02  0.45594000000E+02  0.51100000000E-03 0.  1.
    9900012    2    1    2    0    0 -0.89200604499E+01 -0.22054189655E+02 -0.32972890903E+02  0.50528852268E+02  0.29999976953E+02 0.  0.
         12    1    1    2    0    0  0.89200604499E+01  0.22054189655E+02  0.32972890903E+02  0.40659147732E+02  0.00000000000E+00 0. -1.
         11    1    3    3    0    0  0.43132701501E+01  0.25030760324E+01 -0.43571143062E+01  0.66222454161E+01  0.51100000000E-03 0. -1.
        -11    1    3    3    0    0  0.61713717100E+00 -0.12105304810E+01  0.23575127546E+01  0.27210492429E+01  0.51100000000E-03 0.  1.
        -12    1    3    3    0    0 -0.13850467771E+02 -0.23346735207E+02 -0.30973289352E+02  0.41185557609E+02  0.00000000000E+00 0.  1.
</event>
<event>
 7    1  0.2838209E-011  0.5052877E+02  0.7816164E-02  0.1300439E+00
        -11   -1    0    0    0    0  0.00000000000E+00  0.00000000000E+00  0.45593999997E+02  0.45594000000E+02  0.51100000000E-03 0.  1.
         11   -1    0    0    0    0 -0.00000000000E+00 -0.00000000000E+00 -0.45593999997E+02  0.45594000000E+02  0.51100000000E-03 0. -1.
    9900012    2    1    2    0    0  0.31458372247E+02 -0.17372902131E+01  0.25700687266E+02  0.50528773647E+02  0.29999737975E+02 0.  0.
         12    1    1    2    0    0 -0.31458372247E+02  0.17372902131E+01 -0.25700687266E+02  0.40659226353E+02  0.00000000000E+00 0. -1.
         11    1    3    3    0    0  0.73028925060E+01  0.50355241588E+01  0.11225300543E+02  0.14307205005E+02  0.51100000000E-03 0. -1.
        -11    1    3    3    0    0  0.25560354363E+02  0.69867546481E+00  0.11809268957E+02  0.28165203641E+02  0.51100000000E-03 0.  1.
         12    1    3    3    0    0 -0.14048746226E+01 -0.74714898367E+01  0.26661177664E+01  0.80563650010E+01  0.00000000000E+00 0. -1.
</event>
<event>
 7    1  0.2838209E-011  0.5052885E+02  0.7816164E-02  0.1300439E+00
        -11   -1    0    0    0    0  0.00000000000E+00  0.00000000000E+00  0.45593999997E+02  0.45594000000E+02  0.51100000000E-03 0.  1.
         11   -1    0    0    0    0 -0.00000000000E+00 -0.00000000000E+00 -0.45593999997E+02  0.45594000000E+02  0.51100000000E-03 0. -1.
    9900012    2    1    2    0    0  0.16027745367E+02 -0.17874818416E+02  0.32814157901E+02  0.50528847111E+02  0.29999961278E+02 0.  0.
         12    1    1    2    0    0 -0.16027745367E+02  0.17874818416E+02 -0.32814157901E+02  0.40659152889E+02  0.00000000000E+00 0. -1.
         11    1    3    3    0    0  0.11298371010E+02 -0.71966427176E+01  0.65754944176E+01  0.14922532659E+02  0.51100000000E-03 0. -1.
        -11    1    3    3    0    0  0.87604024372E+01 -0.88041300855E+01  0.28149468843E+02  0.30767677095E+02  0.51100000000E-03 0.  1.
         12    1    3    3    0    0 -0.40310280801E+01 -0.18740456132E+01 -0.19108053598E+01  0.48386373563E+01  0.00000000000E+00 0. -1.
</event>
<event>
 7    1  0.2838209E-011  0.5052885E+02  0.7816164E-02  0.1300439E+00
        -11   -1    0    0    0    0  0.00000000000E+00  0.00000000000E+00  0.45593999997E+02  0.45594000000E+02  0.51100000000E-03 0.  1.
         11   -1    0    0    0    0 -0.00000000000E+00 -0.00000000000E+00 -0.45593999997E+02  0.45594000000E+02  0.51100000000E-03 0. -1.
    9900012    2    1    2    0    0  0.22711340732E+02  0.18489292504E+01  0.33674063437E+02  0.50528854835E+02  0.29999984755E+02 0.  0.
         12    1    1    2    0    0 -0.22711340732E+02 -0.18489292504E+01 -0.33674063437E+02  0.40659145165E+02  0.00000000000E+00 0. -1.
         11    1    3    3    0    0  0.15099721817E+02 -0.47683355961E+01  0.15934700890E+02  0.22464490113E+02  0.51100000000E-03 0. -1.
        -11    1    3    3    0    0  0.13619706851E+02  0.18625892966E+01  0.89451547811E+01  0.16400653886E+02  0.51100000000E-03 0.  1.
         12    1    3    3    0    0 -0.60080879355E+01  0.47546755499E+01  0.87942077659E+01  0.11663710836E+02  0.00000000000E+00 0. -1.
</event>
<event>
 7    1  0.2838209E-011  0.5052899E+02  0.7816164E-02  0.1300438E+00
        -11   -1    0    0    0    0  0.00000000000E+00  0.00000000000E+00  0.45593999997E+02  0.45594000000E+02  0.51100000000E-03 0. -1.
         11   -1    0    0    0    0 -0.00000000000E+00 -0.00000000000E+00 -0.45593999997E+02  0.45594000000E+02  0.51100000000E-03 0.  1.
    9900012    2    1    2    0    0  0.30647721786E+02 -0.26020294665E+02 -0.60676354094E+01  0.50528993807E+02  0.30000407173E+02 0.  0.
         12    1    1    2    0    0 -0.30647721786E+02  0.26020294665E+02  0.60676354094E+01  0.40659006193E+02  0.00000000000E+00 0. -1.
         11    1    3    3    0    0 -0.14465928331E+01 -0.49732864487E+01  0.41663962972E+01  0.66471849149E+01  0.51100000000E-03 0. -1.
        -11    1    3    3    0    0  0.11380321168E+02 -0.17071874075E+02 -0.18469939671E+00  0.20518155581E+02  0.51100000000E-03 0.  1.
        -12    1    3    3    0    0  0.20713993452E+02 -0.39751341409E+01 -0.10049332310E+02  0.23363653311E+02  0.00000000000E+00 0.  1.
</event>
<event>
 7    1  0.2838209E-011  0.5052885E+02  0.7816164E-02  0.1300439E+00
        -11   -1    0    0    0    0  0.00000000000E+00  0.00000000000E+00  0.45593999997E+02  0.45594000000E+02  0.51100000000E-03 0.  1.
         11   -1    0    0    0    0 -0.00000000000E+00 -0.00000000000E+00 -0.45593999997E+02  0.45594000000E+02  0.51100000000E-03 0. -1.
    9900012    2    1    2    0    0 -0.51517871027E+01  0.39225834809E+02 -0.93786571290E+01  0.50528852980E+02  0.29999979119E+02 0.  0.
         12    1    1    2    0    0  0.51517871027E+01 -0.39225834809E+02  0.93786571290E+01  0.40659147020E+02  0.00000000000E+00 0. -1.
         11    1    3    3    0    0 -0.11450364077E+02  0.89170890158E+01  0.21342201010E+01  0.14669022112E+02  0.51100000000E-03 0. -1.
        -11    1    3    3    0    0 -0.40496042849E+00  0.87999721049E+01  0.27100294950E+01  0.92167110252E+01  0.51100000000E-03 0.  1.
         12    1    3    3    0    0  0.67035374026E+01  0.21508773688E+02 -0.14222906725E+02  0.26643119844E+02  0.00000000000E+00 0. -1.
</event>
<event>
 7    1  0.2838209E-011  0.5052880E+02  0.7816164E-02  0.1300439E+00
        -11   -1    0    0    0    0  0.00000000000E+00  0.00000000000E+00  0.45593999997E+02  0.45594000000E+02  0.51100000000E-03 0. -1.
         11   -1    0    0    0    0 -0.00000000000E+00 -0.00000000000E+00 -0.45593999997E+02  0.45594000000E+02  0.51100000000E-03 0.  1.
    9900012    2    1    2    0    0 -0.25868017117E+02 -0.30613348296E+02  0.68439236557E+01  0.50528798157E+02  0.29999812478E+02 0.  0.
         12    1    1    2    0    0  0.25868017117E+02  0.30613348296E+02 -0.68439236557E+01  0.40659201843E+02  0.00000000000E+00 0. -1.
         11    1    3    3    0    0  0.47797805679E+00 -0.53322286538E+01  0.62300427107E+01  0.82142898584E+01  0.51100000000E-03 0. -1.
        -11    1    3    3    0    0 -0.35149370669E+01 -0.91663203440E+01 -0.84323353501E+01  0.12941425383E+02  0.51100000000E-03 0.  1.
        -12    1    3    3    0    0 -0.22831058107E+02 -0.16114799298E+02  0.90462162952E+01  0.29373082916E+02  0.00000000000E+00 0.  1.
</event>
<event>
 7    1  0.2838209E-011  0.5052886E+02  0.7816164E-02  0.1300439E+00
        -11   -1    0    0    0    0  0.00000000000E+00  0.00000000000E+00  0.45593999997E+02  0.45594000000E+02  0.51100000000E-03 0.  1.
         11   -1    0    0    0    0 -0.00000000000E+00 -0.00000000000E+00 -0.45593999997E+02  0.45594000000E+02  0.51100000000E-03 0. -1.
    9900012    2    1    2    0    0  0.65585788925E+01 -0.40126225067E+02 -0.19199717472E+00  0.50528858861E+02  0.29999996995E+02 0.  0.
         12    1    1    2    0    0 -0.65585788925E+01  0.40126225067E+02  0.19199717472E+00  0.40659141139E+02  0.00000000000E+00 0. -1.
         11    1    3    3    0    0  0.18464162822E+00  0.24441979557E+01 -0.18821608315E+01  0.30904248630E+01  0.51100000000E-03 0. -1.
        -11    1    3    3    0    0  0.25444872231E+01 -0.32933799650E+02 -0.71675969204E+01  0.33800651184E+02  0.51100000000E-03 0.  1.
        -12    1    3    3    0    0  0.38294500412E+01 -0.96366233727E+01  0.88577605771E+01  0.13637782814E+02  0.00000000000E+00 0.  1.
</event>
<event>
 7    1  0.3142343E-011  0.5052888E+02  0.7816164E-02  0.1300439E+00
        -11   -1    0    0    0    0  0.00000000000E+00  0.00000000000E+00  0.45593999997E+02  0.45594000000E+02  0.51100000000E-03 0. -1.
         11   -1    0    0    0    0 -0.00000000000E+00 -0.00000000000E+00 -0.45593999997E+02  0.45594000000E+02  0.51100000000E-03 0.  1.
    9900012    2    1    2    0    0 -0.22765129595E+02 -0.31969541704E+02 -0.10623639067E+02  0.50528875203E+02  0.30000046666E+02 0.  0.
         12    1    1    2    0    0  0.22765129595E+02  0.31969541704E+02  0.10623639067E+02  0.40659124797E+02  0.00000000000E+00 0. -1.
         11    1    3    3    0    0 -0.12285033415E+01  0.29495134540E+01 -0.51375740440E+00  0.32361701141E+01  0.51100000000E-03 0. -1.
        -11    1    3    3    0    0 -0.13086113936E+02 -0.49990126405E+01 -0.79972766076E+01  0.16130497163E+02  0.51100000000E-03 0.  1.
        -12    1    3    3    0    0 -0.84505123178E+01 -0.29920042518E+02 -0.21126050550E+01  0.31162207926E+02  0.00000000000E+00 0.  1.
</event>
<event>
 7    1  0.2838209E-011  0.5052884E+02  0.7816164E-02  0.1300439E+00
        -11   -1    0    0    0    0  0.00000000000E+00  0.00000000000E+00  0.45593999997E+02  0.45594000000E+02  0.51100000000E-03 0.  1.
         11   -1    0    0    0    0 -0.00000000000E+00 -0.00000000000E+00 -0.45593999997E+02  0.45594000000E+02  0.51100000000E-03 0. -1.
    9900012    2    1    2    0    0 -0.12697586195E+02  0.38625309878E+02 -0.15626626704E+00  0.50528835259E+02  0.29999925252E+02 0.  0.
         12    1    1    2    0    0  0.12697586195E+02 -0.38625309878E+02  0.15626626704E+00  0.40659164741E+02  0.00000000000E+00 0. -1.
         11    1    3    3    0    0 -0.67398889824E+01  0.15020647052E+01 -0.43353382039E+01  0.81533710499E+01  0.51100000000E-03 0. -1.
        -11    1    3    3    0    0 -0.10063820995E+02  0.86030230801E+01  0.27717376826E+01  0.13526826279E+02  0.51100000000E-03 0.  1.
         12    1    3    3    0    0  0.41061237826E+01  0.28520222092E+02  0.14073342543E+01  0.28848637930E+02  0.00000000000E+00 0. -1.
</event>
<event>
 7    1  0.2838209E-011  0.5052892E+02  0.7816164E-02  0.1300439E+00
        -11   -1    0    0    0    0  0.00000000000E+00  0.00000000000E+00  0.45593999997E+02  0.45594000000E+02  0.51100000000E-03 0.  1.
         11   -1    0    0    0    0 -0.00000000000E+00 -0.00000000000E+00 -0.45593999997E+02  0.45594000000E+02  0.51100000000E-03 0. -1.
    9900012    2    1    2    0    0 -0.29449280297E+02 -0.27837174746E+02 -0.33154478943E+01  0.50528922261E+02  0.30000189704E+02 0.  0.
         12    1    1    2    0    0  0.29449280297E+02  0.27837174746E+02  0.33154478943E+01  0.40659077739E+02  0.00000000000E+00 0. -1.
         11    1    3    3    0    0 -0.11633677278E+02 -0.74510392534E+01  0.38842441739E+01  0.14350881020E+02  0.51100000000E-03 0. -1.
        -11    1    3    3    0    0 -0.98730171867E+00 -0.65787391720E+01  0.74130645914E+01  0.99603263337E+01  0.51100000000E-03 0.  1.
         12    1    3    3    0    0 -0.16828301300E+02 -0.13807396321E+02 -0.14612756660E+02  0.26217714908E+02  0.00000000000E+00 0. -1.
</event>
<event>
 7    1  0.2838209E-011  0.5052886E+02  0.7816164E-02  0.1300439E+00
        -11   -1    0    0    0    0  0.00000000000E+00  0.00000000000E+00  0.45593999997E+02  0.45594000000E+02  0.51100000000E-03 0. -1.
         11   -1    0    0    0    0 -0.00000000000E+00 -0.00000000000E+00 -0.45593999997E+02  0.45594000000E+02  0.51100000000E-03 0.  1.
    9900012    2    1    2    0    0 -0.54135482197E+01 -0.13995671228E+02 -0.37788628679E+02  0.50528858655E+02  0.29999996368E+02 0.  0.
         12    1    1    2    0    0  0.54135482197E+01  0.13995671228E+02  0.37788628679E+02  0.40659141345E+02  0.00000000000E+00 0. -1.
         11    1    3    3    0    0  0.89634563154E+00 -0.16174638785E+01  0.27279214455E+01  0.32956305259E+01  0.51100000000E-03 0. -1.
        -11    1    3    3    0    0 -0.26718285017E+01  0.40453441433E+01 -0.20772119252E+01  0.52743043544E+01  0.51100000000E-03 0.  1.
        -12    1    3    3    0    0 -0.36380653496E+01 -0.16423551493E+02 -0.38439338199E+02  0.41958923775E+02  0.00000000000E+00 0.  1.
</event>
<event>
 7    1  0.3146425E-011  0.5052887E+02  0.7816164E-02  0.1300439E+00
        -11   -1    0    0    0    0  0.00000000000E+00  0.00000000000E+00  0.45593999997E+02  0.45594000000E+02  0.51100000000E-03 0. -1.
         11   -1    0    0    0    0 -0.00000000000E+00 -0.00000000000E+00 -0.45593999997E+02  0.45594000000E+02  0.51100000000E-03 0.  1.
    9900012    2    1    2    0    0  0.36671975193E+02  0.15952601477E+02  0.73379460844E+01  0.50528871736E+02  0.30000036128E+02 0.  0.
         12    1    1    2    0    0 -0.36671975193E+02 -0.15952601477E+02 -0.73379460844E+01  0.40659128264E+02  0.00000000000E+00 0. -1.
         11    1    3    3    0    0  0.11546257413E-01  0.31801616630E+01 -0.52692925045E+01  0.61545922105E+01  0.51100000000E-03 0. -1.
        -11    1    3    3    0    0  0.12213439825E+02  0.11770220380E+02  0.10190513098E+02  0.19787692074E+02  0.51100000000E-03 0.  1.
        -12    1    3    3    0    0  0.24446989111E+02  0.10022194341E+01  0.24167254911E+01  0.24586587451E+02  0.00000000000E+00 0.  1.
</event>
<event>
 7    1  0.2838209E-011  0.5052886E+02  0.7816164E-02  0.1300439E+00
        -11   -1    0    0    0    0  0.00000000000E+00  0.00000000000E+00  0.45593999997E+02  0.45594000000E+02  0.51100000000E-03 0. -1.
         11   -1    0    0    0    0 -0.00000000000E+00 -0.00000000000E+00 -0.45593999997E+02  0.45594000000E+02  0.51100000000E-03 0.  1.
    9900012    2    1    2    0    0  0.38676050435E+02  0.12492159690E+02  0.11289182714E+01  0.50528863420E+02  0.30000010851E+02 0.  0.
         12    1    1    2    0    0 -0.38676050435E+02 -0.12492159690E+02 -0.11289182714E+01  0.40659136580E+02  0.00000000000E+00 0. -1.
         11    1    3    3    0    0  0.10300149435E+02  0.10418799917E+02  0.10541225654E+01  0.14688622969E+02  0.51100000000E-03 0. -1.
        -11    1    3    3    0    0  0.23276390422E+02  0.71303748155E+01  0.75363776660E+01  0.25483908348E+02  0.51100000000E-03 0.  1.
         12    1    3    3    0    0  0.50995105780E+01 -0.50570150422E+01 -0.74615819600E+01  0.10356332102E+02  0.00000000000E+00 0. -1.
</event>
<event>
 7    1  0.2838209E-011  0.5052885E+02  0.7816164E-02  0.1300439E+00
        -11   -1    0    0    0    0  0.00000000000E+00  0.00000000000E+00  0.45593999997E+02  0.45594000000E+02  0.51100000000E-03 0.  1.
         11   -1    0    0    0    0 -0.00000000000E+00 -0.00000000000E+00 -0.45593999997E+02  0.45594000000E+02  0.51100000000E-03 0. -1.
    9900012    2    1    2    0    0  0.21205587489E+00  0.29117706457E+01  0.40554195889E+02  0.50528853671E+02  0.29999981219E+02 0.  0.
         12    1    1    2    0    0 -0.21205587489E+00 -0.29117706457E+01 -0.40554195889E+02  0.40659146329E+02  0.00000000000E+00 0. -1.
         11    1    3    3    0    0 -0.54111508862E+01  0.18272937912E+01  0.19437202718E+01  0.60330427869E+01  0.51100000000E-03 0. -1.
        -11    1    3    3    0    0 -0.19055639115E+01 -0.89466310462E+01  0.20694761465E+02  0.22626235508E+02  0.51100000000E-03 0.  1.
        -12    1    3    3    0    0  0.75287706726E+01  0.10031107901E+02  0.17915714152E+02  0.21869575376E+02  0.00000000000E+00 0.  1.
</event>
<event>
 7    1  0.2838209E-011  0.5052886E+02  0.7816164E-02  0.1300439E+00
        -11   -1    0    0    0    0  0.00000000000E+00  0.00000000000E+00  0.45593999997E+02  0.45594000000E+02  0.51100000000E-03 0.  1.
         11   -1    0    0    0    0 -0.00000000000E+00 -0.00000000000E+00 -0.45593999997E+02  0.45594000000E+02  0.51100000000E-03 0. -1.
    9900012    2    1    2    0    0 -0.29947077932E+02 -0.48263435769E+01  0.27074793423E+02  0.50528861939E+02  0.30000006349E+02 0.  0.
         12    1    1    2    0    0  0.29947077932E+02  0.48263435769E+01 -0.27074793423E+02  0.40659138061E+02  0.00000000000E+00 0. -1.
         11    1    3    3    0    0 -0.11936980283E+01 -0.76744401921E+01  0.10249424160E+02  0.12859729512E+02  0.51100000000E-03 0. -1.
        -11    1    3    3    0    0 -0.39031814228E+01 -0.44304408546E+01  0.87294483146E+01  0.10538828186E+02  0.51100000000E-03 0.  1.
        -12    1    3    3    0    0 -0.24850198481E+02  0.72785374699E+01  0.80959209486E+01  0.27130304242E+02  0.00000000000E+00 0.  1.
</event>
<event>
 7    1  0.2838209E-011  0.5052885E+02  0.7816164E-02  0.1300439E+00
        -11   -1    0    0    0    0  0.00000000000E+00  0.00000000000E+00  0.45593999997E+02  0.45594000000E+02  0.51100000000E-03 0. -1.
         11   -1    0    0    0    0 -0.00000000000E+00 -0.00000000000E+00 -0.45593999997E+02  0.45594000000E+02  0.51100000000E-03 0.  1.
    9900012    2    1    2    0    0 -0.10380364324E+01  0.21790012990E+02 -0.34311570819E+02  0.50528854930E+02  0.29999985044E+02 0.  0.
         12    1    1    2    0    0  0.10380364324E+01 -0.21790012990E+02  0.34311570819E+02  0.40659145070E+02  0.00000000000E+00 0. -1.
         11    1    3    3    0    0 -0.28423832136E+01  0.21907902981E+02 -0.84490742021E+01  0.23652107951E+02  0.51100000000E-03 0. -1.
        -11    1    3    3    0    0 -0.69690369079E+00  0.19731538652E+01 -0.20460317914E+02  0.20567051814E+02  0.51100000000E-03 0.  1.
        -12    1    3    3    0    0  0.25012504720E+01 -0.20910438562E+01 -0.54021787038E+01  0.63096951654E+01  0.00000000000E+00 0.  1.
</event>
<event>
 7    1  0.2838209E-011  0.5052886E+02  0.7816164E-02  0.1300439E+00
        -11   -1    0    0    0    0  0.00000000000E+00  0.00000000000E+00  0.45593999997E+02  0.45594000000E+02  0.51100000000E-03 0.  1.
         11   -1    0    0    0    0 -0.00000000000E+00 -0.00000000000E+00 -0.45593999997E+02  0.45594000000E+02  0.51100000000E-03 0. -1.
    9900012    2    1    2    0    0  0.34156149830E+02  0.12921730766E+02  0.17876010233E+02  0.50528862785E+02  0.30000008923E+02 0.  0.
         12    1    1    2    0    0 -0.34156149830E+02 -0.12921730766E+02 -0.17876010233E+02  0.40659137215E+02  0.00000000000E+00 0. -1.
         11    1    3    3    0    0  0.80481387000E+01 -0.64801020086E+01  0.51664947570E+01  0.11552355903E+02  0.51100000000E-03 0. -1.
        -11    1    3    3    0    0  0.11515626105E+02  0.51651926730E+01 -0.33111856826E+01  0.13048096061E+02  0.51100000000E-03 0.  1.
        -12    1    3    3    0    0  0.14592385025E+02  0.14236640102E+02  0.16020701158E+02  0.25928410821E+02  0.00000000000E+00 0.  1.
</event>
<event>
 7    1  0.2838209E-011  0.5052886E+02  0.7816164E-02  0.1300439E+00
        -11   -1    0    0    0    0  0.00000000000E+00  0.00000000000E+00  0.45593999997E+02  0.45594000000E+02  0.51100000000E-03 0.  1.
         11   -1    0    0    0    0 -0.00000000000E+00 -0.00000000000E+00 -0.45593999997E+02  0.45594000000E+02  0.51100000000E-03 0. -1.
    9900012    2    1    2    0    0  0.15522938682E+02 -0.12089816757E+02  0.35581461787E+02  0.50528859362E+02  0.29999998517E+02 0.  0.
         12    1    1    2    0    0 -0.15522938682E+02  0.12089816757E+02 -0.35581461787E+02  0.40659140638E+02  0.00000000000E+00 0. -1.
         11    1    3    3    0    0  0.10434084981E+02 -0.15571203913E+02  0.13286274557E+02  0.22975152068E+02  0.51100000000E-03 0. -1.
        -11    1    3    3    0    0  0.55804027115E+01 -0.39530510231E+01  0.17248488808E+02  0.18554726439E+02  0.51100000000E-03 0.  1.
        -12    1    3    3    0    0 -0.49154901086E+00  0.74344381786E+01  0.50466984222E+01  0.89989808549E+01  0.00000000000E+00 0.  1.
</event>
<event>
 7    1  0.2838209E-011  0.5052886E+02  0.7816164E-02  0.1300439E+00
        -11   -1    0    0    0    0  0.00000000000E+00  0.00000000000E+00  0.45593999997E+02  0.45594000000E+02  0.51100000000E-03 0.  1.
         11   -1    0    0    0    0 -0.00000000000E+00 -0.00000000000E+00 -0.45593999997E+02  0.45594000000E+02  0.51100000000E-03 0. -1.
    9900012    2    1    2    0    0  0.48334169317E+01  0.78472009477E+01  0.39600827167E+02  0.50528855958E+02  0.29999988169E+02 0.  0.
         12    1    1    2    0    0 -0.48334169317E+01 -0.78472009477E+01 -0.39600827167E+02  0.40659144042E+02  0.00000000000E+00 0. -1.
         11    1    3    3    0    0  0.56782559959E+01 -0.33026288221E+01  0.18163939684E+02  0.19315244068E+02  0.51100000000E-03 0. -1.
        -11    1    3    3    0    0 -0.24037946593E+00  0.96820246863E+00  0.20980131337E+02  0.21003835590E+02  0.51100000000E-03 0.  1.
         12    1    3    3    0    0 -0.60445959831E+00  0.10181627301E+02  0.45675614503E+00  0.10209776299E+02  0.00000000000E+00 0. -1.
</event>
<event>
 7    1  0.2838209E-011  0.5052886E+02  0.7816164E-02  0.1300439E+00
        -11   -1    0    0    0    0  0.00000000000E+00  0.00000000000E+00  0.45593999997E+02  0.45594000000E+02  0.51100000000E-03 0.  1.
         11   -1    0    0    0    0 -0.00000000000E+00 -0.00000000000E+00 -0.45593999997E+02  0.45594000000E+02  0.51100000000E-03 0. -1.
    9900012    2    1    2    0    0 -0.46925069596E+01 -0.23342338932E+02  0.32958783430E+02  0.50528858180E+02  0.29999994923E+02 0.  0.
         12    1    1    2    0    0  0.46925069596E+01  0.23342338932E+02 -0.32958783430E+02  0.40659141820E+02  0.00000000000E+00 0. -1.
         11    1    3    3    0    0  0.49085649162E+00 -0.74049690954E+00 -0.30777075521E+01  0.32033669483E+01  0.51100000000E-03 0. -1.
        -11    1    3    3    0    0  0.32758830037E+01  0.23846895875E+01  0.70569754015E+01  0.81375091988E+01  0.51100000000E-03 0.  1.
        -12    1    3    3    0    0 -0.84592464548E+01 -0.24986531610E+02  0.28979515581E+02  0.39187982032E+02  0.00000000000E+00 0.  1.
</event>
<event>
 7    1  0.2838209E-011  0.5052886E+02  0.7816164E-02  0.1300439E+00
        -11   -1    0    0    0    0  0.00000000000E+00  0.00000000000E+00  0.45593999997E+02  0.45594000000E+02  0.51100000000E-03 0.  1.
         11   -1    0    0    0    0 -0.00000000000E+00 -0.00000000000E+00 -0.45593999997E+02  0.45594000000E+02  0.51100000000E-03 0. -1.
    9900012    2    1    2    0    0  0.23711366893E+02  0.12226869551E+02  0.30682901098E+02  0.50528859838E+02  0.29999999963E+02 0.  0.
         12    1    1    2    0    0 -0.23711366893E+02 -0.12226869551E+02 -0.30682901098E+02  0.40659140162E+02  0.00000000000E+00 0. -1.
         11    1    3    3    0    0  0.37196628312E+01  0.12010184273E+02  0.73466926918E+01  0.14562084728E+02  0.51100000000E-03 0.  1.
        -11    1    3    3    0    0  0.59193098419E+01 -0.69967758291E+01  0.19513905870E+01  0.93702201944E+01  0.51100000000E-03 0. -1.
         12    1    3    3    0    0  0.14072394220E+02  0.72134611065E+01  0.21384817819E+02  0.26596554915E+02  0.00000000000E+00 0. -1.
</event>
<event>
 7    1  0.2838209E-011  0.5052883E+02  0.7816164E-02  0.1300439E+00
        -11   -1    0    0    0    0  0.00000000000E+00  0.00000000000E+00  0.45593999997E+02  0.45594000000E+02  0.51100000000E-03 0.  1.
         11   -1    0    0    0    0 -0.00000000000E+00 -0.00000000000E+00 -0.45593999997E+02  0.45594000000E+02  0.51100000000E-03 0. -1.
    9900012    2    1    2    0    0 -0.89435076618E+01  0.37868344238E+02 -0.11797037358E+02  0.50528832337E+02  0.29999916370E+02 0.  0.
         12    1    1    2    0    0  0.89435076618E+01 -0.37868344238E+02  0.11797037358E+02  0.40659167663E+02  0.00000000000E+00 0. -1.
         11    1    3    3    0    0 -0.60638987266E+01  0.32411050166E+00 -0.86938218284E+00  0.61344715359E+01  0.51100000000E-03 0. -1.
        -11    1    3    3    0    0 -0.56252561374E+01  0.11217984323E+01  0.12901763352E+01  0.58793276462E+01  0.51100000000E-03 0.  1.
         12    1    3    3    0    0  0.27456472022E+01  0.36422435304E+02 -0.12217831511E+02  0.38515033154E+02  0.00000000000E+00 0. -1.
</event>
<event>
 7    1  0.2838209E-011  0.5052886E+02  0.7816164E-02  0.1300439E+00
        -11   -1    0    0    0    0  0.00000000000E+00  0.00000000000E+00  0.45593999997E+02  0.45594000000E+02  0.51100000000E-03 0.  1.
         11   -1    0    0    0    0 -0.00000000000E+00 -0.00000000000E+00 -0.45593999997E+02  0.45594000000E+02  0.51100000000E-03 0. -1.
    9900012    2    1    2    0    0 -0.20103127239E+02 -0.31551677279E+02 -0.15922355885E+02  0.50528862272E+02  0.30000007362E+02 0.  0.
         12    1    1    2    0    0  0.20103127239E+02  0.31551677279E+02  0.15922355885E+02  0.40659137728E+02  0.00000000000E+00 0. -1.
         11    1    3    3    0    0  0.30977990316E+01  0.46844939133E+00 -0.10176591938E+01  0.32941515096E+01  0.51100000000E-03 0. -1.
        -11    1    3    3    0    0 -0.38192057334E+01  0.22974184805E+01 -0.47945075660E+01  0.65461261193E+01  0.51100000000E-03 0.  1.
        -12    1    3    3    0    0 -0.19381720537E+02 -0.34317545150E+02 -0.10110189125E+02  0.40688584643E+02  0.00000000000E+00 0.  1.
</event>
<event>
 7    1  0.2838209E-011  0.5052886E+02  0.7816164E-02  0.1300439E+00
        -11   -1    0    0    0    0  0.00000000000E+00  0.00000000000E+00  0.45593999997E+02  0.45594000000E+02  0.51100000000E-03 0. -1.
         11   -1    0    0    0    0 -0.00000000000E+00 -0.00000000000E+00 -0.45593999997E+02  0.45594000000E+02  0.51100000000E-03 0.  1.
    9900012    2    1    2    0    0  0.29836084628E+02  0.27500518266E+02 -0.25874425964E+01  0.50528864372E+02  0.30000013746E+02 0.  0.
         12    1    1    2    0    0 -0.29836084628E+02 -0.27500518266E+02  0.25874425964E+01  0.40659135628E+02  0.00000000000E+00 0. -1.
         11    1    3    3    0    0 -0.16182868619E+01  0.52825924744E+00  0.35053366738E+01  0.38968314895E+01  0.51100000000E-03 0.  1.
        -11    1    3    3    0    0  0.13803060629E+02  0.37316976971E+00  0.12842875401E+01  0.13867701077E+02  0.51100000000E-03 0. -1.
        -12    1    3    3    0    0  0.17651310860E+02  0.26599089249E+02 -0.73770668104E+01  0.32764331806E+02  0.00000000000E+00 0.  1.
</event>
<event>
 7    1  0.2838209E-011  0.5052875E+02  0.7816164E-02  0.1300439E+00
        -11   -1    0    0    0    0  0.00000000000E+00  0.00000000000E+00  0.45593999997E+02  0.45594000000E+02  0.51100000000E-03 0. -1.
         11   -1    0    0    0    0 -0.00000000000E+00 -0.00000000000E+00 -0.45593999997E+02  0.45594000000E+02  0.51100000000E-03 0.  1.
    9900012    2    1    2    0    0 -0.26368709218E+02  0.14403045427E+02 -0.27393762443E+02  0.50528748111E+02  0.29999660358E+02 0.  0.
         12    1    1    2    0    0  0.26368709218E+02 -0.14403045427E+02  0.27393762443E+02  0.40659251889E+02  0.00000000000E+00 0. -1.
         11    1    3    3    0    0 -0.11612349459E+02  0.74278306420E+01 -0.50851877400E+01  0.14692803089E+02  0.51100000000E-03 0. -1.
        -11    1    3    3    0    0 -0.17725463428E+02 -0.15644099699E+01 -0.95393716460E+01  0.20190072906E+02  0.51100000000E-03 0.  1.
         12    1    3    3    0    0  0.29691036700E+01  0.85396247550E+01 -0.12769203057E+02  0.15645872116E+02  0.00000000000E+00 0. -1.
</event>
<event>
 7    1  0.2838209E-011  0.5052886E+02  0.7816164E-02  0.1300439E+00
        -11   -1    0    0    0    0  0.00000000000E+00  0.00000000000E+00  0.45593999997E+02  0.45594000000E+02  0.51100000000E-03 0. -1.
         11   -1    0    0    0    0 -0.00000000000E+00 -0.00000000000E+00 -0.45593999997E+02  0.45594000000E+02  0.51100000000E-03 0.  1.
    9900012    2    1    2    0    0  0.37709224365E+02  0.15101836579E+02 -0.17648531235E+01  0.50528858632E+02  0.29999996297E+02 0.  0.
         12    1    1    2    0    0 -0.37709224365E+02 -0.15101836579E+02  0.17648531235E+01  0.40659141368E+02  0.00000000000E+00 0. -1.
         11    1    3    3    0    0  0.49516992839E+01 -0.35228899450E+01 -0.40132093519E+01  0.72825770800E+01  0.51100000000E-03 0. -1.
        -11    1    3    3    0    0  0.15766017845E+02  0.48836663618E+01 -0.88597365165E+01  0.18732657238E+02  0.51100000000E-03 0.  1.
         12    1    3    3    0    0  0.16991507236E+02  0.13741060162E+02  0.11108092745E+02  0.24513624313E+02  0.00000000000E+00 0. -1.
</event>
<event>
 7    1  0.2838209E-011  0.5052886E+02  0.7816164E-02  0.1300439E+00
        -11   -1    0    0    0    0  0.00000000000E+00  0.00000000000E+00  0.45593999997E+02  0.45594000000E+02  0.51100000000E-03 0.  1.
         11   -1    0    0    0    0 -0.00000000000E+00 -0.00000000000E+00 -0.45593999997E+02  0.45594000000E+02  0.51100000000E-03 0. -1.
    9900012    2    1    2    0    0  0.24972199744E+02 -0.26754301201E+02  0.17713329370E+02  0.50528862894E+02  0.30000009253E+02 0.  0.
         12    1    1    2    0    0 -0.24972199744E+02  0.26754301201E+02 -0.17713329370E+02  0.40659137106E+02  0.00000000000E+00 0. -1.
         11    1    3    3    0    0  0.84017973848E+01 -0.31224509108E+01  0.57312343462E+01  0.10638935397E+02  0.51100000000E-03 0.  1.
        -11    1    3    3    0    0  0.13987318023E+02 -0.24551630008E+01 -0.20598235110E+01  0.14349765294E+02  0.51100000000E-03 0. -1.
        -12    1    3    3    0    0  0.25830843370E+01 -0.21176687289E+02  0.14041918535E+02  0.25540162203E+02  0.00000000000E+00 0.  1.
</event>
<event>
 7    1  0.2838209E-011  0.5052886E+02  0.7816164E-02  0.1300439E+00
        -11   -1    0    0    0    0  0.00000000000E+00  0.00000000000E+00  0.45593999997E+02  0.45594000000E+02  0.51100000000E-03 0. -1.
         11   -1    0    0    0    0 -0.00000000000E+00 -0.00000000000E+00 -0.45593999997E+02  0.45594000000E+02  0.51100000000E-03 0.  1.
    9900012    2    1    2    0    0 -0.67651220268E+01  0.36518702469E+02  0.16546391384E+02  0.50528861127E+02  0.30000003881E+02 0.  0.
         12    1    1    2    0    0  0.67651220268E+01 -0.36518702469E+02 -0.16546391384E+02  0.40659138873E+02  0.00000000000E+00 0. -1.
         11    1    3    3    0    0 -0.77281222831E+01  0.39405168869E+02  0.11322789763E+02  0.41721658355E+02  0.51100000000E-03 0.  1.
        -11    1    3    3    0    0 -0.14001023762E+01 -0.18700083541E+01 -0.62469151176E+00  0.24181517021E+01  0.51100000000E-03 0. -1.
        -12    1    3    3    0    0  0.23631026325E+01 -0.10164580454E+01  0.58482931325E+01  0.63890510699E+01  0.00000000000E+00 0.  1.
</event>
<event>
 7    1  0.2838209E-011  0.5052886E+02  0.7816164E-02  0.1300439E+00
        -11   -1    0    0    0    0  0.00000000000E+00  0.00000000000E+00  0.45593999997E+02  0.45594000000E+02  0.51100000000E-03 0.  1.
         11   -1    0    0    0    0 -0.00000000000E+00 -0.00000000000E+00 -0.45593999997E+02  0.45594000000E+02  0.51100000000E-03 0. -1.
    9900012    2    1    2    0    0 -0.29562739304E+02  0.89802091773E+01  0.26430392833E+02  0.50528863544E+02  0.30000011229E+02 0.  0.
         12    1    1    2    0    0  0.29562739304E+02 -0.89802091773E+01 -0.26430392833E+02  0.40659136456E+02  0.00000000000E+00 0. -1.
         11    1    3    3    0    0 -0.49069985250E+01  0.65782971692E+01 -0.21936921739E+01  0.84949934541E+01  0.51100000000E-03 0. -1.
        -11    1    3    3    0    0 -0.11871074131E+02  0.43297508095E+01  0.24936496988E+01  0.12879729507E+02  0.51100000000E-03 0.  1.
        -12    1    3    3    0    0 -0.12784666648E+02 -0.19278388013E+01  0.26130435308E+02  0.29154140583E+02  0.00000000000E+00 0.  1.
</event>
<event>
 7    1  0.2838209E-011  0.5052885E+02  0.7816164E-02  0.1300439E+00
        -11   -1    0    0    0    0  0.00000000000E+00  0.00000000000E+00  0.45593999997E+02  0.45594000000E+02  0.51100000000E-03 0. -1.
         11   -1    0    0    0    0 -0.00000000000E+00 -0.00000000000E+00 -0.45593999997E+02  0.45594000000E+02  0.51100000000E-03 0.  1.
    9900012    2    1    2    0    0 -0.42091307731E+00  0.39847749601E+02  0.80712973613E+01  0.50528853954E+02  0.29999982078E+02 0.  0.
         12    1    1    2    0    0  0.42091307731E+00 -0.39847749601E+02 -0.80712973613E+01  0.40659146046E+02  0.00000000000E+00 0. -1.
         11    1    3    3    0    0 -0.63291625050E+01  0.30863664366E+01 -0.44641924935E+00  0.70557243571E+01  0.51100000000E-03 0. -1.
        -11    1    3    3    0    0  0.42273232063E+01  0.62334996504E+01  0.10400335794E+02  0.12841096693E+02  0.51100000000E-03 0.  1.
        -12    1    3    3    0    0  0.16809262214E+01  0.30527883514E+02 -0.18826191835E+01  0.30632032904E+02  0.00000000000E+00 0.  1.
</event>
<event>
 7    1  0.2838209E-011  0.5052886E+02  0.7816164E-02  0.1300439E+00
        -11   -1    0    0    0    0  0.00000000000E+00  0.00000000000E+00  0.45593999997E+02  0.45594000000E+02  0.51100000000E-03 0. -1.
         11   -1    0    0    0    0 -0.00000000000E+00 -0.00000000000E+00 -0.45593999997E+02  0.45594000000E+02  0.51100000000E-03 0.  1.
    9900012    2    1    2    0    0  0.15032818022E+02 -0.37147573547E+02 -0.68729570735E+01  0.50528863548E+02  0.30000011239E+02 0.  0.
         12    1    1    2    0    0 -0.15032818022E+02  0.37147573547E+02  0.68729570735E+01  0.40659136452E+02  0.00000000000E+00 0. -1.
         11    1    3    3    0    0  0.15400392235E+02 -0.10226719536E+02  0.48993798244E+01  0.19124899905E+02  0.51100000000E-03 0. -1.
        -11    1    3    3    0    0  0.40026737641E+01 -0.49544159989E+01 -0.66458443320E+00  0.64038510196E+01  0.51100000000E-03 0.  1.
        -12    1    3    3    0    0 -0.43702479770E+01 -0.21966438012E+02 -0.11107752465E+02  0.25000112623E+02  0.00000000000E+00 0.  1.
</event>
<event>
 7    1  0.2838209E-011  0.5052887E+02  0.7816164E-02  0.1300439E+00
        -11   -1    0    0    0    0  0.00000000000E+00  0.00000000000E+00  0.45593999997E+02  0.45594000000E+02  0.51100000000E-03 0.  1.
         11   -1    0    0    0    0 -0.00000000000E+00 -0.00000000000E+00 -0.45593999997E+02  0.45594000000E+02  0.51100000000E-03 0. -1.
    9900012    2    1    2    0    0 -0.55039211521E+00  0.37940114109E+02  0.14608561117E+02  0.50528865134E+02  0.30000016062E+02 0.  0.
         12    1    1    2    0    0  0.55039211521E+00 -0.37940114109E+02 -0.14608561117E+02  0.40659134866E+02  0.00000000000E+00 0. -1.
         11    1    3    3    0    0 -0.36911902482E+01  0.11970687434E+02  0.12498881668E+02  0.17695883315E+02  0.51100000000E-03 0.  1.
        -11    1    3    3    0    0 -0.42614531164E+01 -0.53845275516E+00  0.30935553344E+01  0.52933920034E+01  0.51100000000E-03 0. -1.
         12    1    3    3    0    0  0.74022512494E+01  0.26507879431E+02 -0.98387588520E+00  0.27539589816E+02  0.00000000000E+00 0. -1.
</event>
<event>
 7    1  0.2838209E-011  0.5052886E+02  0.7816164E-02  0.1300439E+00
        -11   -1    0    0    0    0  0.00000000000E+00  0.00000000000E+00  0.45593999997E+02  0.45594000000E+02  0.51100000000E-03 0.  1.
         11   -1    0    0    0    0 -0.00000000000E+00 -0.00000000000E+00 -0.45593999997E+02  0.45594000000E+02  0.51100000000E-03 0. -1.
    9900012    2    1    2    0    0  0.24745537315E+02  0.26662950506E+02  0.18163455547E+02  0.50528860017E+02  0.30000000509E+02 0.  0.
         12    1    1    2    0    0 -0.24745537315E+02 -0.26662950506E+02 -0.18163455547E+02  0.40659139983E+02  0.00000000000E+00 0. -1.
         11    1    3    3    0    0  0.73295973046E+01  0.33350112576E+01  0.12100744362E+02  0.14535243758E+02  0.51100000000E-03 0. -1.
        -11    1    3    3    0    0  0.12481753379E+02  0.15650627551E+01  0.53419830486E+01  0.13666761576E+02  0.51100000000E-03 0.  1.
         12    1    3    3    0    0  0.49341866322E+01  0.21762876494E+02  0.72072813677E+00  0.22326854683E+02  0.00000000000E+00 0. -1.
</event>
<event>
 7    1  0.2838209E-011  0.5052891E+02  0.7816164E-02  0.1300439E+00
        -11   -1    0    0    0    0  0.00000000000E+00  0.00000000000E+00  0.45593999997E+02  0.45594000000E+02  0.51100000000E-03 0.  1.
         11   -1    0    0    0    0 -0.00000000000E+00 -0.00000000000E+00 -0.45593999997E+02  0.45594000000E+02  0.51100000000E-03 0. -1.
    9900012    2    1    2    0    0 -0.40382998919E+02 -0.27827531066E+01 -0.38250871588E+01  0.50528909893E+02  0.30000152112E+02 0.  0.
         12    1    1    2    0    0  0.40382998919E+02  0.27827531066E+01  0.38250871588E+01  0.40659090107E+02  0.00000000000E+00 0. -1.
         11    1    3    3    0    0 -0.58586167951E+01  0.63093264951E+01 -0.82256489241E+01  0.11907656867E+02  0.51100000000E-03 0. -1.
        -11    1    3    3    0    0 -0.52574517974E+01 -0.16277014050E+01 -0.45263344759E+01  0.71258624261E+01  0.51100000000E-03 0.  1.
        -12    1    3    3    0    0 -0.29266930326E+02 -0.74643781967E+01  0.89268962413E+01  0.31495390601E+02  0.00000000000E+00 0.  1.
</event>
<event>
 7    1  0.2838209E-011  0.5052886E+02  0.7816164E-02  0.1300439E+00
        -11   -1    0    0    0    0  0.00000000000E+00  0.00000000000E+00  0.45593999997E+02  0.45594000000E+02  0.51100000000E-03 0.  1.
         11   -1    0    0    0    0 -0.00000000000E+00 -0.00000000000E+00 -0.45593999997E+02  0.45594000000E+02  0.51100000000E-03 0. -1.
    9900012    2    1    2    0    0  0.20859877695E+02  0.28700846257E+02 -0.19856794923E+02  0.50528863537E+02  0.30000011206E+02 0.  0.
         12    1    1    2    0    0 -0.20859877695E+02 -0.28700846257E+02  0.19856794923E+02  0.40659136463E+02  0.00000000000E+00 0. -1.
         11    1    3    3    0    0  0.41822574804E+01  0.16323770591E+02 -0.10568399770E+02  0.19890898368E+02  0.51100000000E-03 0. -1.
        -11    1    3    3    0    0 -0.24664352047E+01 -0.19721365883E+01 -0.56020915095E+01  0.64308673508E+01  0.51100000000E-03 0.  1.
        -12    1    3    3    0    0  0.19144055419E+02  0.14349212255E+02 -0.36863036442E+01  0.24207097818E+02  0.00000000000E+00 0.  1.
</event>
<event>
 7    1  0.2838209E-011  0.5052898E+02  0.7816164E-02  0.1300438E+00
        -11   -1    0    0    0    0  0.00000000000E+00  0.00000000000E+00  0.45593999997E+02  0.45594000000E+02  0.51100000000E-03 0. -1.
         11   -1    0    0    0    0 -0.00000000000E+00 -0.00000000000E+00 -0.45593999997E+02  0.45594000000E+02  0.51100000000E-03 0.  1.
    9900012    2    1    2    0    0 -0.49769029424E+00  0.33835340762E+02 -0.22540592216E+02  0.50528975447E+02  0.30000351368E+02 0.  0.
         12    1    1    2    0    0  0.49769029424E+00 -0.33835340762E+02  0.22540592216E+02  0.40659024553E+02  0.00000000000E+00 0. -1.
         11    1    3    3    0    0 -0.50646617889E-01  0.27996278655E+02 -0.14666995080E+02  0.31605615459E+02  0.51100000000E-03 0. -1.
        -11    1    3    3    0    0 -0.28214211068E+01  0.66255027742E+01 -0.12060157013E+02  0.14046533078E+02  0.51100000000E-03 0.  1.
         12    1    3    3    0    0  0.23743774305E+01 -0.78644066719E+00  0.41865598773E+01  0.48768269101E+01  0.00000000000E+00 0. -1.
</event>
<event>
 7    1  0.2838209E-011  0.5052885E+02  0.7816164E-02  0.1300439E+00
        -11   -1    0    0    0    0  0.00000000000E+00  0.00000000000E+00  0.45593999997E+02  0.45594000000E+02  0.51100000000E-03 0.  1.
         11   -1    0    0    0    0 -0.00000000000E+00 -0.00000000000E+00 -0.45593999997E+02  0.45594000000E+02  0.51100000000E-03 0. -1.
    9900012    2    1    2    0    0  0.16584685902E+02  0.22220761126E+02  0.29738059459E+02  0.50528853282E+02  0.29999980035E+02 0.  0.
         12    1    1    2    0    0 -0.16584685902E+02 -0.22220761126E+02 -0.29738059459E+02  0.40659146718E+02  0.00000000000E+00 0. -1.
         11    1    3    3    0    0  0.60374537691E+01  0.49050691603E+01 -0.73488950035E-01  0.77791999825E+01  0.51100000000E-03 0. -1.
        -11    1    3    3    0    0  0.72978666921E+01 -0.27824470905E+01  0.16964377154E+02  0.18675946095E+02  0.51100000000E-03 0.  1.
        -12    1    3    3    0    0  0.32493654408E+01  0.20098139056E+02  0.12847171255E+02  0.24073707204E+02  0.00000000000E+00 0.  1.
</event>
<event>
 7    1  0.2838209E-011  0.5052886E+02  0.7816164E-02  0.1300439E+00
        -11   -1    0    0    0    0  0.00000000000E+00  0.00000000000E+00  0.45593999997E+02  0.45594000000E+02  0.51100000000E-03 0.  1.
         11   -1    0    0    0    0 -0.00000000000E+00 -0.00000000000E+00 -0.45593999997E+02  0.45594000000E+02  0.51100000000E-03 0. -1.
    9900012    2    1    2    0    0 -0.32883856706E+02 -0.15887275557E+02  0.17872111595E+02  0.50528856756E+02  0.29999990596E+02 0.  0.
         12    1    1    2    0    0  0.32883856706E+02  0.15887275557E+02 -0.17872111595E+02  0.40659143244E+02  0.00000000000E+00 0. -1.
         11    1    3    3    0    0  0.30459513352E+01 -0.48701326438E+00  0.49788035885E+01  0.58569178661E+01  0.51100000000E-03 0. -1.
        -11    1    3    3    0    0  0.17396670739E+01 -0.29493621402E+00  0.19653756689E+01  0.26412365815E+01  0.51100000000E-03 0.  1.
        -12    1    3    3    0    0 -0.37669475115E+02 -0.15105326079E+02  0.10927932337E+02  0.42030702308E+02  0.00000000000E+00 0.  1.
</event>
<event>
 7    1  0.2838209E-011  0.5052885E+02  0.7816164E-02  0.1300439E+00
        -11   -1    0    0    0    0  0.00000000000E+00  0.00000000000E+00  0.45593999997E+02  0.45594000000E+02  0.51100000000E-03 0. -1.
         11   -1    0    0    0    0 -0.00000000000E+00 -0.00000000000E+00 -0.45593999997E+02  0.45594000000E+02  0.51100000000E-03 0.  1.
    9900012    2    1    2    0    0  0.93578732074E+01 -0.35568080021E+02 -0.17335172870E+02  0.50528851881E+02  0.29999975777E+02 0.  0.
         12    1    1    2    0    0 -0.93578732074E+01  0.35568080021E+02  0.17335172870E+02  0.40659148119E+02  0.00000000000E+00 0. -1.
         11    1    3    3    0    0  0.10327023430E+02 -0.50719930118E+01 -0.81511693707E+01  0.14100144978E+02  0.51100000000E-03 0. -1.
        -11    1    3    3    0    0  0.72112475563E+01 -0.19721428217E+02 -0.91374366803E+01  0.22900427323E+02  0.51100000000E-03 0.  1.
         12    1    3    3    0    0 -0.81803977789E+01 -0.10774658792E+02 -0.46566818772E-01  0.13528279579E+02  0.00000000000E+00 0. -1.
</event>
<event>
 7    1  0.2838209E-011  0.5052886E+02  0.7816164E-02  0.1300439E+00
        -11   -1    0    0    0    0  0.00000000000E+00  0.00000000000E+00  0.45593999997E+02  0.45594000000E+02  0.51100000000E-03 0. -1.
         11   -1    0    0    0    0 -0.00000000000E+00 -0.00000000000E+00 -0.45593999997E+02  0.45594000000E+02  0.51100000000E-03 0.  1.
    9900012    2    1    2    0    0  0.20778089720E+02  0.34855028504E+02  0.25618917633E+01  0.50528864325E+02  0.30000013603E+02 0.  0.
         12    1    1    2    0    0 -0.20778089720E+02 -0.34855028504E+02 -0.25618917633E+01  0.40659135675E+02  0.00000000000E+00 0. -1.
         11    1    3    3    0    0  0.34137744868E+01  0.32738016799E+01  0.28638494987E+01  0.55293098935E+01  0.51100000000E-03 0. -1.
        -11    1    3    3    0    0  0.15553685574E+02  0.18322500161E+02  0.11963620352E+02  0.26846961826E+02  0.51100000000E-03 0.  1.
        -12    1    3    3    0    0  0.18106296590E+01  0.13258726663E+02 -0.12265578088E+02  0.18152592606E+02  0.00000000000E+00 0.  1.
</event>
<event>
 7    1  0.2838209E-011  0.5052888E+02  0.7816164E-02  0.1300439E+00
        -11   -1    0    0    0    0  0.00000000000E+00  0.00000000000E+00  0.45593999997E+02  0.45594000000E+02  0.51100000000E-03 0.  1.
         11   -1    0    0    0    0 -0.00000000000E+00 -0.00000000000E+00 -0.45593999997E+02  0.45594000000E+02  0.51100000000E-03 0. -1.
    9900012    2    1    2    0    0 -0.32329657733E+02  0.23493385768E+02  0.74845058782E+01  0.50528883282E+02  0.30000071225E+02 0.  0.
         12    1    1    2    0    0  0.32329657733E+02 -0.23493385768E+02 -0.74845058782E+01  0.40659116718E+02  0.00000000000E+00 0. -1.
         11    1    3    3    0    0 -0.80824969260E+01  0.11622964175E+02 -0.67982016990E+00  0.14173292084E+02  0.51100000000E-03 0. -1.
        -11    1    3    3    0    0 -0.97114810563E+01  0.17215323862E+02  0.27857022606E+01  0.19960971352E+02  0.51100000000E-03 0.  1.
         12    1    3    3    0    0 -0.14535679751E+02 -0.53449022680E+01  0.53786237874E+01  0.16394619847E+02  0.00000000000E+00 0. -1.
</event>
<event>
 7    1  0.2838209E-011  0.5052889E+02  0.7816164E-02  0.1300439E+00
        -11   -1    0    0    0    0  0.00000000000E+00  0.00000000000E+00  0.45593999997E+02  0.45594000000E+02  0.51100000000E-03 0. -1.
         11   -1    0    0    0    0 -0.00000000000E+00 -0.00000000000E+00 -0.45593999997E+02  0.45594000000E+02  0.51100000000E-03 0.  1.
    9900012    2    1    2    0    0 -0.30507495387E+02  0.22944639706E+02 -0.13999981179E+02  0.50528889840E+02  0.30000091157E+02 0.  0.
         12    1    1    2    0    0  0.30507495387E+02 -0.22944639706E+02  0.13999981179E+02  0.40659110160E+02  0.00000000000E+00 0. -1.
         11    1    3    3    0    0 -0.40966702764E+01  0.10002561490E+02  0.52349405651E+00  0.10821644515E+02  0.51100000000E-03 0. -1.
        -11    1    3    3    0    0 -0.17889128768E+01  0.77696794637E+01  0.35515804889E+01  0.87282216104E+01  0.51100000000E-03 0.  1.
         12    1    3    3    0    0 -0.24621912233E+02  0.51723987522E+01 -0.18075055724E+02  0.30979023715E+02  0.00000000000E+00 0. -1.
</event>
<event>
 7    1  0.2838209E-011  0.5052886E+02  0.7816164E-02  0.1300439E+00
        -11   -1    0    0    0    0  0.00000000000E+00  0.00000000000E+00  0.45593999997E+02  0.45594000000E+02  0.51100000000E-03 0. -1.
         11   -1    0    0    0    0 -0.00000000000E+00 -0.00000000000E+00 -0.45593999997E+02  0.45594000000E+02  0.51100000000E-03 0.  1.
    9900012    2    1    2    0    0 -0.47790409505E+01  0.36040783060E+02 -0.18204086173E+02  0.50528855526E+02  0.29999986856E+02 0.  0.
         12    1    1    2    0    0  0.47790409505E+01 -0.36040783060E+02  0.18204086173E+02  0.40659144474E+02  0.00000000000E+00 0. -1.
         11    1    3    3    0    0 -0.13281431443E+02  0.22752334856E+02 -0.15343095370E+02  0.30487304544E+02  0.51100000000E-03 0. -1.
        -11    1    3    3    0    0  0.28349651493E+01 -0.11809037277E+01 -0.32838196574E+01  0.44961130786E+01  0.51100000000E-03 0.  1.
        -12    1    3    3    0    0  0.56674253436E+01  0.14469351932E+02  0.42282885486E+00  0.15545437903E+02  0.00000000000E+00 0.  1.
</event>
<event>
 7    1  0.2838209E-011  0.5052885E+02  0.7816164E-02  0.1300439E+00
        -11   -1    0    0    0    0  0.00000000000E+00  0.00000000000E+00  0.45593999997E+02  0.45594000000E+02  0.51100000000E-03 0.  1.
         11   -1    0    0    0    0 -0.00000000000E+00 -0.00000000000E+00 -0.45593999997E+02  0.45594000000E+02  0.51100000000E-03 0. -1.
    9900012    2    1    2    0    0 -0.19514070203E+02  0.29184603529E+02  0.20509178825E+02  0.50528850536E+02  0.29999971690E+02 0.  0.
         12    1    1    2    0    0  0.19514070203E+02 -0.29184603529E+02 -0.20509178825E+02  0.40659149464E+02  0.00000000000E+00 0. -1.
         11    1    3    3    0    0 -0.12282805072E+02  0.88124693770E+01 -0.33475095167E+01  0.15483305112E+02  0.51100000000E-03 0. -1.
        -11    1    3    3    0    0  0.34408728212E+01  0.14399283520E+01  0.20409147292E+01  0.42518622536E+01  0.51100000000E-03 0.  1.
        -12    1    3    3    0    0 -0.10672137952E+02  0.18932205800E+02  0.21815773612E+02  0.30793683171E+02  0.00000000000E+00 0.  1.
</event>
<event>
 7    1  0.2838209E-011  0.5052886E+02  0.7816164E-02  0.1300439E+00
        -11   -1    0    0    0    0  0.00000000000E+00  0.00000000000E+00  0.45593999997E+02  0.45594000000E+02  0.51100000000E-03 0.  1.
         11   -1    0    0    0    0 -0.00000000000E+00 -0.00000000000E+00 -0.45593999997E+02  0.45594000000E+02  0.51100000000E-03 0. -1.
    9900012    2    1    2    0    0  0.22496192238E+01 -0.31288971715E+02  0.25867067860E+02  0.50528859118E+02  0.29999997774E+02 0.  0.
         12    1    1    2    0    0 -0.22496192238E+01  0.31288971715E+02 -0.25867067860E+02  0.40659140882E+02  0.00000000000E+00 0. -1.
         11    1    3    3    0    0  0.10780411528E+01 -0.10986362156E+02  0.36027094522E+01  0.11612141999E+02  0.51100000000E-03 0. -1.
        -11    1    3    3    0    0  0.29301291259E+01 -0.12477167622E+02 -0.23484903971E+01  0.13029995240E+02  0.51100000000E-03 0.  1.
        -12    1    3    3    0    0 -0.17585510549E+01 -0.78254419377E+01  0.24612848805E+02  0.25886721878E+02  0.00000000000E+00 0.  1.
</event>
<event>
 7    1  0.2838209E-011  0.5052887E+02  0.7816164E-02  0.1300439E+00
        -11   -1    0    0    0    0  0.00000000000E+00  0.00000000000E+00  0.45593999997E+02  0.45594000000E+02  0.51100000000E-03 0. -1.
         11   -1    0    0    0    0 -0.00000000000E+00 -0.00000000000E+00 -0.45593999997E+02  0.45594000000E+02  0.51100000000E-03 0.  1.
    9900012    2    1    2    0    0  0.20780923748E+01 -0.36320821475E+02  0.18156118943E+02  0.50528865779E+02  0.30000018021E+02 0.  0.
         12    1    1    2    0    0 -0.20780923748E+01  0.36320821475E+02 -0.18156118943E+02  0.40659134221E+02  0.00000000000E+00 0. -1.
         11    1    3    3    0    0  0.49083577003E+01 -0.19282425413E+02  0.93292747060E+00  0.19919193233E+02  0.51100000000E-03 0.  1.
        -11    1    3    3    0    0 -0.15245458229E+01 -0.65800971575E+01 -0.33157864721E+01  0.75243842777E+01  0.51100000000E-03 0. -1.
         12    1    3    3    0    0 -0.13057195027E+01 -0.10458298904E+02  0.20538977945E+02  0.23085288268E+02  0.00000000000E+00 0. -1.
</event>
<event>
 7    1  0.2838209E-011  0.5052885E+02  0.7816164E-02  0.1300439E+00
        -11   -1    0    0    0    0  0.00000000000E+00  0.00000000000E+00  0.45593999997E+02  0.45594000000E+02  0.51100000000E-03 0.  1.
         11   -1    0    0    0    0 -0.00000000000E+00 -0.00000000000E+00 -0.45593999997E+02  0.45594000000E+02  0.51100000000E-03 0. -1.
    9900012    2    1    2    0    0  0.17970142069E+02  0.10101094584E+02  0.35045807542E+02  0.50528846737E+02  0.29999960142E+02 0.  0.
         12    1    1    2    0    0 -0.17970142069E+02 -0.10101094584E+02 -0.35045807542E+02  0.40659153263E+02  0.00000000000E+00 0. -1.
         11    1    3    3    0    0 -0.80211379630E+01  0.55203574032E+01  0.82732043263E+01  0.12777281016E+02  0.51100000000E-03 0. -1.
        -11    1    3    3    0    0  0.73793389291E+01  0.88663689591E+00  0.55016275196E+01  0.92470900093E+01  0.51100000000E-03 0.  1.
         12    1    3    3    0    0  0.18611941102E+02  0.36941002852E+01  0.21270975696E+02  0.28504475712E+02  0.00000000000E+00 0. -1.
</event>
<event>
 7    1  0.2838209E-011  0.5052887E+02  0.7816164E-02  0.1300439E+00
        -11   -1    0    0    0    0  0.00000000000E+00  0.00000000000E+00  0.45593999997E+02  0.45594000000E+02  0.51100000000E-03 0.  1.
         11   -1    0    0    0    0 -0.00000000000E+00 -0.00000000000E+00 -0.45593999997E+02  0.45594000000E+02  0.51100000000E-03 0. -1.
    9900012    2    1    2    0    0 -0.20472440083E+02 -0.27892939099E+02  0.21354817065E+02  0.50528867367E+02  0.30000022850E+02 0.  0.
         12    1    1    2    0    0  0.20472440083E+02  0.27892939099E+02 -0.21354817065E+02  0.40659132633E+02  0.00000000000E+00 0. -1.
         11    1    3    3    0    0 -0.68867313212E+01 -0.32191757320E+01  0.46037251353E+01  0.88873193971E+01  0.51100000000E-03 0. -1.
        -11    1    3    3    0    0 -0.13147852234E+02 -0.16011880780E+02 -0.21658880256E+01  0.20831164530E+02  0.51100000000E-03 0.  1.
         12    1    3    3    0    0 -0.43785652766E+00 -0.86618825875E+01  0.18916979955E+02  0.20810383440E+02  0.00000000000E+00 0. -1.
</event>
<event>
 7    1  0.2838209E-011  0.5052886E+02  0.7816164E-02  0.1300439E+00
        -11   -1    0    0    0    0  0.00000000000E+00  0.00000000000E+00  0.45593999997E+02  0.45594000000E+02  0.51100000000E-03 0.  1.
         11   -1    0    0    0    0 -0.00000000000E+00 -0.00000000000E+00 -0.45593999997E+02  0.45594000000E+02  0.51100000000E-03 0. -1.
    9900012    2    1    2    0    0 -0.22474681730E+02 -0.32756863319E+02  0.86626912516E+01  0.50528860399E+02  0.30000001669E+02 0.  0.
         12    1    1    2    0    0  0.22474681730E+02  0.32756863319E+02 -0.86626912516E+01  0.40659139601E+02  0.00000000000E+00 0. -1.
         11    1    3    3    0    0 -0.73224949858E+01 -0.17989605521E+02  0.14543248358E+01  0.19477163567E+02  0.51100000000E-03 0. -1.
        -11    1    3    3    0    0 -0.62234485872E+01 -0.12799337330E+02  0.13765767995E+02  0.19800270633E+02  0.51100000000E-03 0.  1.
         12    1    3    3    0    0 -0.89287381571E+01 -0.19679204675E+01 -0.65574015789E+01  0.11251426199E+02  0.00000000000E+00 0. -1.
</event>
<event>
 7    1  0.2838209E-011  0.5052884E+02  0.7816164E-02  0.1300439E+00
        -11   -1    0    0    0    0  0.00000000000E+00  0.00000000000E+00  0.45593999997E+02  0.45594000000E+02  0.51100000000E-03 0.  1.
         11   -1    0    0    0    0 -0.00000000000E+00 -0.00000000000E+00 -0.45593999997E+02  0.45594000000E+02  0.51100000000E-03 0. -1.
    9900012    2    1    2    0    0  0.35635875928E+02  0.19462945347E+02 -0.21084023248E+01  0.50528840452E+02  0.29999941039E+02 0.  0.
         12    1    1    2    0    0 -0.35635875928E+02 -0.19462945347E+02  0.21084023248E+01  0.40659159548E+02  0.00000000000E+00 0. -1.
         11    1    3    3    0    0  0.17674286115E+01 -0.57843273169E+01 -0.73323087395E+00  0.60926081592E+01  0.51100000000E-03 0. -1.
        -11    1    3    3    0    0  0.21439051103E+01  0.80208796279E+01 -0.67164655991E+00  0.83295827320E+01  0.51100000000E-03 0.  1.
        -12    1    3    3    0    0  0.31724542206E+02  0.17226393036E+02 -0.70352489092E+00  0.36106649561E+02  0.00000000000E+00 0.  1.
</event>
<event>
 7    1  0.2838209E-011  0.5052887E+02  0.7816164E-02  0.1300439E+00
        -11   -1    0    0    0    0  0.00000000000E+00  0.00000000000E+00  0.45593999997E+02  0.45594000000E+02  0.51100000000E-03 0. -1.
         11   -1    0    0    0    0 -0.00000000000E+00 -0.00000000000E+00 -0.45593999997E+02  0.45594000000E+02  0.51100000000E-03 0.  1.
    9900012    2    1    2    0    0  0.30060999187E+02 -0.63428705625E+01 -0.26632107383E+02  0.50528870364E+02  0.30000031959E+02 0.  0.
         12    1    1    2    0    0 -0.30060999187E+02  0.63428705625E+01  0.26632107383E+02  0.40659129636E+02  0.00000000000E+00 0. -1.
         11    1    3    3    0    0  0.13077228438E+02 -0.70306810060E+01 -0.15250651736E+02  0.21284425237E+02  0.51100000000E-03 0. -1.
        -11    1    3    3    0    0  0.12976036895E+02 -0.90783365670E+01 -0.96553512756E+01  0.18547763661E+02  0.51100000000E-03 0.  1.
         12    1    3    3    0    0  0.40077338541E+01  0.97661470105E+01 -0.17261043708E+01  0.10696681465E+02  0.00000000000E+00 0. -1.
</event>
<event>
 7    1  0.2838209E-011  0.5052886E+02  0.7816164E-02  0.1300439E+00
        -11   -1    0    0    0    0  0.00000000000E+00  0.00000000000E+00  0.45593999997E+02  0.45594000000E+02  0.51100000000E-03 0.  1.
         11   -1    0    0    0    0 -0.00000000000E+00 -0.00000000000E+00 -0.45593999997E+02  0.45594000000E+02  0.51100000000E-03 0. -1.
    9900012    2    1    2    0    0  0.30787916503E+02  0.16204614592E+02  0.21039970961E+02  0.50528859396E+02  0.29999998619E+02 0.  0.
         12    1    1    2    0    0 -0.30787916503E+02 -0.16204614592E+02 -0.21039970961E+02  0.40659140604E+02  0.00000000000E+00 0. -1.
         11    1    3    3    0    0 -0.75515552724E-01  0.43602225077E+01  0.61478808704E+01  0.75374851492E+01  0.51100000000E-03 0. -1.
        -11    1    3    3    0    0  0.15565506846E-01  0.87504057667E+01  0.37563261532E+00  0.87584783775E+01  0.51100000000E-03 0.  1.
        -12    1    3    3    0    0  0.30847866549E+02  0.30939863176E+01  0.14516457475E+02  0.34232895869E+02  0.00000000000E+00 0.  1.
</event>
<event>
 7    1  0.2838209E-011  0.5052884E+02  0.7816164E-02  0.1300439E+00
        -11   -1    0    0    0    0  0.00000000000E+00  0.00000000000E+00  0.45593999997E+02  0.45594000000E+02  0.51100000000E-03 0. -1.
         11   -1    0    0    0    0 -0.00000000000E+00 -0.00000000000E+00 -0.45593999997E+02  0.45594000000E+02  0.51100000000E-03 0.  1.
    9900012    2    1    2    0    0 -0.14920478363E+02 -0.35897182982E+02 -0.11913798662E+02  0.50528843353E+02  0.29999949857E+02 0.  0.
         12    1    1    2    0    0  0.14920478363E+02  0.35897182982E+02  0.11913798662E+02  0.40659156647E+02  0.00000000000E+00 0. -1.
         11    1    3    3    0    0 -0.57412307052E+01 -0.45434027154E+01 -0.63665874864E+01  0.97024571490E+01  0.51100000000E-03 0. -1.
        -11    1    3    3    0    0 -0.14406786817E+01 -0.16484402216E+02 -0.14341233626E+02  0.21897078655E+02  0.51100000000E-03 0.  1.
         12    1    3    3    0    0 -0.77385689761E+01 -0.14869378051E+02  0.87940224501E+01  0.18929307549E+02  0.00000000000E+00 0. -1.
</event>
<event>
 7    1  0.2838209E-011  0.5052886E+02  0.7816164E-02  0.1300439E+00
        -11   -1    0    0    0    0  0.00000000000E+00  0.00000000000E+00  0.45593999997E+02  0.45594000000E+02  0.51100000000E-03 0.  1.
         11   -1    0    0    0    0 -0.00000000000E+00 -0.00000000000E+00 -0.45593999997E+02  0.45594000000E+02  0.51100000000E-03 0. -1.
    9900012    2    1    2    0    0 -0.37864985600E+02  0.12268293032E+02 -0.83004430977E+01  0.50528861986E+02  0.30000006492E+02 0.  0.
         12    1    1    2    0    0  0.37864985600E+02 -0.12268293032E+02  0.83004430977E+01  0.40659138014E+02  0.00000000000E+00 0. -1.
         11    1    3    3    0    0 -0.75498579632E+01 -0.36716842536E+01 -0.56028444711E+01  0.10093239666E+02  0.51100000000E-03 0. -1.
        -11    1    3    3    0    0 -0.23334117974E+02  0.11534447422E+01 -0.50878674313E+01  0.23910204760E+02  0.51100000000E-03 0.  1.
         12    1    3    3    0    0 -0.69810096628E+01  0.14786532543E+02  0.23902688047E+01  0.16525417560E+02  0.00000000000E+00 0. -1.
</event>
<event>
 7    1  0.2838209E-011  0.5052887E+02  0.7816164E-02  0.1300439E+00
        -11   -1    0    0    0    0  0.00000000000E+00  0.00000000000E+00  0.45593999997E+02  0.45594000000E+02  0.51100000000E-03 0.  1.
         11   -1    0    0    0    0 -0.00000000000E+00 -0.00000000000E+00 -0.45593999997E+02  0.45594000000E+02  0.51100000000E-03 0. -1.
    9900012    2    1    2    0    0 -0.36367821601E+02  0.35457041192E+01  0.17831838632E+02  0.50528868988E+02  0.30000027775E+02 0.  0.
         12    1    1    2    0    0  0.36367821601E+02 -0.35457041192E+01 -0.17831838632E+02  0.40659131012E+02  0.00000000000E+00 0. -1.
         11    1    3    3    0    0 -0.97327148994E+01  0.22557484532E+01  0.62200129922E+01  0.11768717104E+02  0.51100000000E-03 0. -1.
        -11    1    3    3    0    0 -0.15816306601E+02  0.13408125978E+02  0.64477467786E+01  0.21714208149E+02  0.51100000000E-03 0.  1.
         12    1    3    3    0    0 -0.10818800101E+02 -0.12118170312E+02  0.51640788608E+01  0.17045943735E+02  0.00000000000E+00 0. -1.
</event>
<event>
 7    1  0.2962994E-011  0.5052886E+02  0.7816164E-02  0.1300439E+00
        -11   -1    0    0    0    0  0.00000000000E+00  0.00000000000E+00  0.45593999997E+02  0.45594000000E+02  0.51100000000E-03 0.  1.
         11   -1    0    0    0    0 -0.00000000000E+00 -0.00000000000E+00 -0.45593999997E+02  0.45594000000E+02  0.51100000000E-03 0. -1.
    9900012    2    1    2    0    0  0.13953871741E+01  0.31848026672E+02  0.25237312423E+02  0.50528857773E+02  0.29999993687E+02 0.  0.
         12    1    1    2    0    0 -0.13953871741E+01 -0.31848026672E+02 -0.25237312423E+02  0.40659142227E+02  0.00000000000E+00 0. -1.
         11    1    3    3    0    0  0.24245988101E+01  0.49509577977E+00 -0.24877424733E+01  0.35089403095E+01  0.51100000000E-03 0. -1.
        -11    1    3    3    0    0 -0.30663959848E+01 -0.18979368144E+01  0.67513048687E+01  0.76540882004E+01  0.51100000000E-03 0.  1.
        -12    1    3    3    0    0  0.20371843488E+01  0.33250867707E+02  0.20973750028E+02  0.39365829263E+02  0.00000000000E+00 0.  1.
</event>
<event>
 7    1  0.2838209E-011  0.5052887E+02  0.7816164E-02  0.1300439E+00
        -11   -1    0    0    0    0  0.00000000000E+00  0.00000000000E+00  0.45593999997E+02  0.45594000000E+02  0.51100000000E-03 0.  1.
         11   -1    0    0    0    0 -0.00000000000E+00 -0.00000000000E+00 -0.45593999997E+02  0.45594000000E+02  0.51100000000E-03 0. -1.
    9900012    2    1    2    0    0 -0.38694006178E+02 -0.19559313332E+01  0.12333416613E+02  0.50528868838E+02  0.30000027321E+02 0.  0.
         12    1    1    2    0    0  0.38694006178E+02  0.19559313332E+01 -0.12333416613E+02  0.40659131162E+02  0.00000000000E+00 0. -1.
         11    1    3    3    0    0 -0.24896850104E+01  0.29723974735E+01  0.10176810309E+02  0.10890415351E+02  0.51100000000E-03 0.  1.
        -11    1    3    3    0    0 -0.30273474693E+01 -0.55488708642E+01 -0.55363303953E+00  0.63451800898E+01  0.51100000000E-03 0. -1.
         12    1    3    3    0    0 -0.33176973698E+02  0.62054205758E+00  0.27102393428E+01  0.33293273397E+02  0.00000000000E+00 0. -1.
</event>
<event>
 7    1  0.2838209E-011  0.5052884E+02  0.7816164E-02  0.1300439E+00
        -11   -1    0    0    0    0  0.00000000000E+00  0.00000000000E+00  0.45593999997E+02  0.45594000000E+02  0.51100000000E-03 0.  1.
         11   -1    0    0    0    0 -0.00000000000E+00 -0.00000000000E+00 -0.45593999997E+02  0.45594000000E+02  0.51100000000E-03 0. -1.
    9900012    2    1    2    0    0 -0.39274162862E+02 -0.41406876362E+01 -0.96727480581E+01  0.50528840914E+02  0.29999942441E+02 0.  0.
         12    1    1    2    0    0  0.39274162862E+02  0.41406876362E+01  0.96727480581E+01  0.40659159086E+02  0.00000000000E+00 0. -1.
         11    1    3    3    0    0 -0.88281822615E+01  0.39764210261E+01 -0.10288364595E+01  0.97369004791E+01  0.51100000000E-03 0. -1.
        -11    1    3    3    0    0 -0.18147104128E+02  0.72367968036E+01 -0.62184993129E+00  0.19546746886E+02  0.51100000000E-03 0.  1.
         12    1    3    3    0    0 -0.12298876472E+02 -0.15353905466E+02 -0.80220616673E+01  0.21245193549E+02  0.00000000000E+00 0. -1.
</event>
<event>
 7    1  0.2838209E-011  0.5052887E+02  0.7816164E-02  0.1300439E+00
        -11   -1    0    0    0    0  0.00000000000E+00  0.00000000000E+00  0.45593999997E+02  0.45594000000E+02  0.51100000000E-03 0.  1.
         11   -1    0    0    0    0 -0.00000000000E+00 -0.00000000000E+00 -0.45593999997E+02  0.45594000000E+02  0.51100000000E-03 0. -1.
    9900012    2    1    2    0    0  0.21450669365E+02  0.30552132218E+02  0.16112144824E+02  0.50528865600E+02  0.30000017479E+02 0.  0.
         12    1    1    2    0    0 -0.21450669365E+02 -0.30552132218E+02 -0.16112144824E+02  0.40659134400E+02  0.00000000000E+00 0. -1.
         11    1    3    3    0    0  0.27813049908E+01  0.15519277338E+01 -0.66880996153E+01  0.74077536317E+01  0.51100000000E-03 0. -1.
        -11    1    3    3    0    0 -0.13811444975E+01  0.72178880655E+00  0.25091633859E+01  0.29537163646E+01  0.51100000000E-03 0.  1.
        -12    1    3    3    0    0  0.20050508872E+02  0.28278415678E+02  0.20291081054E+02  0.40167395604E+02  0.00000000000E+00 0.  1.
</event>
<event>
 7    1  0.2838209E-011  0.5052887E+02  0.7816164E-02  0.1300439E+00
        -11   -1    0    0    0    0  0.00000000000E+00  0.00000000000E+00  0.45593999997E+02  0.45594000000E+02  0.51100000000E-03 0.  1.
         11   -1    0    0    0    0 -0.00000000000E+00 -0.00000000000E+00 -0.45593999997E+02  0.45594000000E+02  0.51100000000E-03 0. -1.
    9900012    2    1    2    0    0 -0.27296495616E+02 -0.19734025026E+02  0.22773555723E+02  0.50528865025E+02  0.30000015730E+02 0.  0.
         12    1    1    2    0    0  0.27296495616E+02  0.19734025026E+02 -0.22773555723E+02  0.40659134975E+02  0.00000000000E+00 0. -1.
         11    1    3    3    0    0 -0.10436738173E+02 -0.87485569937E+01 -0.17503531687E+01  0.13730494880E+02  0.51100000000E-03 0. -1.
        -11    1    3    3    0    0 -0.10570877651E+02 -0.48519076169E+01  0.98400675265E+00  0.11672734530E+02  0.51100000000E-03 0.  1.
        -12    1    3    3    0    0 -0.62888797921E+01 -0.61335604155E+01  0.23539902139E+02  0.25125635616E+02  0.00000000000E+00 0.  1.
</event>
<event>
 7    1  0.2838209E-011  0.5052886E+02  0.7816164E-02  0.1300439E+00
        -11   -1    0    0    0    0  0.00000000000E+00  0.00000000000E+00  0.45593999997E+02  0.45594000000E+02  0.51100000000E-03 0. -1.
         11   -1    0    0    0    0 -0.00000000000E+00 -0.00000000000E+00 -0.45593999997E+02  0.45594000000E+02  0.51100000000E-03 0.  1.
    9900012    2    1    2    0    0  0.66749326853E+01 -0.38942646696E+02 -0.95959147098E+01  0.50528855430E+02  0.29999986565E+02 0.  0.
         12    1    1    2    0    0 -0.66749326853E+01  0.38942646696E+02  0.95959147098E+01  0.40659144570E+02  0.00000000000E+00 0. -1.
         11    1    3    3    0    0  0.22838186316E+01 -0.21564556998E+01 -0.85309118038E+01  0.90907967303E+01  0.51100000000E-03 0. -1.
        -11    1    3    3    0    0 -0.67704521252E+01 -0.76916984277E+01 -0.75075703544E+00  0.10274477265E+02  0.51100000000E-03 0.  1.
        -12    1    3    3    0    0  0.11161566179E+02 -0.29094492568E+02 -0.31424587055E+00  0.31163581435E+02  0.00000000000E+00 0.  1.
</event>
<event>
 7    1  0.2838209E-011  0.5052888E+02  0.7816164E-02  0.1300439E+00
        -11   -1    0    0    0    0  0.00000000000E+00  0.00000000000E+00  0.45593999997E+02  0.45594000000E+02  0.51100000000E-03 0.  1.
         11   -1    0    0    0    0 -0.00000000000E+00 -0.00000000000E+00 -0.45593999997E+02  0.45594000000E+02  0.51100000000E-03 0. -1.
    9900012    2    1    2    0    0 -0.25913827974E+02  0.74977552498E+01  0.30420741665E+02  0.50528876331E+02  0.30000050096E+02 0.  0.
         12    1    1    2    0    0  0.25913827974E+02 -0.74977552498E+01 -0.30420741665E+02  0.40659123669E+02  0.00000000000E+00 0. -1.
         11    1    3    3    0    0 -0.48708969637E+00 -0.48446385441E-01 -0.24379342319E+01  0.24865894323E+01  0.51100000000E-03 0. -1.
        -11    1    3    3    0    0 -0.14513415275E+01  0.47533405980E+01 -0.22347046781E+01  0.54492700731E+01  0.51100000000E-03 0.  1.
        -12    1    3    3    0    0 -0.23975396750E+02  0.27928610373E+01  0.35093380575E+02  0.42593016826E+02  0.00000000000E+00 0.  1.
</event>
<event>
 7    1  0.2838209E-011  0.5052886E+02  0.7816164E-02  0.1300439E+00
        -11   -1    0    0    0    0  0.00000000000E+00  0.00000000000E+00  0.45593999997E+02  0.45594000000E+02  0.51100000000E-03 0. -1.
         11   -1    0    0    0    0 -0.00000000000E+00 -0.00000000000E+00 -0.45593999997E+02  0.45594000000E+02  0.51100000000E-03 0.  1.
    9900012    2    1    2    0    0 -0.23979320558E+02 -0.50266340502E+01  0.32448281365E+02  0.50528858004E+02  0.29999994388E+02 0.  0.
         12    1    1    2    0    0  0.23979320558E+02  0.50266340502E+01 -0.32448281365E+02  0.40659141996E+02  0.00000000000E+00 0. -1.
         11    1    3    3    0    0 -0.77493747175E+01  0.50945786027E+01  0.76230939618E+01  0.12004961535E+02  0.51100000000E-03 0. -1.
        -11    1    3    3    0    0 -0.13829869368E+02  0.42232319786E+01  0.15747653573E+02  0.21379653140E+02  0.51100000000E-03 0.  1.
         12    1    3    3    0    0 -0.24000764727E+01 -0.14344444631E+02  0.90775338307E+01  0.17144243329E+02  0.00000000000E+00 0. -1.
</event>
<event>
 7    1  0.2838209E-011  0.5052886E+02  0.7816164E-02  0.1300439E+00
        -11   -1    0    0    0    0  0.00000000000E+00  0.00000000000E+00  0.45593999997E+02  0.45594000000E+02  0.51100000000E-03 0. -1.
         11   -1    0    0    0    0 -0.00000000000E+00 -0.00000000000E+00 -0.45593999997E+02  0.45594000000E+02  0.51100000000E-03 0.  1.
    9900012    2    1    2    0    0  0.22586340179E+02  0.29686213513E+02 -0.16178735597E+02  0.50528861778E+02  0.30000005862E+02 0.  0.
         12    1    1    2    0    0 -0.22586340179E+02 -0.29686213513E+02  0.16178735597E+02  0.40659138222E+02  0.00000000000E+00 0. -1.
         11    1    3    3    0    0 -0.21083088313E+00  0.62239776274E+01 -0.20913961076E+01  0.65693443438E+01  0.51100000000E-03 0.  1.
        -11    1    3    3    0    0  0.22266924585E+02  0.15302929200E+02  0.73842386417E+00  0.27028519061E+02  0.51100000000E-03 0. -1.
         12    1    3    3    0    0  0.53024647727E+00  0.81593066853E+01 -0.14825763354E+02  0.16930998374E+02  0.00000000000E+00 0. -1.
</event>
<event>
 7    1  0.2838209E-011  0.5052884E+02  0.7816164E-02  0.1300439E+00
        -11   -1    0    0    0    0  0.00000000000E+00  0.00000000000E+00  0.45593999997E+02  0.45594000000E+02  0.51100000000E-03 0. -1.
         11   -1    0    0    0    0 -0.00000000000E+00 -0.00000000000E+00 -0.45593999997E+02  0.45594000000E+02  0.51100000000E-03 0.  1.
    9900012    2    1    2    0    0  0.20952447594E+02  0.25928575473E+02 -0.23278131212E+02  0.50528837700E+02  0.29999932672E+02 0.  0.
         12    1    1    2    0    0 -0.20952447594E+02 -0.25928575473E+02  0.23278131212E+02  0.40659162300E+02  0.00000000000E+00 0. -1.
         11    1    3    3    0    0  0.12163233013E+02  0.71125054871E+01 -0.18267756641E+01  0.14208063950E+02  0.51100000000E-03 0. -1.
        -11    1    3    3    0    0 -0.48759319347E+01 -0.79279649328E+00 -0.14313646339E+01  0.51431550130E+01  0.51100000000E-03 0.  1.
        -12    1    3    3    0    0  0.13665146516E+02  0.19608866479E+02 -0.20019990914E+02  0.31177618737E+02  0.00000000000E+00 0.  1.
</event>
<event>
 7    1  0.2838209E-011  0.5052886E+02  0.7816164E-02  0.1300439E+00
        -11   -1    0    0    0    0  0.00000000000E+00  0.00000000000E+00  0.45593999997E+02  0.45594000000E+02  0.51100000000E-03 0.  1.
         11   -1    0    0    0    0 -0.00000000000E+00 -0.00000000000E+00 -0.45593999997E+02  0.45594000000E+02  0.51100000000E-03 0. -1.
    9900012    2    1    2    0    0 -0.20932306486E+02 -0.22623450529E+02  0.26517608596E+02  0.50528861614E+02  0.30000005361E+02 0.  0.
         12    1    1    2    0    0  0.20932306486E+02  0.22623450529E+02 -0.26517608596E+02  0.40659138386E+02  0.00000000000E+00 0. -1.
         11    1    3    3    0    0 -0.14049112555E+01  0.49959856058E+01  0.12761829266E+01  0.53443700220E+01  0.51100000000E-03 0. -1.
        -11    1    3    3    0    0 -0.59953937486E+01 -0.19692231928E+02  0.85746177340E+01  0.22299166219E+02  0.51100000000E-03 0.  1.
         12    1    3    3    0    0 -0.13532001482E+02 -0.79272042063E+01  0.16666807936E+02  0.22885325372E+02  0.00000000000E+00 0. -1.
</event>
<event>
 7    1  0.2838209E-011  0.5052886E+02  0.7816164E-02  0.1300439E+00
        -11   -1    0    0    0    0  0.00000000000E+00  0.00000000000E+00  0.45593999997E+02  0.45594000000E+02  0.51100000000E-03 0.  1.
         11   -1    0    0    0    0 -0.00000000000E+00 -0.00000000000E+00 -0.45593999997E+02  0.45594000000E+02  0.51100000000E-03 0. -1.
    9900012    2    1    2    0    0  0.78458623239E+01 -0.31056530828E+02  0.25041960280E+02  0.50528862806E+02  0.30000008986E+02 0.  0.
         12    1    1    2    0    0 -0.78458623239E+01  0.31056530828E+02 -0.25041960280E+02  0.40659137194E+02  0.00000000000E+00 0. -1.
         11    1    3    3    0    0  0.40663204074E+01 -0.13912484212E+02 -0.24127217891E+01  0.14693992150E+02  0.51100000000E-03 0. -1.
        -11    1    3    3    0    0 -0.36476774186E+01 -0.99416016908E+01  0.63942731936E+01  0.12370437529E+02  0.51100000000E-03 0.  1.
        -12    1    3    3    0    0  0.74272193351E+01 -0.72024449243E+01  0.21060408876E+02  0.23464433127E+02  0.00000000000E+00 0.  1.
</event>
<event>
 7    1  0.2838209E-011  0.5052886E+02  0.7816164E-02  0.1300439E+00
        -11   -1    0    0    0    0  0.00000000000E+00  0.00000000000E+00  0.45593999997E+02  0.45594000000E+02  0.51100000000E-03 0.  1.
         11   -1    0    0    0    0 -0.00000000000E+00 -0.00000000000E+00 -0.45593999997E+02  0.45594000000E+02  0.51100000000E-03 0. -1.
    9900012    2    1    2    0    0  0.37606399975E+02  0.61761573543E+01  0.14169662459E+02  0.50528861138E+02  0.30000003916E+02 0.  0.
         12    1    1    2    0    0 -0.37606399975E+02 -0.61761573543E+01 -0.14169662459E+02  0.40659138862E+02  0.00000000000E+00 0. -1.
         11    1    3    3    0    0  0.21378175579E+02  0.47887684921E+01  0.18491118902E+02  0.28668452579E+02  0.51100000000E-03 0. -1.
        -11    1    3    3    0    0  0.13002906638E+02  0.32523313577E+01  0.29189829218E+01  0.13717641994E+02  0.51100000000E-03 0.  1.
         12    1    3    3    0    0  0.32253177579E+01 -0.18649424956E+01 -0.72404393646E+01  0.81427665657E+01  0.00000000000E+00 0. -1.
</event>
<event>
 7    1  0.2838209E-011  0.5052887E+02  0.7816164E-02  0.1300439E+00
        -11   -1    0    0    0    0  0.00000000000E+00  0.00000000000E+00  0.45593999997E+02  0.45594000000E+02  0.51100000000E-03 0.  1.
         11   -1    0    0    0    0 -0.00000000000E+00 -0.00000000000E+00 -0.45593999997E+02  0.45594000000E+02  0.51100000000E-03 0. -1.
    9900012    2    1    2    0    0 -0.20254259250E+02  0.86668997404E+01  0.34173305913E+02  0.50528868112E+02  0.30000025114E+02 0.  0.
         12    1    1    2    0    0  0.20254259250E+02 -0.86668997404E+01 -0.34173305913E+02  0.40659131888E+02  0.00000000000E+00 0. -1.
         11    1    3    3    0    0 -0.53245704209E+01  0.17300938175E+01  0.15313268696E+02  0.16304615089E+02  0.51100000000E-03 0. -1.
        -11    1    3    3    0    0 -0.83170757129E+01 -0.35747553451E+01  0.19798823955E+02  0.21770302121E+02  0.51100000000E-03 0.  1.
         12    1    3    3    0    0 -0.66126131162E+01  0.10511561268E+02 -0.93878673874E+00  0.12453950901E+02  0.00000000000E+00 0. -1.
</event>
<event>
 7    1  0.2838209E-011  0.5052886E+02  0.7816164E-02  0.1300439E+00
        -11   -1    0    0    0    0  0.00000000000E+00  0.00000000000E+00  0.45593999997E+02  0.45594000000E+02  0.51100000000E-03 0.  1.
         11   -1    0    0    0    0 -0.00000000000E+00 -0.00000000000E+00 -0.45593999997E+02  0.45594000000E+02  0.51100000000E-03 0. -1.
    9900012    2    1    2    0    0 -0.26754208350E+02 -0.88790757166E+01  0.29300849527E+02  0.50528862860E+02  0.30000009148E+02 0.  0.
         12    1    1    2    0    0  0.26754208350E+02  0.88790757166E+01 -0.29300849527E+02  0.40659137140E+02  0.00000000000E+00 0. -1.
         11    1    3    3    0    0 -0.10953900678E+02  0.19693206851E+01  0.51150611745E+00  0.11141265763E+02  0.51100000000E-03 0. -1.
        -11    1    3    3    0    0  0.14922706057E+01  0.20853221310E+00 -0.19260577004E+01  0.24454152553E+01  0.51100000000E-03 0.  1.
        -12    1    3    3    0    0 -0.17292578278E+02 -0.11056928615E+02  0.30715401110E+02  0.36942181842E+02  0.00000000000E+00 0.  1.
</event>
<event>
 7    1  0.2838209E-011  0.5052887E+02  0.7816164E-02  0.1300439E+00
        -11   -1    0    0    0    0  0.00000000000E+00  0.00000000000E+00  0.45593999997E+02  0.45594000000E+02  0.51100000000E-03 0. -1.
         11   -1    0    0    0    0 -0.00000000000E+00 -0.00000000000E+00 -0.45593999997E+02  0.45594000000E+02  0.51100000000E-03 0.  1.
    9900012    2    1    2    0    0 -0.34736355860E+02  0.15434737644E+02 -0.14433284666E+02  0.50528865100E+02  0.30000015957E+02 0.  0.
         12    1    1    2    0    0  0.34736355860E+02 -0.15434737644E+02  0.14433284666E+02  0.40659134900E+02  0.00000000000E+00 0. -1.
         11    1    3    3    0    0 -0.21182250682E+02  0.20034365945E+02 -0.42542554688E+01  0.29464593203E+02  0.51100000000E-03 0. -1.
        -11    1    3    3    0    0 -0.37640598779E+01 -0.29345559458E+01  0.21487355175E+01  0.52341981190E+01  0.51100000000E-03 0.  1.
        -12    1    3    3    0    0 -0.97900453006E+01 -0.16650723557E+01 -0.12327764715E+02  0.15830073778E+02  0.00000000000E+00 0.  1.
</event>
<event>
 7    1  0.2838209E-011  0.5052886E+02  0.7816164E-02  0.1300439E+00
        -11   -1    0    0    0    0  0.00000000000E+00  0.00000000000E+00  0.45593999997E+02  0.45594000000E+02  0.51100000000E-03 0.  1.
         11   -1    0    0    0    0 -0.00000000000E+00 -0.00000000000E+00 -0.45593999997E+02  0.45594000000E+02  0.51100000000E-03 0. -1.
    9900012    2    1    2    0    0  0.10048572932E+02 -0.25195611224E+02  0.30288161058E+02  0.50528863964E+02  0.30000012504E+02 0.  0.
         12    1    1    2    0    0 -0.10048572932E+02  0.25195611224E+02 -0.30288161058E+02  0.40659136036E+02  0.00000000000E+00 0. -1.
         11    1    3    3    0    0 -0.18436240279E+01 -0.17629005442E+02  0.13732114006E+02  0.22422126076E+02  0.51100000000E-03 0. -1.
        -11    1    3    3    0    0  0.63376838870E+01 -0.51978911834E+01  0.19672280433E+02  0.21311567926E+02  0.51100000000E-03 0.  1.
         12    1    3    3    0    0  0.55545130727E+01 -0.23687145992E+01 -0.31162333804E+01  0.67951699617E+01  0.00000000000E+00 0. -1.
</event>
<event>
 7    1  0.2838209E-011  0.5052886E+02  0.7816164E-02  0.1300439E+00
        -11   -1    0    0    0    0  0.00000000000E+00  0.00000000000E+00  0.45593999997E+02  0.45594000000E+02  0.51100000000E-03 0.  1.
         11   -1    0    0    0    0 -0.00000000000E+00 -0.00000000000E+00 -0.45593999997E+02  0.45594000000E+02  0.51100000000E-03 0. -1.
    9900012    2    1    2    0    0 -0.48887356019E+01  0.16285772487E+02  0.36932904948E+02  0.50528860939E+02  0.30000003310E+02 0.  0.
         12    1    1    2    0    0  0.48887356019E+01 -0.16285772487E+02 -0.36932904948E+02  0.40659139061E+02  0.00000000000E+00 0. -1.
         11    1    3    3    0    0 -0.45386556716E+01  0.13364659631E+02  0.16160661885E+02  0.21456479562E+02  0.51100000000E-03 0.  1.
        -11    1    3    3    0    0 -0.96228060628E+01  0.49822797253E+01  0.10751134424E+02  0.15264612653E+02  0.51100000000E-03 0. -1.
         12    1    3    3    0    0  0.92727261325E+01 -0.20611668690E+01  0.10021108639E+02  0.13807768725E+02  0.00000000000E+00 0. -1.
</event>
<event>
 7    1  0.2838209E-011  0.5052886E+02  0.7816164E-02  0.1300439E+00
        -11   -1    0    0    0    0  0.00000000000E+00  0.00000000000E+00  0.45593999997E+02  0.45594000000E+02  0.51100000000E-03 0.  1.
         11   -1    0    0    0    0 -0.00000000000E+00 -0.00000000000E+00 -0.45593999997E+02  0.45594000000E+02  0.51100000000E-03 0. -1.
    9900012    2    1    2    0    0  0.81213005190E+01 -0.30292000169E+01  0.39724474543E+02  0.50528862619E+02  0.30000008416E+02 0.  0.
         12    1    1    2    0    0 -0.81213005190E+01  0.30292000169E+01 -0.39724474543E+02  0.40659137381E+02  0.00000000000E+00 0. -1.
         11    1    3    3    0    0  0.28696238277E+01 -0.38659029273E+01 -0.12945558698E+01  0.49855613041E+01  0.51100000000E-03 0. -1.
        -11    1    3    3    0    0  0.88342585543E+01 -0.39531858697E+00  0.69051299197E+01  0.11219680052E+02  0.51100000000E-03 0.  1.
        -12    1    3    3    0    0 -0.35825818630E+01  0.12320214974E+01  0.34113900493E+02  0.34323621263E+02  0.00000000000E+00 0.  1.
</event>
<event>
 7    1  0.2838209E-011  0.5052886E+02  0.7816164E-02  0.1300439E+00
        -11   -1    0    0    0    0  0.00000000000E+00  0.00000000000E+00  0.45593999997E+02  0.45594000000E+02  0.51100000000E-03 0.  1.
         11   -1    0    0    0    0 -0.00000000000E+00 -0.00000000000E+00 -0.45593999997E+02  0.45594000000E+02  0.51100000000E-03 0. -1.
    9900012    2    1    2    0    0 -0.11914687085E+02  0.31627369778E+02  0.22603440056E+02  0.50528858472E+02  0.29999995811E+02 0.  0.
         12    1    1    2    0    0  0.11914687085E+02 -0.31627369778E+02 -0.22603440056E+02  0.40659141528E+02  0.00000000000E+00 0. -1.
         11    1    3    3    0    0 -0.76034363320E+01  0.20464484460E+01  0.13091427552E+00  0.78751085139E+01  0.51100000000E-03 0. -1.
        -11    1    3    3    0    0 -0.97821859925E+01  0.60678105913E+01  0.11012214077E+02  0.15930422069E+02  0.51100000000E-03 0.  1.
        -12    1    3    3    0    0  0.54709352395E+01  0.23513110741E+02  0.11460311704E+02  0.26723327889E+02  0.00000000000E+00 0.  1.
</event>
<event>
 7    1  0.2838209E-011  0.5052885E+02  0.7816164E-02  0.1300439E+00
        -11   -1    0    0    0    0  0.00000000000E+00  0.00000000000E+00  0.45593999997E+02  0.45594000000E+02  0.51100000000E-03 0. -1.
         11   -1    0    0    0    0 -0.00000000000E+00 -0.00000000000E+00 -0.45593999997E+02  0.45594000000E+02  0.51100000000E-03 0.  1.
    9900012    2    1    2    0    0  0.14614263423E+02 -0.21533305453E+02 -0.31239506633E+02  0.50528847109E+02  0.29999961273E+02 0.  0.
         12    1    1    2    0    0 -0.14614263423E+02  0.21533305453E+02  0.31239506633E+02  0.40659152891E+02  0.00000000000E+00 0. -1.
         11    1    3    3    0    0 -0.20458298844E+01 -0.18479238443E+02 -0.73195003395E+01  0.19981060002E+02  0.51100000000E-03 0. -1.
        -11    1    3    3    0    0  0.90869836023E+01 -0.52165325760E+01 -0.96294088149E+01  0.14230635878E+02  0.51100000000E-03 0.  1.
        -12    1    3    3    0    0  0.75731097048E+01  0.21624655662E+01 -0.14290597479E+02  0.16317151229E+02  0.00000000000E+00 0.  1.
</event>
<event>
 7    1  0.2838209E-011  0.5052885E+02  0.7816164E-02  0.1300439E+00
        -11   -1    0    0    0    0  0.00000000000E+00  0.00000000000E+00  0.45593999997E+02  0.45594000000E+02  0.51100000000E-03 0. -1.
         11   -1    0    0    0    0 -0.00000000000E+00 -0.00000000000E+00 -0.45593999997E+02  0.45594000000E+02  0.51100000000E-03 0.  1.
    9900012    2    1    2    0    0 -0.10869650734E+02 -0.38977119832E+02 -0.39750894713E+01  0.50528849569E+02  0.29999968749E+02 0.  0.
         12    1    1    2    0    0  0.10869650734E+02  0.38977119832E+02  0.39750894713E+01  0.40659150431E+02  0.00000000000E+00 0. -1.
         11    1    3    3    0    0 -0.44712139983E+01 -0.10795426292E+02 -0.49265617580E+01  0.12680851488E+02  0.51100000000E-03 0. -1.
        -11    1    3    3    0    0 -0.32553880037E+01 -0.27784993341E+01 -0.93288977031E+01  0.10263817137E+02  0.51100000000E-03 0.  1.
         12    1    3    3    0    0 -0.31430487323E+01 -0.25403194206E+02  0.10280369990E+02  0.27584180944E+02  0.00000000000E+00 0. -1.
</event>
<event>
 7    1  0.2838209E-011  0.5052887E+02  0.7816164E-02  0.1300439E+00
        -11   -1    0    0    0    0  0.00000000000E+00  0.00000000000E+00  0.45593999997E+02  0.45594000000E+02  0.51100000000E-03 0. -1.
         11   -1    0    0    0    0 -0.00000000000E+00 -0.00000000000E+00 -0.45593999997E+02  0.45594000000E+02  0.51100000000E-03 0.  1.
    9900012    2    1    2    0    0  0.23639543289E+01 -0.29782592919E+02 -0.27578507764E+02  0.50528865583E+02  0.30000017425E+02 0.  0.
         12    1    1    2    0    0 -0.23639543289E+01  0.29782592919E+02  0.27578507764E+02  0.40659134417E+02  0.00000000000E+00 0. -1.
         11    1    3    3    0    0 -0.74520727626E+01 -0.11378235264E+02 -0.42677666724E+01  0.14255225667E+02  0.51100000000E-03 0. -1.
        -11    1    3    3    0    0 -0.47929436786E+01 -0.89815442975E+01 -0.64235839798E+01  0.12037561152E+02  0.51100000000E-03 0.  1.
         12    1    3    3    0    0  0.14608970770E+02 -0.94228133573E+01 -0.16887157112E+02  0.24236078764E+02  0.00000000000E+00 0. -1.
</event>
<event>
 7    1  0.2838209E-011  0.5052886E+02  0.7816164E-02  0.1300439E+00
        -11   -1    0    0    0    0  0.00000000000E+00  0.00000000000E+00  0.45593999997E+02  0.45594000000E+02  0.51100000000E-03 0.  1.
         11   -1    0    0    0    0 -0.00000000000E+00 -0.00000000000E+00 -0.45593999997E+02  0.45594000000E+02  0.51100000000E-03 0. -1.
    9900012    2    1    2    0    0 -0.39343787546E+02  0.10232509740E+02  0.72646381066E+00  0.50528860515E+02  0.30000002021E+02 0.  0.
         12    1    1    2    0    0  0.39343787546E+02 -0.10232509740E+02 -0.72646381066E+00  0.40659139485E+02  0.00000000000E+00 0. -1.
         11    1    3    3    0    0 -0.37252628921E+01  0.39026621072E+01  0.36128194119E+00  0.54072987749E+01  0.51100000000E-03 0. -1.
        -11    1    3    3    0    0 -0.25387313245E+02  0.15794909973E+02  0.52406428171E+01  0.30355546318E+02  0.51100000000E-03 0.  1.
        -12    1    3    3    0    0 -0.10231211409E+02 -0.94650623405E+01 -0.48754609476E+01  0.14766015422E+02  0.00000000000E+00 0.  1.
</event>
<event>
 7    1  0.2838209E-011  0.5052886E+02  0.7816164E-02  0.1300439E+00
        -11   -1    0    0    0    0  0.00000000000E+00  0.00000000000E+00  0.45593999997E+02  0.45594000000E+02  0.51100000000E-03 0. -1.
         11   -1    0    0    0    0 -0.00000000000E+00 -0.00000000000E+00 -0.45593999997E+02  0.45594000000E+02  0.51100000000E-03 0.  1.
    9900012    2    1    2    0    0  0.27021714413E+02 -0.24978096812E+02  0.17294134665E+02  0.50528862478E+02  0.30000007989E+02 0.  0.
         12    1    1    2    0    0 -0.27021714413E+02  0.24978096812E+02 -0.17294134665E+02  0.40659137522E+02  0.00000000000E+00 0. -1.
         11    1    3    3    0    0  0.18111474320E+02 -0.79285043431E+01  0.18696676329E+02  0.27211254826E+02  0.51100000000E-03 0.  1.
        -11    1    3    3    0    0  0.48253782974E+01  0.31566099026E+00  0.18626376734E+01  0.51820205458E+01  0.51100000000E-03 0. -1.
        -12    1    3    3    0    0  0.40848617954E+01 -0.17365253460E+02 -0.32651793376E+01  0.18135587107E+02  0.00000000000E+00 0.  1.
</event>
<event>
 7    1  0.2838209E-011  0.5052885E+02  0.7816164E-02  0.1300439E+00
        -11   -1    0    0    0    0  0.00000000000E+00  0.00000000000E+00  0.45593999997E+02  0.45594000000E+02  0.51100000000E-03 0.  1.
         11   -1    0    0    0    0 -0.00000000000E+00 -0.00000000000E+00 -0.45593999997E+02  0.45594000000E+02  0.51100000000E-03 0. -1.
    9900012    2    1    2    0    0  0.13661107069E+02  0.31631943797E+02  0.21586126519E+02  0.50528848843E+02  0.29999966542E+02 0.  0.
         12    1    1    2    0    0 -0.13661107069E+02 -0.31631943797E+02 -0.21586126519E+02  0.40659151157E+02  0.00000000000E+00 0. -1.
         11    1    3    3    0    0  0.12240843797E+02  0.17241289613E+02  0.52724692791E+00  0.21151319438E+02  0.51100000000E-03 0. -1.
        -11    1    3    3    0    0  0.73745554764E+01  0.85918179960E+01  0.78733419025E+01  0.13791044845E+02  0.51100000000E-03 0.  1.
        -12    1    3    3    0    0 -0.59542922039E+01  0.57988361882E+01  0.13185537689E+02  0.15586484560E+02  0.00000000000E+00 0.  1.
</event>
<event>
 7    1  0.2838209E-011  0.5052885E+02  0.7816164E-02  0.1300439E+00
        -11   -1    0    0    0    0  0.00000000000E+00  0.00000000000E+00  0.45593999997E+02  0.45594000000E+02  0.51100000000E-03 0.  1.
         11   -1    0    0    0    0 -0.00000000000E+00 -0.00000000000E+00 -0.45593999997E+02  0.45594000000E+02  0.51100000000E-03 0. -1.
    9900012    2    1    2    0    0  0.33302296169E+02 -0.21982070817E+02 -0.78046038652E+01  0.50528853317E+02  0.29999980143E+02 0.  0.
         12    1    1    2    0    0 -0.33302296169E+02  0.21982070817E+02  0.78046038652E+01  0.40659146683E+02  0.00000000000E+00 0. -1.
         11    1    3    3    0    0  0.52319971428E+01  0.27294118214E+01  0.65731613650E+00  0.59376382306E+01  0.51100000000E-03 0. -1.
        -11    1    3    3    0    0  0.19346734599E+02 -0.37347181346E+01  0.15494907919E+01  0.19764745917E+02  0.51100000000E-03 0.  1.
         12    1    3    3    0    0  0.87235644268E+01 -0.20976764504E+02 -0.10011410794E+02  0.24826469169E+02  0.00000000000E+00 0. -1.
</event>
<event>
 7    1  0.2838209E-011  0.5052886E+02  0.7816164E-02  0.1300439E+00
        -11   -1    0    0    0    0  0.00000000000E+00  0.00000000000E+00  0.45593999997E+02  0.45594000000E+02  0.51100000000E-03 0.  1.
         11   -1    0    0    0    0 -0.00000000000E+00 -0.00000000000E+00 -0.45593999997E+02  0.45594000000E+02  0.51100000000E-03 0. -1.
    9900012    2    1    2    0    0  0.10111415842E+02 -0.27725343904E+02  0.27968383476E+02  0.50528857126E+02  0.29999991722E+02 0.  0.
         12    1    1    2    0    0 -0.10111415842E+02  0.27725343904E+02 -0.27968383476E+02  0.40659142874E+02  0.00000000000E+00 0. -1.
         11    1    3    3    0    0  0.83799545983E+01 -0.12252822513E+02  0.14650781358E+01  0.14916492644E+02  0.51100000000E-03 0. -1.
        -11    1    3    3    0    0  0.65357148753E+00  0.14241611762E+01 -0.19506808049E+01  0.25021084326E+01  0.51100000000E-03 0.  1.
        -12    1    3    3    0    0  0.10778897565E+01 -0.16896682568E+02  0.28453986145E+02  0.33110256049E+02  0.00000000000E+00 0.  1.
</event>
<event>
 7    1  0.2838209E-011  0.5052886E+02  0.7816164E-02  0.1300439E+00
        -11   -1    0    0    0    0  0.00000000000E+00  0.00000000000E+00  0.45593999997E+02  0.45594000000E+02  0.51100000000E-03 0.  1.
         11   -1    0    0    0    0 -0.00000000000E+00 -0.00000000000E+00 -0.45593999997E+02  0.45594000000E+02  0.51100000000E-03 0. -1.
    9900012    2    1    2    0    0  0.30212262644E+02  0.17685595523E+02  0.20678598695E+02  0.50528861457E+02  0.30000004885E+02 0.  0.
         12    1    1    2    0    0 -0.30212262644E+02 -0.17685595523E+02 -0.20678598695E+02  0.40659138543E+02  0.00000000000E+00 0. -1.
         11    1    3    3    0    0  0.82880905334E+00  0.68571950988E+01 -0.21184020351E+01  0.72246575361E+01  0.51100000000E-03 0. -1.
        -11    1    3    3    0    0  0.28961573358E+02  0.13192123763E+02  0.15069255449E+02  0.35212033750E+02  0.51100000000E-03 0.  1.
        -12    1    3    3    0    0  0.42188023229E+00 -0.23637233386E+01  0.77277452804E+01  0.80921701706E+01  0.00000000000E+00 0.  1.
</event>
<event>
 7    1  0.2838209E-011  0.5052885E+02  0.7816164E-02  0.1300439E+00
        -11   -1    0    0    0    0  0.00000000000E+00  0.00000000000E+00  0.45593999997E+02  0.45594000000E+02  0.51100000000E-03 0.  1.
         11   -1    0    0    0    0 -0.00000000000E+00 -0.00000000000E+00 -0.45593999997E+02  0.45594000000E+02  0.51100000000E-03 0. -1.
    9900012    2    1    2    0    0 -0.25851863514E+02 -0.27375563110E+02  0.15343592096E+02  0.50528854398E+02  0.29999983427E+02 0.  0.
         12    1    1    2    0    0  0.25851863514E+02  0.27375563110E+02 -0.15343592096E+02  0.40659145602E+02  0.00000000000E+00 0. -1.
         11    1    3    3    0    0 -0.20581937133E+02 -0.15438680442E+02  0.21597243070E+01  0.25819244746E+02  0.51100000000E-03 0. -1.
        -11    1    3    3    0    0 -0.28288225956E+01  0.33149259637E+01 -0.67385906582E-01  0.43583841666E+01  0.51100000000E-03 0.  1.
        -12    1    3    3    0    0 -0.24411037853E+01 -0.15251808632E+02  0.13251253695E+02  0.20351225485E+02  0.00000000000E+00 0.  1.
</event>
<event>
 7    1  0.2838209E-011  0.5052882E+02  0.7816164E-02  0.1300439E+00
        -11   -1    0    0    0    0  0.00000000000E+00  0.00000000000E+00  0.45593999997E+02  0.45594000000E+02  0.51100000000E-03 0.  1.
         11   -1    0    0    0    0 -0.00000000000E+00 -0.00000000000E+00 -0.45593999997E+02  0.45594000000E+02  0.51100000000E-03 0. -1.
    9900012    2    1    2    0    0  0.28638156535E+02  0.21489381495E+02  0.19267361125E+02  0.50528822297E+02  0.29999885855E+02 0.  0.
         12    1    1    2    0    0 -0.28638156535E+02 -0.21489381495E+02 -0.19267361125E+02  0.40659177703E+02  0.00000000000E+00 0. -1.
         11    1    3    3    0    0  0.24728836587E+01 -0.27566254694E+01  0.57392550014E+01  0.68303137410E+01  0.51100000000E-03 0. -1.
        -11    1    3    3    0    0  0.11990500154E+02 -0.85577282078E+00  0.77354016514E+01  0.14294785064E+02  0.51100000000E-03 0.  1.
        -12    1    3    3    0    0  0.14174772722E+02  0.25101779785E+02  0.57927044718E+01  0.29403723492E+02  0.00000000000E+00 0.  1.
</event>
<event>
 7    1  0.2838209E-011  0.5052885E+02  0.7816164E-02  0.1300439E+00
        -11   -1    0    0    0    0  0.00000000000E+00  0.00000000000E+00  0.45593999997E+02  0.45594000000E+02  0.51100000000E-03 0.  1.
         11   -1    0    0    0    0 -0.00000000000E+00 -0.00000000000E+00 -0.45593999997E+02  0.45594000000E+02  0.51100000000E-03 0. -1.
    9900012    2    1    2    0    0  0.83816538274E+01 -0.34615201461E+02 -0.19613829402E+02  0.50528848547E+02  0.29999965643E+02 0.  0.
         12    1    1    2    0    0 -0.83816538274E+01  0.34615201461E+02  0.19613829402E+02  0.40659151453E+02  0.00000000000E+00 0. -1.
         11    1    3    3    0    0  0.31773291162E+01 -0.75668375105E+01 -0.82691625041E+01  0.11650386217E+02  0.51100000000E-03 0. -1.
        -11    1    3    3    0    0  0.12770374901E+02 -0.17942307800E+02 -0.14813676259E+02  0.26541550235E+02  0.51100000000E-03 0.  1.
         12    1    3    3    0    0 -0.75660501894E+01 -0.91060561506E+01  0.34690093613E+01  0.12336912095E+02  0.00000000000E+00 0. -1.
</event>
<event>
 7    1  0.2838209E-011  0.5052887E+02  0.7816164E-02  0.1300439E+00
        -11   -1    0    0    0    0  0.00000000000E+00  0.00000000000E+00  0.45593999997E+02  0.45594000000E+02  0.51100000000E-03 0. -1.
         11   -1    0    0    0    0 -0.00000000000E+00 -0.00000000000E+00 -0.45593999997E+02  0.45594000000E+02  0.51100000000E-03 0.  1.
    9900012    2    1    2    0    0 -0.26764128059E+02  0.21018198207E+02 -0.22250422927E+02  0.50528874000E+02  0.30000043011E+02 0.  0.
         12    1    1    2    0    0  0.26764128059E+02 -0.21018198207E+02  0.22250422927E+02  0.40659126000E+02  0.00000000000E+00 0. -1.
         11    1    3    3    0    0 -0.74447351714E+01  0.51517659674E+01  0.45515797296E+01  0.10133195579E+02  0.51100000000E-03 0. -1.
        -11    1    3    3    0    0 -0.17580300179E+02  0.10838193061E+02 -0.10342529529E+02  0.23097647078E+02  0.51100000000E-03 0.  1.
        -12    1    3    3    0    0 -0.17390927081E+01  0.50282391792E+01 -0.16459473128E+02  0.17298031343E+02  0.00000000000E+00 0.  1.
</event>
<event>
 7    1  0.2838209E-011  0.5052884E+02  0.7816164E-02  0.1300439E+00
        -11   -1    0    0    0    0  0.00000000000E+00  0.00000000000E+00  0.45593999997E+02  0.45594000000E+02  0.51100000000E-03 0. -1.
         11   -1    0    0    0    0 -0.00000000000E+00 -0.00000000000E+00 -0.45593999997E+02  0.45594000000E+02  0.51100000000E-03 0.  1.
    9900012    2    1    2    0    0  0.32954200860E+02  0.13980185218E+02 -0.19280627143E+02  0.50528837244E+02  0.29999931285E+02 0.  0.
         12    1    1    2    0    0 -0.32954200860E+02 -0.13980185218E+02  0.19280627143E+02  0.40659162756E+02  0.00000000000E+00 0. -1.
         11    1    3    3    0    0  0.48975807620E+00  0.67802048094E+01 -0.12038895006E+02  0.13825557257E+02  0.51100000000E-03 0. -1.
        -11    1    3    3    0    0  0.90337412736E+01  0.71216151315E+01 -0.66031110460E+01  0.13263746048E+02  0.51100000000E-03 0.  1.
         12    1    3    3    0    0  0.23430701510E+02  0.78365277111E-01 -0.63862109057E+00  0.23439533939E+02  0.00000000000E+00 0. -1.
</event>
<event>
 7    1  0.2838209E-011  0.5052881E+02  0.7816164E-02  0.1300439E+00
        -11   -1    0    0    0    0  0.00000000000E+00  0.00000000000E+00  0.45593999997E+02  0.45594000000E+02  0.51100000000E-03 0.  1.
         11   -1    0    0    0    0 -0.00000000000E+00 -0.00000000000E+00 -0.45593999997E+02  0.45594000000E+02  0.51100000000E-03 0. -1.
    9900012    2    1    2    0    0 -0.40087963055E+01 -0.24460354072E+02  0.32230274145E+02  0.50528807428E+02  0.29999840658E+02 0.  0.
         12    1    1    2    0    0  0.40087963055E+01  0.24460354072E+02 -0.32230274145E+02  0.40659192572E+02  0.00000000000E+00 0. -1.
         11    1    3    3    0    0 -0.97939787260E+01 -0.19852304165E+02  0.21134689760E+02  0.30605736578E+02  0.51100000000E-03 0.  1.
        -11    1    3    3    0    0 -0.36779663739E+01 -0.32319668706E+01  0.88285198916E+01  0.10095336064E+02  0.51100000000E-03 0. -1.
         12    1    3    3    0    0  0.94631487943E+01 -0.13760830362E+01  0.22670644930E+01  0.98277347869E+01  0.00000000000E+00 0. -1.
</event>
<event>
 7    1  0.2838209E-011  0.5052883E+02  0.7816164E-02  0.1300439E+00
        -11   -1    0    0    0    0  0.00000000000E+00  0.00000000000E+00  0.45593999997E+02  0.45594000000E+02  0.51100000000E-03 0. -1.
         11   -1    0    0    0    0 -0.00000000000E+00 -0.00000000000E+00 -0.45593999997E+02  0.45594000000E+02  0.51100000000E-03 0.  1.
    9900012    2    1    2    0    0 -0.80156260702E+01 -0.39491244123E+02  0.54184653967E+01  0.50528826485E+02  0.29999898583E+02 0.  0.
         12    1    1    2    0    0  0.80156260702E+01  0.39491244123E+02 -0.54184653967E+01  0.40659173515E+02  0.00000000000E+00 0. -1.
         11    1    3    3    0    0 -0.10545396515E+02 -0.11219646718E+02  0.92807023408E+01  0.17978245085E+02  0.51100000000E-03 0.  1.
        -11    1    3    3    0    0  0.22787931524E+01  0.11414008349E+01  0.99909654686E+00  0.27374967157E+01  0.51100000000E-03 0. -1.
        -12    1    3    3    0    0  0.25097729224E+00 -0.29412998240E+02 -0.48613334910E+01  0.29813084684E+02  0.00000000000E+00 0.  1.
</event>
<event>
 7    1  0.2838209E-011  0.5052886E+02  0.7816164E-02  0.1300439E+00
        -11   -1    0    0    0    0  0.00000000000E+00  0.00000000000E+00  0.45593999997E+02  0.45594000000E+02  0.51100000000E-03 0.  1.
         11   -1    0    0    0    0 -0.00000000000E+00 -0.00000000000E+00 -0.45593999997E+02  0.45594000000E+02  0.51100000000E-03 0. -1.
    9900012    2    1    2    0    0 -0.12975626232E+02  0.64313016542E+01  0.37992591237E+02  0.50528861962E+02  0.30000006420E+02 0.  0.
         12    1    1    2    0    0  0.12975626232E+02 -0.64313016542E+01 -0.37992591237E+02  0.40659138038E+02  0.00000000000E+00 0. -1.
         11    1    3    3    0    0 -0.46853144221E+01  0.67767391988E+00  0.28550747449E+02  0.28940570024E+02  0.51100000000E-03 0. -1.
        -11    1    3    3    0    0 -0.68971208231E+01  0.10393956932E+02  0.10860930215E+02  0.16539783002E+02  0.51100000000E-03 0.  1.
         12    1    3    3    0    0 -0.13931909868E+01 -0.46403291977E+01 -0.14190864270E+01  0.50485089360E+01  0.00000000000E+00 0. -1.
</event>
<event>
 7    1  0.2838209E-011  0.5052886E+02  0.7816164E-02  0.1300439E+00
        -11   -1    0    0    0    0  0.00000000000E+00  0.00000000000E+00  0.45593999997E+02  0.45594000000E+02  0.51100000000E-03 0.  1.
         11   -1    0    0    0    0 -0.00000000000E+00 -0.00000000000E+00 -0.45593999997E+02  0.45594000000E+02  0.51100000000E-03 0. -1.
    9900012    2    1    2    0    0 -0.20343345280E+02  0.88874875195E+01  0.34063568771E+02  0.50528857744E+02  0.29999993598E+02 0.  0.
         12    1    1    2    0    0  0.20343345280E+02 -0.88874875195E+01 -0.34063568771E+02  0.40659142256E+02  0.00000000000E+00 0. -1.
         11    1    3    3    0    0 -0.96571108715E+01  0.75511688282E+01  0.87178927396E+00  0.12289831482E+02  0.51100000000E-03 0. -1.
        -11    1    3    3    0    0 -0.10006643246E+01 -0.54073397707E+01  0.41455728662E+01  0.68866847711E+01  0.51100000000E-03 0.  1.
         12    1    3    3    0    0 -0.96855700834E+01  0.67436584620E+01  0.29046206631E+02  0.31352341491E+02  0.00000000000E+00 0. -1.
</event>
<event>
 7    1  0.2838209E-011  0.5052886E+02  0.7816164E-02  0.1300439E+00
        -11   -1    0    0    0    0  0.00000000000E+00  0.00000000000E+00  0.45593999997E+02  0.45594000000E+02  0.51100000000E-03 0. -1.
         11   -1    0    0    0    0 -0.00000000000E+00 -0.00000000000E+00 -0.45593999997E+02  0.45594000000E+02  0.51100000000E-03 0.  1.
    9900012    2    1    2    0    0 -0.31580031153E+01 -0.36807069912E+02 -0.16983301574E+02  0.50528856975E+02  0.29999991262E+02 0.  0.
         12    1    1    2    0    0  0.31580031153E+01  0.36807069912E+02  0.16983301574E+02  0.40659143025E+02  0.00000000000E+00 0. -1.
         11    1    3    3    0    0  0.79140413750E+01 -0.24901844195E+02 -0.70481120856E+01  0.27063070399E+02  0.51100000000E-03 0. -1.
        -11    1    3    3    0    0 -0.13267447090E+02 -0.13146678135E+02 -0.92993985511E+01  0.20864781617E+02  0.51100000000E-03 0.  1.
        -12    1    3    3    0    0  0.21954025995E+01  0.12414524180E+01 -0.63579093710E+00  0.26010049588E+01  0.00000000000E+00 0.  1.
</event>
<event>
 7    1  0.2838209E-011  0.5052885E+02  0.7816164E-02  0.1300439E+00
        -11   -1    0    0    0    0  0.00000000000E+00  0.00000000000E+00  0.45593999997E+02  0.45594000000E+02  0.51100000000E-03 0. -1.
         11   -1    0    0    0    0 -0.00000000000E+00 -0.00000000000E+00 -0.45593999997E+02  0.45594000000E+02  0.51100000000E-03 0.  1.
    9900012    2    1    2    0    0  0.39399885060E+02 -0.67133732683E+01 -0.74663412248E+01  0.50528848820E+02  0.29999966472E+02 0.  0.
         12    1    1    2    0    0 -0.39399885060E+02  0.67133732683E+01  0.74663412248E+01  0.40659151180E+02  0.00000000000E+00 0. -1.
         11    1    3    3    0    0  0.10153529744E+02 -0.61517780884E+01 -0.51553836040E+01  0.12942817324E+02  0.51100000000E-03 0. -1.
        -11    1    3    3    0    0  0.30761728045E+02 -0.64529730930E+01 -0.18645557520E+01  0.31486526364E+02  0.51100000000E-03 0.  1.
         12    1    3    3    0    0 -0.15153727289E+01  0.58913779132E+01 -0.44640186876E+00  0.60995051317E+01  0.00000000000E+00 0. -1.
</event>
<event>
 7    1  0.2838209E-011  0.5052886E+02  0.7816164E-02  0.1300439E+00
        -11   -1    0    0    0    0  0.00000000000E+00  0.00000000000E+00  0.45593999997E+02  0.45594000000E+02  0.51100000000E-03 0.  1.
         11   -1    0    0    0    0 -0.00000000000E+00 -0.00000000000E+00 -0.45593999997E+02  0.45594000000E+02  0.51100000000E-03 0. -1.
    9900012    2    1    2    0    0 -0.23489541499E+01 -0.78063150618E+01  0.39833521984E+02  0.50528860633E+02  0.30000002380E+02 0.  0.
         12    1    1    2    0    0  0.23489541499E+01  0.78063150618E+01 -0.39833521984E+02  0.40659139367E+02  0.00000000000E+00 0. -1.
         11    1    3    3    0    0 -0.98867021271E+01 -0.47966143065E+01  0.41289677898E+01  0.11738942160E+02  0.51100000000E-03 0. -1.
        -11    1    3    3    0    0 -0.11782404232E+00  0.31135115505E+01  0.20329897931E+01  0.37203339151E+01  0.51100000000E-03 0.  1.
        -12    1    3    3    0    0  0.76555720195E+01 -0.61232123058E+01  0.33671564401E+02  0.35069584558E+02  0.00000000000E+00 0.  1.
</event>
<event>
 7    1  0.2838209E-011  0.5052883E+02  0.7816164E-02  0.1300439E+00
        -11   -1    0    0    0    0  0.00000000000E+00  0.00000000000E+00  0.45593999997E+02  0.45594000000E+02  0.51100000000E-03 0.  1.
         11   -1    0    0    0    0 -0.00000000000E+00 -0.00000000000E+00 -0.45593999997E+02  0.45594000000E+02  0.51100000000E-03 0. -1.
    9900012    2    1    2    0    0  0.31520225832E+02 -0.76905529050E+00  0.25672004527E+02  0.50528832535E+02  0.29999916974E+02 0.  0.
         12    1    1    2    0    0 -0.31520225832E+02  0.76905529050E+00 -0.25672004527E+02  0.40659167465E+02  0.00000000000E+00 0. -1.
         11    1    3    3    0    0  0.76235010576E+00 -0.22412097734E+01  0.10520359930E+01  0.25905557172E+01  0.51100000000E-03 0. -1.
        -11    1    3    3    0    0  0.32066654175E+02  0.39293855961E+01  0.28555477808E+02  0.43117579875E+02  0.51100000000E-03 0.  1.
        -12    1    3    3    0    0 -0.13087784494E+01 -0.24572311132E+01 -0.39355092740E+01  0.48206969433E+01  0.00000000000E+00 0.  1.
</event>
<event>
 7    1  0.2838209E-011  0.5052891E+02  0.7816164E-02  0.1300439E+00
        -11   -1    0    0    0    0  0.00000000000E+00  0.00000000000E+00  0.45593999997E+02  0.45594000000E+02  0.51100000000E-03 0.  1.
         11   -1    0    0    0    0 -0.00000000000E+00 -0.00000000000E+00 -0.45593999997E+02  0.45594000000E+02  0.51100000000E-03 0. -1.
    9900012    2    1    2    0    0  0.23964436219E+02 -0.25468381346E+02  0.20741967244E+02  0.50528906837E+02  0.30000142822E+02 0.  0.
         12    1    1    2    0    0 -0.23964436219E+02  0.25468381346E+02 -0.20741967244E+02  0.40659093163E+02  0.00000000000E+00 0. -1.
         11    1    3    3    0    0  0.11090363980E+02 -0.68719179889E+01  0.52024076408E+01  0.14045799214E+02  0.51100000000E-03 0. -1.
        -11    1    3    3    0    0  0.12622468763E+02 -0.13345474670E+01  0.14379919882E+02  0.19180454393E+02  0.51100000000E-03 0.  1.
         12    1    3    3    0    0  0.25160347592E+00 -0.17261915890E+02  0.11596397204E+01  0.17302653230E+02  0.00000000000E+00 0. -1.
</event>
<event>
 7    1  0.2838209E-011  0.5052885E+02  0.7816164E-02  0.1300439E+00
        -11   -1    0    0    0    0  0.00000000000E+00  0.00000000000E+00  0.45593999997E+02  0.45594000000E+02  0.51100000000E-03 0. -1.
         11   -1    0    0    0    0 -0.00000000000E+00 -0.00000000000E+00 -0.45593999997E+02  0.45594000000E+02  0.51100000000E-03 0.  1.
    9900012    2    1    2    0    0 -0.33953980937E+02  0.35694549535E+01 -0.22080588083E+02  0.50528853425E+02  0.29999980471E+02 0.  0.
         12    1    1    2    0    0  0.33953980937E+02 -0.35694549535E+01  0.22080588083E+02  0.40659146575E+02  0.00000000000E+00 0. -1.
         11    1    3    3    0    0 -0.11372892228E+02  0.10875734061E+02 -0.66839594903E+01  0.17096771149E+02  0.51100000000E-03 0. -1.
        -11    1    3    3    0    0 -0.50495689053E+01  0.58079642052E+01 -0.51412499723E+01  0.92554333165E+01  0.51100000000E-03 0.  1.
        -12    1    3    3    0    0 -0.17531519804E+02 -0.13114243313E+02 -0.10255378620E+02  0.24176648960E+02  0.00000000000E+00 0.  1.
</event>
<event>
 7    1  0.2838209E-011  0.5052886E+02  0.7816164E-02  0.1300439E+00
        -11   -1    0    0    0    0  0.00000000000E+00  0.00000000000E+00  0.45593999997E+02  0.45594000000E+02  0.51100000000E-03 0.  1.
         11   -1    0    0    0    0 -0.00000000000E+00 -0.00000000000E+00 -0.45593999997E+02  0.45594000000E+02  0.51100000000E-03 0. -1.
    9900012    2    1    2    0    0 -0.20902004674E+02 -0.62456186046E+01  0.34311282467E+02  0.50528860121E+02  0.30000000824E+02 0.  0.
         12    1    1    2    0    0  0.20902004674E+02  0.62456186046E+01 -0.34311282467E+02  0.40659139879E+02  0.00000000000E+00 0. -1.
         11    1    3    3    0    0  0.46260590479E+01 -0.33530879124E+01 -0.11511917654E+01  0.58282813594E+01  0.51100000000E-03 0. -1.
        -11    1    3    3    0    0 -0.10520518614E+02 -0.47404878483E+01  0.11001005170E+02  0.15942887190E+02  0.51100000000E-03 0.  1.
        -12    1    3    3    0    0 -0.15007545107E+02  0.18479571561E+01  0.24461469063E+02  0.28757691571E+02  0.00000000000E+00 0.  1.
</event>
<event>
 7    1  0.2838209E-011  0.5052900E+02  0.7816164E-02  0.1300438E+00
        -11   -1    0    0    0    0  0.00000000000E+00  0.00000000000E+00  0.45593999997E+02  0.45594000000E+02  0.51100000000E-03 0. -1.
         11   -1    0    0    0    0 -0.00000000000E+00 -0.00000000000E+00 -0.45593999997E+02  0.45594000000E+02  0.51100000000E-03 0.  1.
    9900012    2    1    2    0    0  0.25575856236E+02 -0.26467140630E+02 -0.17277747781E+02  0.50528997016E+02  0.30000416926E+02 0.  0.
         12    1    1    2    0    0 -0.25575856236E+02  0.26467140630E+02  0.17277747781E+02  0.40659002984E+02  0.00000000000E+00 0. -1.
         11    1    3    3    0    0  0.16662443221E+01  0.59366138894E+00  0.31400496311E+01  0.36039861172E+01  0.51100000000E-03 0. -1.
        -11    1    3    3    0    0  0.13948965123E+02 -0.57901460323E+01  0.10034420746E+01  0.15136258301E+02  0.51100000000E-03 0.  1.
         12    1    3    3    0    0  0.99606467901E+01 -0.21270655986E+02 -0.21421239487E+02  0.31788752598E+02  0.00000000000E+00 0. -1.
</event>
<event>
 7    1  0.2838209E-011  0.5052884E+02  0.7816164E-02  0.1300439E+00
        -11   -1    0    0    0    0  0.00000000000E+00  0.00000000000E+00  0.45593999997E+02  0.45594000000E+02  0.51100000000E-03 0.  1.
         11   -1    0    0    0    0 -0.00000000000E+00 -0.00000000000E+00 -0.45593999997E+02  0.45594000000E+02  0.51100000000E-03 0. -1.
    9900012    2    1    2    0    0 -0.16166538701E+02 -0.20611550812E+02  0.31096205573E+02  0.50528843571E+02  0.29999950519E+02 0.  0.
         12    1    1    2    0    0  0.16166538701E+02  0.20611550812E+02 -0.31096205573E+02  0.40659156429E+02  0.00000000000E+00 0. -1.
         11    1    3    3    0    0 -0.40821851265E+01  0.52361798159E+01  0.73812184198E+01  0.99279504478E+01  0.51100000000E-03 0. -1.
        -11    1    3    3    0    0 -0.35793112033E+01 -0.12715162741E+02  0.20868779748E+02  0.24698032323E+02  0.51100000000E-03 0.  1.
         12    1    3    3    0    0 -0.85050423714E+01 -0.13132567887E+02  0.28462074060E+01  0.15902860800E+02  0.00000000000E+00 0. -1.
</event>
<event>
 7    1  0.2838209E-011  0.5052886E+02  0.7816164E-02  0.1300439E+00
        -11   -1    0    0    0    0  0.00000000000E+00  0.00000000000E+00  0.45593999997E+02  0.45594000000E+02  0.51100000000E-03 0.  1.
         11   -1    0    0    0    0 -0.00000000000E+00 -0.00000000000E+00 -0.45593999997E+02  0.45594000000E+02  0.51100000000E-03 0. -1.
    9900012    2    1    2    0    0  0.38208025576E+01  0.32639216128E+02  0.23942620083E+02  0.50528855665E+02  0.29999987278E+02 0.  0.
         12    1    1    2    0    0 -0.38208025576E+01 -0.32639216128E+02 -0.23942620083E+02  0.40659144335E+02  0.00000000000E+00 0. -1.
         11    1    3    3    0    0 -0.11863373008E+01  0.31459055669E+00  0.76294316058E+01  0.77275216142E+01  0.51100000000E-03 0. -1.
        -11    1    3    3    0    0 -0.76028474027E+01  0.11922075031E+02  0.64979383051E+00  0.14154907063E+02  0.51100000000E-03 0.  1.
        -12    1    3    3    0    0  0.12609987261E+02  0.20402550540E+02  0.15663394647E+02  0.28646426987E+02  0.00000000000E+00 0.  1.
</event>
<event>
 7    1  0.2838209E-011  0.5052887E+02  0.7816164E-02  0.1300439E+00
        -11   -1    0    0    0    0  0.00000000000E+00  0.00000000000E+00  0.45593999997E+02  0.45594000000E+02  0.51100000000E-03 0. -1.
         11   -1    0    0    0    0 -0.00000000000E+00 -0.00000000000E+00 -0.45593999997E+02  0.45594000000E+02  0.51100000000E-03 0.  1.
    9900012    2    1    2    0    0 -0.19609618367E+01 -0.37510912051E+02 -0.15564420456E+02  0.50528867220E+02  0.30000022403E+02 0.  0.
         12    1    1    2    0    0  0.19609618367E+01  0.37510912051E+02  0.15564420456E+02  0.40659132780E+02  0.00000000000E+00 0. -1.
         11    1    3    3    0    0  0.37665553058E+01 -0.10572151876E+02  0.94510121680E-01  0.11223469454E+02  0.51100000000E-03 0.  1.
        -11    1    3    3    0    0 -0.31656206670E+00 -0.25653412758E+02 -0.34459818993E+01  0.25885760355E+02  0.51100000000E-03 0. -1.
         12    1    3    3    0    0 -0.54109550758E+01 -0.12853474171E+01 -0.12212948678E+02  0.13419637410E+02  0.00000000000E+00 0. -1.
</event>
<event>
 7    1  0.2838209E-011  0.5052885E+02  0.7816164E-02  0.1300439E+00
        -11   -1    0    0    0    0  0.00000000000E+00  0.00000000000E+00  0.45593999997E+02  0.45594000000E+02  0.51100000000E-03 0.  1.
         11   -1    0    0    0    0 -0.00000000000E+00 -0.00000000000E+00 -0.45593999997E+02  0.45594000000E+02  0.51100000000E-03 0. -1.
    9900012    2    1    2    0    0  0.25287588168E+02  0.20721605108E+02  0.24172699767E+02  0.50528850382E+02  0.29999971221E+02 0.  0.
         12    1    1    2    0    0 -0.25287588168E+02 -0.20721605108E+02 -0.24172699767E+02  0.40659149618E+02  0.00000000000E+00 0. -1.
         11    1    3    3    0    0  0.11658988174E+01  0.65899531545E+01  0.19904348148E+01  0.69820221744E+01  0.51100000000E-03 0. -1.
        -11    1    3    3    0    0  0.14341393156E+02  0.20915399813E+02  0.17204964135E+02  0.30645396035E+02  0.51100000000E-03 0.  1.
        -12    1    3    3    0    0  0.97802961946E+01 -0.67837478594E+01  0.49773008173E+01  0.12901432172E+02  0.00000000000E+00 0.  1.
</event>
<event>
 7    1  0.2838209E-011  0.5052886E+02  0.7816164E-02  0.1300439E+00
        -11   -1    0    0    0    0  0.00000000000E+00  0.00000000000E+00  0.45593999997E+02  0.45594000000E+02  0.51100000000E-03 0.  1.
         11   -1    0    0    0    0 -0.00000000000E+00 -0.00000000000E+00 -0.45593999997E+02  0.45594000000E+02  0.51100000000E-03 0. -1.
    9900012    2    1    2    0    0  0.86141607251E+01  0.39403154206E+02  0.51335722524E+01  0.50528857234E+02  0.29999992049E+02 0.  0.
         12    1    1    2    0    0 -0.86141607251E+01 -0.39403154206E+02 -0.51335722524E+01  0.40659142766E+02  0.00000000000E+00 0. -1.
         11    1    3    3    0    0 -0.48440547771E+01  0.17605499210E+02  0.23208864651E+01  0.18406655953E+02  0.51100000000E-03 0.  1.
        -11    1    3    3    0    0  0.13221093814E+02  0.17892339833E+02  0.96458465427E+01  0.24248206163E+02  0.51100000000E-03 0. -1.
         12    1    3    3    0    0  0.23712168841E+00  0.39053151630E+01 -0.68331607554E+01  0.78739951186E+01  0.00000000000E+00 0. -1.
</event>
<event>
 7    1  0.2838209E-011  0.5052887E+02  0.7816164E-02  0.1300439E+00
        -11   -1    0    0    0    0  0.00000000000E+00  0.00000000000E+00  0.45593999997E+02  0.45594000000E+02  0.51100000000E-03 0.  1.
         11   -1    0    0    0    0 -0.00000000000E+00 -0.00000000000E+00 -0.45593999997E+02  0.45594000000E+02  0.51100000000E-03 0. -1.
    9900012    2    1    2    0    0 -0.28968729291E+02 -0.14645325361E+02  0.24484531595E+02  0.50528866720E+02  0.30000020881E+02 0.  0.
         12    1    1    2    0    0  0.28968729291E+02  0.14645325361E+02 -0.24484531595E+02  0.40659133280E+02  0.00000000000E+00 0. -1.
         11    1    3    3    0    0 -0.11241202835E+02 -0.73277971093E+01  0.12894817867E+02  0.18610147225E+02  0.51100000000E-03 0. -1.
        -11    1    3    3    0    0 -0.66414944608E+01  0.48491804628E+00  0.16267622053E+02  0.17577830404E+02  0.51100000000E-03 0.  1.
         12    1    3    3    0    0 -0.11086031995E+02 -0.78024462983E+01 -0.46779083245E+01  0.14340889091E+02  0.00000000000E+00 0. -1.
</event>
<event>
 7    1  0.2838209E-011  0.5052886E+02  0.7816164E-02  0.1300439E+00
        -11   -1    0    0    0    0  0.00000000000E+00  0.00000000000E+00  0.45593999997E+02  0.45594000000E+02  0.51100000000E-03 0. -1.
         11   -1    0    0    0    0 -0.00000000000E+00 -0.00000000000E+00 -0.45593999997E+02  0.45594000000E+02  0.51100000000E-03 0.  1.
    9900012    2    1    2    0    0 -0.16319105797E+02 -0.13272325472E+02 -0.34795085615E+02  0.50528858096E+02  0.29999994667E+02 0.  0.
         12    1    1    2    0    0  0.16319105797E+02  0.13272325472E+02  0.34795085615E+02  0.40659141904E+02  0.00000000000E+00 0. -1.
         11    1    3    3    0    0  0.33326594822E+01 -0.26973652344E+01 -0.11542653260E+02  0.12313214161E+02  0.51100000000E-03 0. -1.
        -11    1    3    3    0    0 -0.22208134456E+01 -0.11836773092E+02 -0.13908359584E+02  0.18397925866E+02  0.51100000000E-03 0.  1.
        -12    1    3    3    0    0 -0.17430951833E+02  0.12618128546E+01 -0.93440727712E+01  0.19817718069E+02  0.00000000000E+00 0.  1.
</event>
<event>
 7    1  0.2838209E-011  0.5052886E+02  0.7816164E-02  0.1300439E+00
        -11   -1    0    0    0    0  0.00000000000E+00  0.00000000000E+00  0.45593999997E+02  0.45594000000E+02  0.51100000000E-03 0. -1.
         11   -1    0    0    0    0 -0.00000000000E+00 -0.00000000000E+00 -0.45593999997E+02  0.45594000000E+02  0.51100000000E-03 0.  1.
    9900012    2    1    2    0    0  0.18282062481E+02  0.35932971843E+02  0.52681120829E+01  0.50528864754E+02  0.30000014905E+02 0.  0.
         12    1    1    2    0    0 -0.18282062481E+02 -0.35932971843E+02 -0.52681120829E+01  0.40659135246E+02  0.00000000000E+00 0. -1.
         11    1    3    3    0    0 -0.77687866228E+00  0.13511407383E+01 -0.23857241378E+01  0.28497020324E+01  0.51100000000E-03 0. -1.
        -11    1    3    3    0    0 -0.32389171039E+01  0.20243405390E+02  0.22507060594E+01  0.20624056920E+02  0.51100000000E-03 0.  1.
        -12    1    3    3    0    0  0.22297858247E+02  0.14338425715E+02  0.54031301613E+01  0.27055105801E+02  0.00000000000E+00 0.  1.
</event>
<event>
 7    1  0.2838209E-011  0.5052884E+02  0.7816164E-02  0.1300439E+00
        -11   -1    0    0    0    0  0.00000000000E+00  0.00000000000E+00  0.45593999997E+02  0.45594000000E+02  0.51100000000E-03 0. -1.
         11   -1    0    0    0    0 -0.00000000000E+00 -0.00000000000E+00 -0.45593999997E+02  0.45594000000E+02  0.51100000000E-03 0.  1.
    9900012    2    1    2    0    0  0.37149838825E+02  0.11283630332E+02 -0.12072140213E+02  0.50528838578E+02  0.29999935342E+02 0.  0.
         12    1    1    2    0    0 -0.37149838825E+02 -0.11283630332E+02  0.12072140213E+02  0.40659161422E+02  0.00000000000E+00 0. -1.
         11    1    3    3    0    0  0.58639261976E+01 -0.57773906888E+01 -0.30706552749E+01  0.87859431879E+01  0.51100000000E-03 0. -1.
        -11    1    3    3    0    0  0.35793813383E+01  0.99537046042E+01 -0.77480535667E+01  0.13111847332E+02  0.51100000000E-03 0.  1.
        -12    1    3    3    0    0  0.27706531290E+02  0.71073164163E+01 -0.12534313710E+01  0.28631048059E+02  0.00000000000E+00 0.  1.
</event>
<event>
 7    1  0.2838209E-011  0.5052887E+02  0.7816164E-02  0.1300439E+00
        -11   -1    0    0    0    0  0.00000000000E+00  0.00000000000E+00  0.45593999997E+02  0.45594000000E+02  0.51100000000E-03 0. -1.
         11   -1    0    0    0    0 -0.00000000000E+00 -0.00000000000E+00 -0.45593999997E+02  0.45594000000E+02  0.51100000000E-03 0.  1.
    9900012    2    1    2    0    0 -0.30965343433E+02  0.26084880712E+01 -0.26220380692E+02  0.50528867354E+02  0.30000022809E+02 0.  0.
         12    1    1    2    0    0  0.30965343433E+02 -0.26084880712E+01  0.26220380692E+02  0.40659132646E+02  0.00000000000E+00 0. -1.
         11    1    3    3    0    0 -0.11233115036E+02 -0.89064205306E+01  0.12557787018E+00  0.14336072340E+02  0.51100000000E-03 0. -1.
        -11    1    3    3    0    0 -0.20226790956E+01 -0.14519189906E+01 -0.49486314581E+01  0.55396979203E+01  0.51100000000E-03 0.  1.
         12    1    3    3    0    0 -0.17709549301E+02  0.12966827592E+02 -0.21397327104E+02  0.30653097094E+02  0.00000000000E+00 0. -1.
</event>
<event>
 7    1  0.2838209E-011  0.5052886E+02  0.7816164E-02  0.1300439E+00
        -11   -1    0    0    0    0  0.00000000000E+00  0.00000000000E+00  0.45593999997E+02  0.45594000000E+02  0.51100000000E-03 0.  1.
         11   -1    0    0    0    0 -0.00000000000E+00 -0.00000000000E+00 -0.45593999997E+02  0.45594000000E+02  0.51100000000E-03 0. -1.
    9900012    2    1    2    0    0  0.30821376400E+02 -0.73196447576E+01  0.25487869248E+02  0.50528856854E+02  0.29999990895E+02 0.  0.
         12    1    1    2    0    0 -0.30821376400E+02  0.73196447576E+01 -0.25487869248E+02  0.40659143146E+02  0.00000000000E+00 0. -1.
         11    1    3    3    0    0  0.72168894361E+01 -0.12010033306E+01  0.11784885494E+02  0.13871172571E+02  0.51100000000E-03 0.  1.
        -11    1    3    3    0    0  0.56004631735E+01 -0.10919224559E+02  0.13192453614E+02  0.18017643724E+02  0.51100000000E-03 0. -1.
         12    1    3    3    0    0  0.18004023790E+02  0.48005831317E+01  0.51053013939E+00  0.18640040560E+02  0.00000000000E+00 0. -1.
</event>
<event>
 7    1  0.4341214E-011  0.5052886E+02  0.7816164E-02  0.1300439E+00
        -11   -1    0    0    0    0  0.00000000000E+00  0.00000000000E+00  0.45593999997E+02  0.45594000000E+02  0.51100000000E-03 0.  1.
         11   -1    0    0    0    0 -0.00000000000E+00 -0.00000000000E+00 -0.45593999997E+02  0.45594000000E+02  0.51100000000E-03 0. -1.
    9900012    2    1    2    0    0 -0.37504484193E+02 -0.12274579444E+02 -0.97935646190E+01  0.50528861507E+02  0.30000005035E+02 0.  0.
         12    1    1    2    0    0  0.37504484193E+02  0.12274579444E+02  0.97935646190E+01  0.40659138493E+02  0.00000000000E+00 0. -1.
         11    1    3    3    0    0  0.12881781412E+01  0.27820888469E-01 -0.31180242449E+01  0.33737593836E+01  0.51100000000E-03 0. -1.
        -11    1    3    3    0    0 -0.10868756745E+02 -0.18286919108E+01 -0.12609099398E+02  0.16747040788E+02  0.51100000000E-03 0.  1.
        -12    1    3    3    0    0 -0.27923905589E+02 -0.10473708422E+02  0.59335590237E+01  0.30408061334E+02  0.00000000000E+00 0.  1.
</event>
<event>
 7    1  0.2838209E-011  0.5052886E+02  0.7816164E-02  0.1300439E+00
        -11   -1    0    0    0    0  0.00000000000E+00  0.00000000000E+00  0.45593999997E+02  0.45594000000E+02  0.51100000000E-03 0. -1.
         11   -1    0    0    0    0 -0.00000000000E+00 -0.00000000000E+00 -0.45593999997E+02  0.45594000000E+02  0.51100000000E-03 0.  1.
    9900012    2    1    2    0    0 -0.36569959672E+02 -0.12411181044E+02 -0.12718745357E+02  0.50528857746E+02  0.29999993606E+02 0.  0.
         12    1    1    2    0    0  0.36569959672E+02  0.12411181044E+02  0.12718745357E+02  0.40659142254E+02  0.00000000000E+00 0. -1.
         11    1    3    3    0    0 -0.20438410121E+01  0.93567468308E+00  0.18876415329E+01  0.29352962394E+01  0.51100000000E-03 0. -1.
        -11    1    3    3    0    0 -0.32415380563E+02 -0.11223173535E+02 -0.17010730067E+01  0.34345453423E+02  0.51100000000E-03 0.  1.
        -12    1    3    3    0    0 -0.21107380978E+01 -0.21236821916E+01 -0.12905313883E+02  0.13248108084E+02  0.00000000000E+00 0.  1.
</event>
<event>
 7    1  0.2838209E-011  0.5052886E+02  0.7816164E-02  0.1300439E+00
        -11   -1    0    0    0    0  0.00000000000E+00  0.00000000000E+00  0.45593999997E+02  0.45594000000E+02  0.51100000000E-03 0.  1.
         11   -1    0    0    0    0 -0.00000000000E+00 -0.00000000000E+00 -0.45593999997E+02  0.45594000000E+02  0.51100000000E-03 0. -1.
    9900012    2    1    2    0    0  0.99427271271E+01  0.17925574525E+02  0.35113841353E+02  0.50528857125E+02  0.29999991718E+02 0.  0.
         12    1    1    2    0    0 -0.99427271271E+01 -0.17925574525E+02 -0.35113841353E+02  0.40659142875E+02  0.00000000000E+00 0. -1.
         11    1    3    3    0    0  0.48043054500E+01  0.12221209898E+02  0.24233401226E+02  0.27562602516E+02  0.51100000000E-03 0. -1.
        -11    1    3    3    0    0  0.46872327429E+01  0.30194453433E+01  0.16122485935E+02  0.17059359717E+02  0.51100000000E-03 0.  1.
         12    1    3    3    0    0  0.45118893410E+00  0.26849192836E+01 -0.52420458081E+01  0.59068948922E+01  0.00000000000E+00 0. -1.
</event>
<event>
 7    1  0.2838209E-011  0.5052895E+02  0.7816164E-02  0.1300438E+00
        -11   -1    0    0    0    0  0.00000000000E+00  0.00000000000E+00  0.45593999997E+02  0.45594000000E+02  0.51100000000E-03 0.  1.
         11   -1    0    0    0    0 -0.00000000000E+00 -0.00000000000E+00 -0.45593999997E+02  0.45594000000E+02  0.51100000000E-03 0. -1.
    9900012    2    1    2    0    0 -0.18027038252E+02  0.34746925322E+02  0.10992518491E+02  0.50528949467E+02  0.30000272398E+02 0.  0.
         12    1    1    2    0    0  0.18027038252E+02 -0.34746925322E+02 -0.10992518491E+02  0.40659050533E+02  0.00000000000E+00 0. -1.
         11    1    3    3    0    0 -0.29063628902E+01  0.29152653519E+01 -0.12194143169E+00  0.41183233598E+01  0.51100000000E-03 0. -1.
        -11    1    3    3    0    0  0.61805023565E+01  0.19341274789E+02  0.62302757385E+01  0.21239111467E+02  0.51100000000E-03 0.  1.
        -12    1    3    3    0    0 -0.21301177718E+02  0.12490385181E+02  0.48841841843E+01  0.25171514640E+02  0.00000000000E+00 0.  1.
</event>
<event>
 7    1  0.2838209E-011  0.5052884E+02  0.7816164E-02  0.1300439E+00
        -11   -1    0    0    0    0  0.00000000000E+00  0.00000000000E+00  0.45593999997E+02  0.45594000000E+02  0.51100000000E-03 0. -1.
         11   -1    0    0    0    0 -0.00000000000E+00 -0.00000000000E+00 -0.45593999997E+02  0.45594000000E+02  0.51100000000E-03 0.  1.
    9900012    2    1    2    0    0 -0.32752771164E+02 -0.28890442444E+01 -0.23918119890E+02  0.50528842917E+02  0.29999948532E+02 0.  0.
         12    1    1    2    0    0  0.32752771164E+02  0.28890442444E+01  0.23918119890E+02  0.40659157083E+02  0.00000000000E+00 0. -1.
         11    1    3    3    0    0 -0.16583973054E+02  0.76890111786E+01 -0.35940752535E+01  0.18629719062E+02  0.51100000000E-03 0. -1.
        -11    1    3    3    0    0 -0.12280767203E+02 -0.85508133083E+01 -0.47206593160E+01  0.15691343982E+02  0.51100000000E-03 0.  1.
         12    1    3    3    0    0 -0.38880309070E+01 -0.20272421147E+01 -0.15603385321E+02  0.16207779873E+02  0.00000000000E+00 0. -1.
</event>
<event>
 7    1  0.2838209E-011  0.5052887E+02  0.7816164E-02  0.1300439E+00
        -11   -1    0    0    0    0  0.00000000000E+00  0.00000000000E+00  0.45593999997E+02  0.45594000000E+02  0.51100000000E-03 0. -1.
         11   -1    0    0    0    0 -0.00000000000E+00 -0.00000000000E+00 -0.45593999997E+02  0.45594000000E+02  0.51100000000E-03 0.  1.
    9900012    2    1    2    0    0  0.26076051777E+02 -0.58043356366E+01 -0.30651488876E+02  0.50528873611E+02  0.30000041827E+02 0.  0.
         12    1    1    2    0    0 -0.26076051777E+02  0.58043356366E+01  0.30651488876E+02  0.40659126389E+02  0.00000000000E+00 0. -1.
         11    1    3    3    0    0  0.10145207881E+02  0.69112762579E+01 -0.13176414095E+02  0.18008577709E+02  0.51100000000E-03 0. -1.
        -11    1    3    3    0    0  0.11686367039E+02 -0.12199796213E+01 -0.16460831394E+02  0.20224205677E+02  0.51100000000E-03 0.  1.
         12    1    3    3    0    0  0.42444768578E+01 -0.11495632273E+02 -0.10142433874E+01  0.12296090224E+02  0.00000000000E+00 0. -1.
</event>
<event>
 7    1  0.2838209E-011  0.5052886E+02  0.7816164E-02  0.1300439E+00
        -11   -1    0    0    0    0  0.00000000000E+00  0.00000000000E+00  0.45593999997E+02  0.45594000000E+02  0.51100000000E-03 0.  1.
         11   -1    0    0    0    0 -0.00000000000E+00 -0.00000000000E+00 -0.45593999997E+02  0.45594000000E+02  0.51100000000E-03 0. -1.
    9900012    2    1    2    0    0  0.48213586427E+01 -0.15937377654E+02  0.37093402853E+02  0.50528855385E+02  0.29999986427E+02 0.  0.
         12    1    1    2    0    0 -0.48213586427E+01  0.15937377654E+02 -0.37093402853E+02  0.40659144615E+02  0.00000000000E+00 0. -1.
         11    1    3    3    0    0 -0.44895564551E-01 -0.66742087186E+01  0.44778983123E+01  0.80373286102E+01  0.51100000000E-03 0. -1.
        -11    1    3    3    0    0  0.27188585566E+01 -0.16112243397E+02  0.10954562574E+02  0.19672290680E+02  0.51100000000E-03 0.  1.
         12    1    3    3    0    0  0.21473956507E+01  0.68490744620E+01  0.21660941967E+02  0.22819236095E+02  0.00000000000E+00 0. -1.
</event>
<event>
 7    1  0.2838209E-011  0.5052886E+02  0.7816164E-02  0.1300439E+00
        -11   -1    0    0    0    0  0.00000000000E+00  0.00000000000E+00  0.45593999997E+02  0.45594000000E+02  0.51100000000E-03 0.  1.
         11   -1    0    0    0    0 -0.00000000000E+00 -0.00000000000E+00 -0.45593999997E+02  0.45594000000E+02  0.51100000000E-03 0. -1.
    9900012    2    1    2    0    0  0.24698807411E+02  0.32839393976E+01  0.32130209543E+02  0.50528859444E+02  0.29999998765E+02 0.  0.
         12    1    1    2    0    0 -0.24698807411E+02 -0.32839393976E+01 -0.32130209543E+02  0.40659140556E+02  0.00000000000E+00 0. -1.
         11    1    3    3    0    0 -0.12763184027E+01 -0.20460553753E+01 -0.10241824772E+01  0.26199773418E+01  0.51100000000E-03 0. -1.
        -11    1    3    3    0    0  0.93075637091E+01 -0.87165882284E+01  0.13285140475E+02  0.18414793245E+02  0.51100000000E-03 0.  1.
        -12    1    3    3    0    0  0.16667562105E+02  0.14046583001E+02  0.19869251545E+02  0.29494088857E+02  0.00000000000E+00 0.  1.
</event>
<event>
 7    1  0.2838209E-011  0.5052885E+02  0.7816164E-02  0.1300439E+00
        -11   -1    0    0    0    0  0.00000000000E+00  0.00000000000E+00  0.45593999997E+02  0.45594000000E+02  0.51100000000E-03 0.  1.
         11   -1    0    0    0    0 -0.00000000000E+00 -0.00000000000E+00 -0.45593999997E+02  0.45594000000E+02  0.51100000000E-03 0. -1.
    9900012    2    1    2    0    0 -0.46159382989E+01  0.58550370374E+01  0.39969712389E+02  0.50528852769E+02  0.29999978477E+02 0.  0.
         12    1    1    2    0    0  0.46159382989E+01 -0.58550370374E+01 -0.39969712389E+02  0.40659147231E+02  0.00000000000E+00 0. -1.
         11    1    3    3    0    0 -0.24014658364E+01  0.46650019710E+00 -0.10804036525E+01  0.26743098008E+01  0.51100000000E-03 0.  1.
        -11    1    3    3    0    0 -0.38876057313E+01 -0.19025572856E+01 -0.15539746019E+01  0.45986998023E+01  0.51100000000E-03 0. -1.
        -12    1    3    3    0    0  0.16731332689E+01  0.72910941259E+01  0.42604090643E+02  0.43255843166E+02  0.00000000000E+00 0.  1.
</event>
<event>
 7    1  0.2838209E-011  0.5052886E+02  0.7816164E-02  0.1300439E+00
        -11   -1    0    0    0    0  0.00000000000E+00  0.00000000000E+00  0.45593999997E+02  0.45594000000E+02  0.51100000000E-03 0. -1.
         11   -1    0    0    0    0 -0.00000000000E+00 -0.00000000000E+00 -0.45593999997E+02  0.45594000000E+02  0.51100000000E-03 0.  1.
    9900012    2    1    2    0    0 -0.12994382596E+02 -0.17045381607E+02 -0.34550933421E+02  0.50528855722E+02  0.29999987453E+02 0.  0.
         12    1    1    2    0    0  0.12994382596E+02  0.17045381607E+02  0.34550933421E+02  0.40659144278E+02  0.00000000000E+00 0. -1.
         11    1    3    3    0    0  0.80603570222E+00  0.44734828648E+01  0.67006258321E+00  0.45946410764E+01  0.51100000000E-03 0. -1.
        -11    1    3    3    0    0 -0.11101478297E+02 -0.44558259341E+01 -0.17391918633E+02  0.21108672131E+02  0.51100000000E-03 0.  1.
        -12    1    3    3    0    0 -0.26989400014E+01 -0.17063038537E+02 -0.17829077370E+02  0.24825542515E+02  0.00000000000E+00 0.  1.
</event>
<event>
 7    1  0.2838209E-011  0.5052885E+02  0.7816164E-02  0.1300439E+00
        -11   -1    0    0    0    0  0.00000000000E+00  0.00000000000E+00  0.45593999997E+02  0.45594000000E+02  0.51100000000E-03 0. -1.
         11   -1    0    0    0    0 -0.00000000000E+00 -0.00000000000E+00 -0.45593999997E+02  0.45594000000E+02  0.51100000000E-03 0.  1.
    9900012    2    1    2    0    0  0.23071489622E+00  0.39822289961E+02 -0.82035776135E+01  0.50528847367E+02  0.29999962058E+02 0.  0.
         12    1    1    2    0    0 -0.23071489622E+00 -0.39822289961E+02  0.82035776135E+01  0.40659152633E+02  0.00000000000E+00 0. -1.
         11    1    3    3    0    0 -0.17298421371E+01  0.15342921018E+02  0.17803866739E+01  0.15542437265E+02  0.51100000000E-03 0. -1.
        -11    1    3    3    0    0  0.12312437550E+02  0.13117718298E+02 -0.71360037770E+01  0.19354410400E+02  0.51100000000E-03 0.  1.
         12    1    3    3    0    0 -0.10351880517E+02  0.11361650646E+02 -0.28479605105E+01  0.15631999702E+02  0.00000000000E+00 0. -1.
</event>
<event>
 7    1  0.2838209E-011  0.5052886E+02  0.7816164E-02  0.1300439E+00
        -11   -1    0    0    0    0  0.00000000000E+00  0.00000000000E+00  0.45593999997E+02  0.45594000000E+02  0.51100000000E-03 0.  1.
         11   -1    0    0    0    0 -0.00000000000E+00 -0.00000000000E+00 -0.45593999997E+02  0.45594000000E+02  0.51100000000E-03 0. -1.
    9900012    2    1    2    0    0 -0.12775956532E+02 -0.17789958174E+02  0.34255774148E+02  0.50528859089E+02  0.29999997687E+02 0.  0.
         12    1    1    2    0    0  0.12775956532E+02  0.17789958174E+02 -0.34255774148E+02  0.40659140911E+02  0.00000000000E+00 0. -1.
         11    1    3    3    0    0  0.53538158966E+01 -0.11606880841E+02  0.75512564596E+01  0.14846026468E+02  0.51100000000E-03 0. -1.
        -11    1    3    3    0    0 -0.18375557690E+01 -0.64365352666E+01  0.11970302276E+02  0.13714726912E+02  0.51100000000E-03 0.  1.
        -12    1    3    3    0    0 -0.16292216660E+02  0.25345793364E+00  0.14734215413E+02  0.21968105709E+02  0.00000000000E+00 0.  1.
</event>
<event>
 7    1  0.2838209E-011  0.5052890E+02  0.7816164E-02  0.1300439E+00
        -11   -1    0    0    0    0  0.00000000000E+00  0.00000000000E+00  0.45593999997E+02  0.45594000000E+02  0.51100000000E-03 0.  1.
         11   -1    0    0    0    0 -0.00000000000E+00 -0.00000000000E+00 -0.45593999997E+02  0.45594000000E+02  0.51100000000E-03 0. -1.
    9900012    2    1    2    0    0 -0.12857479761E+02  0.35957638419E+02 -0.13960512341E+02  0.50528899526E+02  0.30000120599E+02 0.  0.
         12    1    1    2    0    0  0.12857479761E+02 -0.35957638419E+02  0.13960512341E+02  0.40659100474E+02  0.00000000000E+00 0. -1.
         11    1    3    3    0    0  0.63699685952E+00  0.20533241527E+02 -0.66661192627E+01  0.21597613731E+02  0.51100000000E-03 0.  1.
        -11    1    3    3    0    0  0.36337967019E+01  0.61482332356E+01 -0.61399155465E+01  0.94182702005E+01  0.51100000000E-03 0. -1.
         12    1    3    3    0    0 -0.17128273323E+02  0.92761636568E+01 -0.11544775323E+01  0.19513015594E+02  0.00000000000E+00 0. -1.
</event>
<event>
 7    1  0.2838209E-011  0.5052886E+02  0.7816164E-02  0.1300439E+00
        -11   -1    0    0    0    0  0.00000000000E+00  0.00000000000E+00  0.45593999997E+02  0.45594000000E+02  0.51100000000E-03 0.  1.
         11   -1    0    0    0    0 -0.00000000000E+00 -0.00000000000E+00 -0.45593999997E+02  0.45594000000E+02  0.51100000000E-03 0. -1.
    9900012    2    1    2    0    0 -0.24918895502E+02 -0.20284853642E+01  0.32063992760E+02  0.50528859114E+02  0.29999997762E+02 0.  0.
         12    1    1    2    0    0  0.24918895502E+02  0.20284853642E+01 -0.32063992760E+02  0.40659140886E+02  0.00000000000E+00 0. -1.
         11    1    3    3    0    0 -0.88578775556E+01 -0.50214011728E+01  0.34033304748E+01  0.10735880174E+02  0.51100000000E-03 0. -1.
        -11    1    3    3    0    0 -0.17751350965E+02 -0.26332797584E+01  0.10694148112E+02  0.20890414728E+02  0.51100000000E-03 0.  1.
        -12    1    3    3    0    0  0.16903330188E+01  0.56261955670E+01  0.17966514173E+02  0.18902564212E+02  0.00000000000E+00 0.  1.
</event>
<event>
 7    1  0.2838209E-011  0.5052887E+02  0.7816164E-02  0.1300439E+00
        -11   -1    0    0    0    0  0.00000000000E+00  0.00000000000E+00  0.45593999997E+02  0.45594000000E+02  0.51100000000E-03 0. -1.
         11   -1    0    0    0    0 -0.00000000000E+00 -0.00000000000E+00 -0.45593999997E+02  0.45594000000E+02  0.51100000000E-03 0.  1.
    9900012    2    1    2    0    0  0.34334522936E+02  0.13320899719E+02 -0.17229608153E+02  0.50528865335E+02  0.30000016672E+02 0.  0.
         12    1    1    2    0    0 -0.34334522936E+02 -0.13320899719E+02  0.17229608153E+02  0.40659134665E+02  0.00000000000E+00 0. -1.
         11    1    3    3    0    0  0.15292914749E+01  0.85077866596E+01 -0.10605748870E+02  0.13682217496E+02  0.51100000000E-03 0. -1.
        -11    1    3    3    0    0 -0.14416322034E+01 -0.12904278794E+00 -0.10749764227E+01  0.18029226333E+01  0.51100000000E-03 0.  1.
        -12    1    3    3    0    0  0.34246863665E+02  0.49421558470E+01 -0.55488828610E+01  0.35043725206E+02  0.00000000000E+00 0.  1.
</event>
<event>
 7    1  0.2838209E-011  0.5052887E+02  0.7816164E-02  0.1300439E+00
        -11   -1    0    0    0    0  0.00000000000E+00  0.00000000000E+00  0.45593999997E+02  0.45594000000E+02  0.51100000000E-03 0. -1.
         11   -1    0    0    0    0 -0.00000000000E+00 -0.00000000000E+00 -0.45593999997E+02  0.45594000000E+02  0.51100000000E-03 0.  1.
    9900012    2    1    2    0    0  0.40163544767E+02 -0.12006353215E+01  0.62139510217E+01  0.50528867683E+02  0.30000023810E+02 0.  0.
         12    1    1    2    0    0 -0.40163544767E+02  0.12006353215E+01 -0.62139510217E+01  0.40659132317E+02  0.00000000000E+00 0. -1.
         11    1    3    3    0    0  0.10819383253E+02  0.16840427571E+00 -0.42073299007E+01  0.11609868179E+02  0.51100000000E-03 0. -1.
        -11    1    3    3    0    0  0.12545479178E+02  0.47445380845E+01 -0.59551395115E+01  0.14675264096E+02  0.51100000000E-03 0.  1.
         12    1    3    3    0    0  0.16798682336E+02 -0.61135776817E+01  0.16376420434E+02  0.24243735408E+02  0.00000000000E+00 0. -1.
</event>
<event>
 7    1  0.2838209E-011  0.5052886E+02  0.7816164E-02  0.1300439E+00
        -11   -1    0    0    0    0  0.00000000000E+00  0.00000000000E+00  0.45593999997E+02  0.45594000000E+02  0.51100000000E-03 0.  1.
         11   -1    0    0    0    0 -0.00000000000E+00 -0.00000000000E+00 -0.45593999997E+02  0.45594000000E+02  0.51100000000E-03 0. -1.
    9900012    2    1    2    0    0  0.15902552956E+02  0.28913146430E+02  0.23755100879E+02  0.50528855336E+02  0.29999986281E+02 0.  0.
         12    1    1    2    0    0 -0.15902552956E+02 -0.28913146430E+02 -0.23755100879E+02  0.40659144664E+02  0.00000000000E+00 0. -1.
         11    1    3    3    0    0  0.29668721391E+01 -0.70126567607E+00  0.50329944258E+00  0.30898890640E+01  0.51100000000E-03 0. -1.
        -11    1    3    3    0    0  0.68774046639E+00 -0.77149201557E-01 -0.47668591626E+01  0.48168335539E+01  0.51100000000E-03 0.  1.
        -12    1    3    3    0    0  0.12247940351E+02  0.29691561308E+02  0.28018660599E+02  0.42622132719E+02  0.00000000000E+00 0.  1.
</event>
<event>
 7    1  0.2838209E-011  0.5052887E+02  0.7816164E-02  0.1300439E+00
        -11   -1    0    0    0    0  0.00000000000E+00  0.00000000000E+00  0.45593999997E+02  0.45594000000E+02  0.51100000000E-03 0. -1.
         11   -1    0    0    0    0 -0.00000000000E+00 -0.00000000000E+00 -0.45593999997E+02  0.45594000000E+02  0.51100000000E-03 0.  1.
    9900012    2    1    2    0    0  0.40445173640E+02  0.12430033857E+01 -0.39759333754E+01  0.50528866040E+02  0.30000018815E+02 0.  0.
         12    1    1    2    0    0 -0.40445173640E+02 -0.12430033857E+01  0.39759333754E+01  0.40659133960E+02  0.00000000000E+00 0. -1.
         11    1    3    3    0    0 -0.38077263619E+01 -0.89295042143E+00  0.25159131604E+01  0.46503720060E+01  0.51100000000E-03 0. -1.
        -11    1    3    3    0    0  0.19064471536E+02 -0.20081870506E+01  0.12291821137E+01  0.19209314905E+02  0.51100000000E-03 0.  1.
        -12    1    3    3    0    0  0.25188428466E+02  0.41441408578E+01 -0.77210286496E+01  0.26669179129E+02  0.00000000000E+00 0.  1.
</event>
<event>
 7    1  0.2838209E-011  0.5052886E+02  0.7816164E-02  0.1300439E+00
        -11   -1    0    0    0    0  0.00000000000E+00  0.00000000000E+00  0.45593999997E+02  0.45594000000E+02  0.51100000000E-03 0. -1.
         11   -1    0    0    0    0 -0.00000000000E+00 -0.00000000000E+00 -0.45593999997E+02  0.45594000000E+02  0.51100000000E-03 0.  1.
    9900012    2    1    2    0    0 -0.30139121919E+02  0.35128309868E+00 -0.27288741948E+02  0.50528861950E+02  0.30000006384E+02 0.  0.
         12    1    1    2    0    0  0.30139121919E+02 -0.35128309868E+00  0.27288741948E+02  0.40659138050E+02  0.00000000000E+00 0. -1.
         11    1    3    3    0    0 -0.17539067852E+01  0.11571083791E+02 -0.74991674443E+01  0.13899772722E+02  0.51100000000E-03 0. -1.
        -11    1    3    3    0    0 -0.86633079925E+01 -0.14453028338E+01 -0.49371344029E+01  0.10075569563E+02  0.51100000000E-03 0.  1.
         12    1    3    3    0    0 -0.19721907141E+02 -0.97744978582E+01 -0.14852440101E+02  0.26553519665E+02  0.00000000000E+00 0. -1.
</event>
<event>
 7    1  0.2838209E-011  0.5052887E+02  0.7816164E-02  0.1300439E+00
        -11   -1    0    0    0    0  0.00000000000E+00  0.00000000000E+00  0.45593999997E+02  0.45594000000E+02  0.51100000000E-03 0. -1.
         11   -1    0    0    0    0 -0.00000000000E+00 -0.00000000000E+00 -0.45593999997E+02  0.45594000000E+02  0.51100000000E-03 0.  1.
    9900012    2    1    2    0    0  0.58949838191E+01  0.28878243772E+02 -0.28008238250E+02  0.50528865633E+02  0.30000017579E+02 0.  0.
         12    1    1    2    0    0 -0.58949838191E+01 -0.28878243772E+02  0.28008238250E+02  0.40659134367E+02  0.00000000000E+00 0. -1.
         11    1    3    3    0    0  0.16739838252E+01  0.23881702861E+01  0.23675393666E+01  0.37564374181E+01  0.51100000000E-03 0. -1.
        -11    1    3    3    0    0 -0.40236256427E+01  0.15464678351E+02 -0.28772812931E+02  0.32912316904E+02  0.51100000000E-03 0.  1.
         12    1    3    3    0    0  0.82446256366E+01  0.11025395135E+02 -0.16029646859E+01  0.13860111311E+02  0.00000000000E+00 0. -1.
</event>
<event>
 7    1  0.2838209E-011  0.5052884E+02  0.7816164E-02  0.1300439E+00
        -11   -1    0    0    0    0  0.00000000000E+00  0.00000000000E+00  0.45593999997E+02  0.45594000000E+02  0.51100000000E-03 0.  1.
         11   -1    0    0    0    0 -0.00000000000E+00 -0.00000000000E+00 -0.45593999997E+02  0.45594000000E+02  0.51100000000E-03 0. -1.
    9900012    2    1    2    0    0  0.14885895559E+02 -0.17400584292E+01  0.37796153328E+02  0.50528844864E+02  0.29999954449E+02 0.  0.
         12    1    1    2    0    0 -0.14885895559E+02  0.17400584292E+01 -0.37796153328E+02  0.40659155136E+02  0.00000000000E+00 0. -1.
         11    1    3    3    0    0  0.11638113151E+01 -0.10254230302E+01  0.19156250169E+02  0.19218945600E+02  0.51100000000E-03 0.  1.
        -11    1    3    3    0    0  0.26214604666E+01 -0.74759772747E+01  0.16272303565E+02  0.18098346742E+02  0.51100000000E-03 0. -1.
         12    1    3    3    0    0  0.11100623778E+02  0.67613418757E+01  0.23675995935E+01  0.13211552522E+02  0.00000000000E+00 0. -1.
</event>
<event>
 7    1  0.2838209E-011  0.5052887E+02  0.7816164E-02  0.1300439E+00
        -11   -1    0    0    0    0  0.00000000000E+00  0.00000000000E+00  0.45593999997E+02  0.45594000000E+02  0.51100000000E-03 0.  1.
         11   -1    0    0    0    0 -0.00000000000E+00 -0.00000000000E+00 -0.45593999997E+02  0.45594000000E+02  0.51100000000E-03 0. -1.
    9900012    2    1    2    0    0 -0.32272981221E+02  0.24541941303E+02  0.30516277551E+01  0.50528872713E+02  0.30000039099E+02 0.  0.
         12    1    1    2    0    0  0.32272981221E+02 -0.24541941303E+02 -0.30516277551E+01  0.40659127287E+02  0.00000000000E+00 0. -1.
         11    1    3    3    0    0 -0.17755095476E+02  0.10013476643E+02 -0.49623554752E+01  0.20979468582E+02  0.51100000000E-03 0. -1.
        -11    1    3    3    0    0 -0.18175936607E+02  0.13598696897E+02  0.24580297533E+01  0.22832677008E+02  0.51100000000E-03 0.  1.
        -12    1    3    3    0    0  0.36580508628E+01  0.92976776344E+00  0.55559534769E+01  0.67167271231E+01  0.00000000000E+00 0.  1.
</event>
<event>
 7    1  0.2838209E-011  0.5052886E+02  0.7816164E-02  0.1300439E+00
        -11   -1    0    0    0    0  0.00000000000E+00  0.00000000000E+00  0.45593999997E+02  0.45594000000E+02  0.51100000000E-03 0.  1.
         11   -1    0    0    0    0 -0.00000000000E+00 -0.00000000000E+00 -0.45593999997E+02  0.45594000000E+02  0.51100000000E-03 0. -1.
    9900012    2    1    2    0    0 -0.19880344546E+02 -0.11802596119E+02  0.33446021636E+02  0.50528859113E+02  0.29999997759E+02 0.  0.
         12    1    1    2    0    0  0.19880344546E+02  0.11802596119E+02 -0.33446021636E+02  0.40659140887E+02  0.00000000000E+00 0. -1.
         11    1    3    3    0    0  0.59020278538E+00  0.12921218138E+01 -0.27726665825E+01  0.31153809315E+01  0.51100000000E-03 0. -1.
        -11    1    3    3    0    0 -0.14045754398E+02  0.19509044823E+01  0.18271485803E+02  0.23128692973E+02  0.51100000000E-03 0.  1.
         12    1    3    3    0    0 -0.64247929334E+01 -0.15045622416E+02  0.17947202415E+02  0.24284785209E+02  0.00000000000E+00 0. -1.
</event>
<event>
 7    1  0.2838209E-011  0.5052883E+02  0.7816164E-02  0.1300439E+00
        -11   -1    0    0    0    0  0.00000000000E+00  0.00000000000E+00  0.45593999997E+02  0.45594000000E+02  0.51100000000E-03 0. -1.
         11   -1    0    0    0    0 -0.00000000000E+00 -0.00000000000E+00 -0.45593999997E+02  0.45594000000E+02  0.51100000000E-03 0.  1.
    9900012    2    1    2    0    0 -0.23332878830E+02  0.27378509167E+02 -0.18951562447E+02  0.50528834762E+02  0.29999923741E+02 0.  0.
         12    1    1    2    0    0  0.23332878830E+02 -0.27378509167E+02  0.18951562447E+02  0.40659165238E+02  0.00000000000E+00 0. -1.
         11    1    3    3    0    0 -0.16059136941E+01  0.61899521738E+01 -0.77553004012E+01  0.10051823281E+02  0.51100000000E-03 0. -1.
        -11    1    3    3    0    0 -0.32183718159E+01 -0.20414078253E+01 -0.10055216690E+02  0.10753262109E+02  0.51100000000E-03 0.  1.
         12    1    3    3    0    0 -0.18508593320E+02  0.23229964819E+02 -0.11410453557E+01  0.29723749371E+02  0.00000000000E+00 0. -1.
</event>
<event>
 7    1  0.2838209E-011  0.5052884E+02  0.7816164E-02  0.1300439E+00
        -11   -1    0    0    0    0  0.00000000000E+00  0.00000000000E+00  0.45593999997E+02  0.45594000000E+02  0.51100000000E-03 0. -1.
         11   -1    0    0    0    0 -0.00000000000E+00 -0.00000000000E+00 -0.45593999997E+02  0.45594000000E+02  0.51100000000E-03 0.  1.
    9900012    2    1    2    0    0  0.23929021844E+02  0.32820866249E+02  0.18330341852E+01  0.50528839137E+02  0.29999937042E+02 0.  0.
         12    1    1    2    0    0 -0.23929021844E+02 -0.32820866249E+02 -0.18330341852E+01  0.40659160863E+02  0.00000000000E+00 0. -1.
         11    1    3    3    0    0 -0.23735670927E+01  0.93796290619E+00  0.37210942590E+01  0.45122209501E+01  0.51100000000E-03 0. -1.
        -11    1    3    3    0    0  0.14217786372E+02  0.30545037971E+02  0.12693449433E+00  0.33692149035E+02  0.51100000000E-03 0.  1.
         12    1    3    3    0    0  0.12084802565E+02  0.13378653719E+01 -0.20149945681E+01  0.12324469153E+02  0.00000000000E+00 0. -1.
</event>
<event>
 7    1  0.2838209E-011  0.5052886E+02  0.7816164E-02  0.1300439E+00
        -11   -1    0    0    0    0  0.00000000000E+00  0.00000000000E+00  0.45593999997E+02  0.45594000000E+02  0.51100000000E-03 0. -1.
         11   -1    0    0    0    0 -0.00000000000E+00 -0.00000000000E+00 -0.45593999997E+02  0.45594000000E+02  0.51100000000E-03 0.  1.
    9900012    2    1    2    0    0  0.27099019029E+01 -0.21311774055E+02 -0.34520002631E+02  0.50528857567E+02  0.29999993061E+02 0.  0.
         12    1    1    2    0    0 -0.27099019029E+01  0.21311774055E+02  0.34520002631E+02  0.40659142433E+02  0.00000000000E+00 0. -1.
         11    1    3    3    0    0 -0.44119781478E+00 -0.50683464790E+01 -0.30182596294E+01  0.59154613509E+01  0.51100000000E-03 0. -1.
        -11    1    3    3    0    0  0.78924706653E+01 -0.21443005394E+02 -0.16951057063E+02  0.28450516855E+02  0.51100000000E-03 0.  1.
         12    1    3    3    0    0 -0.47413709477E+01  0.51995778174E+01 -0.14550685940E+02  0.16162879361E+02  0.00000000000E+00 0. -1.
</event>
<event>
 7    1  0.2838209E-011  0.5052886E+02  0.7816164E-02  0.1300439E+00
        -11   -1    0    0    0    0  0.00000000000E+00  0.00000000000E+00  0.45593999997E+02  0.45594000000E+02  0.51100000000E-03 0. -1.
         11   -1    0    0    0    0 -0.00000000000E+00 -0.00000000000E+00 -0.45593999997E+02  0.45594000000E+02  0.51100000000E-03 0.  1.
    9900012    2    1    2    0    0 -0.11580917718E+01 -0.34096527101E+02 -0.22119032151E+02  0.50528856868E+02  0.29999990937E+02 0.  0.
         12    1    1    2    0    0  0.11580917718E+01  0.34096527101E+02  0.22119032151E+02  0.40659143132E+02  0.00000000000E+00 0. -1.
         11    1    3    3    0    0 -0.74847790357E+00  0.17692281726E+00 -0.13284736611E+01  0.15350450758E+01  0.51100000000E-03 0. -1.
        -11    1    3    3    0    0 -0.98016293804E+01 -0.33152619085E+02 -0.18708435051E+02  0.39308696659E+02  0.51100000000E-03 0.  1.
         12    1    3    3    0    0  0.93920155122E+01 -0.11208308334E+01 -0.20821234388E+01  0.96851151337E+01  0.00000000000E+00 0. -1.
</event>
<event>
 7    1  0.2838209E-011  0.5052884E+02  0.7816164E-02  0.1300439E+00
        -11   -1    0    0    0    0  0.00000000000E+00  0.00000000000E+00  0.45593999997E+02  0.45594000000E+02  0.51100000000E-03 0.  1.
         11   -1    0    0    0    0 -0.00000000000E+00 -0.00000000000E+00 -0.45593999997E+02  0.45594000000E+02  0.51100000000E-03 0. -1.
    9900012    2    1    2    0    0  0.17525816907E+02  0.26801548440E+02  0.25053742039E+02  0.50528840550E+02  0.29999941336E+02 0.  0.
         12    1    1    2    0    0 -0.17525816907E+02 -0.26801548440E+02 -0.25053742039E+02  0.40659159450E+02  0.00000000000E+00 0. -1.
         11    1    3    3    0    0 -0.55216105776E+01  0.81049338798E+01  0.61468372218E+01  0.11574184406E+02  0.51100000000E-03 0. -1.
        -11    1    3    3    0    0  0.13554823484E+01  0.29435509314E+01  0.10300875548E+02  0.10798604623E+02  0.51100000000E-03 0.  1.
        -12    1    3    3    0    0  0.21691945136E+02  0.15753063629E+02  0.86060292687E+01  0.28156051521E+02  0.00000000000E+00 0.  1.
</event>
<event>
 7    1  0.2838209E-011  0.5052887E+02  0.7816164E-02  0.1300439E+00
        -11   -1    0    0    0    0  0.00000000000E+00  0.00000000000E+00  0.45593999997E+02  0.45594000000E+02  0.51100000000E-03 0.  1.
         11   -1    0    0    0    0 -0.00000000000E+00 -0.00000000000E+00 -0.45593999997E+02  0.45594000000E+02  0.51100000000E-03 0. -1.
    9900012    2    1    2    0    0  0.34344562694E+02 -0.20266612631E+02 -0.79297028250E+01  0.50528871123E+02  0.30000034265E+02 0.  0.
         12    1    1    2    0    0 -0.34344562694E+02  0.20266612631E+02  0.79297028250E+01  0.40659128877E+02  0.00000000000E+00 0. -1.
         11    1    3    3    0    0  0.21832285701E+01  0.40209011245E+01 -0.17235248003E+01  0.48892403133E+01  0.51100000000E-03 0. -1.
        -11    1    3    3    0    0  0.92417031417E+01  0.26485556156E+01  0.56274594968E+00  0.96301924733E+01  0.51100000000E-03 0.  1.
         12    1    3    3    0    0  0.22919630982E+02 -0.26936069371E+02 -0.67689239743E+01  0.36009438336E+02  0.00000000000E+00 0. -1.
</event>
<event>
 7    1  0.2838209E-011  0.5052883E+02  0.7816164E-02  0.1300439E+00
        -11   -1    0    0    0    0  0.00000000000E+00  0.00000000000E+00  0.45593999997E+02  0.45594000000E+02  0.51100000000E-03 0.  1.
         11   -1    0    0    0    0 -0.00000000000E+00 -0.00000000000E+00 -0.45593999997E+02  0.45594000000E+02  0.51100000000E-03 0. -1.
    9900012    2    1    2    0    0  0.56915718816E+01 -0.26450826226E+02  0.30350093399E+02  0.50528826769E+02  0.29999899446E+02 0.  0.
         12    1    1    2    0    0 -0.56915718816E+01  0.26450826226E+02 -0.30350093399E+02  0.40659173231E+02  0.00000000000E+00 0. -1.
         11    1    3    3    0    0 -0.40606300368E+01 -0.10317720057E+02  0.46655973118E+01  0.12029624351E+02  0.51100000000E-03 0. -1.
        -11    1    3    3    0    0 -0.57442469725E+01 -0.67567849108E+00  0.16993961095E+01  0.60283382538E+01  0.51100000000E-03 0.  1.
        -12    1    3    3    0    0  0.15496448891E+02 -0.15457427678E+02  0.23985099978E+02  0.32470864164E+02  0.00000000000E+00 0.  1.
</event>
<event>
 7    1  0.2838209E-011  0.5052883E+02  0.7816164E-02  0.1300439E+00
        -11   -1    0    0    0    0  0.00000000000E+00  0.00000000000E+00  0.45593999997E+02  0.45594000000E+02  0.51100000000E-03 0.  1.
         11   -1    0    0    0    0 -0.00000000000E+00 -0.00000000000E+00 -0.45593999997E+02  0.45594000000E+02  0.51100000000E-03 0. -1.
    9900012    2    1    2    0    0 -0.86351003734E+01  0.28038826907E+02  0.28150082159E+02  0.50528832542E+02  0.29999916996E+02 0.  0.
         12    1    1    2    0    0  0.86351003734E+01 -0.28038826907E+02 -0.28150082159E+02  0.40659167458E+02  0.00000000000E+00 0. -1.
         11    1    3    3    0    0  0.31838103676E+00  0.10014326369E+02  0.10220954642E+02  0.14312791942E+02  0.51100000000E-03 0. -1.
        -11    1    3    3    0    0 -0.25472746785E+00  0.19518910174E+02  0.19102456036E+02  0.27312205465E+02  0.51100000000E-03 0.  1.
        -12    1    3    3    0    0 -0.86987539423E+01 -0.14944096364E+01 -0.11733285195E+01  0.89038351357E+01  0.00000000000E+00 0.  1.
</event>
<event>
 7    1  0.2838209E-011  0.5052883E+02  0.7816164E-02  0.1300439E+00
        -11   -1    0    0    0    0  0.00000000000E+00  0.00000000000E+00  0.45593999997E+02  0.45594000000E+02  0.51100000000E-03 0.  1.
         11   -1    0    0    0    0 -0.00000000000E+00 -0.00000000000E+00 -0.45593999997E+02  0.45594000000E+02  0.51100000000E-03 0. -1.
    9900012    2    1    2    0    0 -0.13908561211E+02 -0.33861147060E+02  0.17695848214E+02  0.50528826383E+02  0.29999898275E+02 0.  0.
         12    1    1    2    0    0  0.13908561211E+02  0.33861147060E+02 -0.17695848214E+02  0.40659173617E+02  0.00000000000E+00 0. -1.
         11    1    3    3    0    0 -0.10372293734E+02 -0.16070558835E+02 -0.13968829719E+01  0.19178076569E+02  0.51100000000E-03 0. -1.
        -11    1    3    3    0    0 -0.38923633843E+01 -0.25684993664E+01 -0.22142861629E+01  0.51624359737E+01  0.51100000000E-03 0.  1.
        -12    1    3    3    0    0  0.35609590773E+00 -0.15222088858E+02  0.21307017349E+02  0.26188313841E+02  0.00000000000E+00 0.  1.
</event>
<event>
 7    1  0.2838209E-011  0.5052888E+02  0.7816164E-02  0.1300439E+00
        -11   -1    0    0    0    0  0.00000000000E+00  0.00000000000E+00  0.45593999997E+02  0.45594000000E+02  0.51100000000E-03 0.  1.
         11   -1    0    0    0    0 -0.00000000000E+00 -0.00000000000E+00 -0.45593999997E+02  0.45594000000E+02  0.51100000000E-03 0. -1.
    9900012    2    1    2    0    0  0.15759250338E+02 -0.29321444609E+02  0.23346582637E+02  0.50528880408E+02  0.30000062488E+02 0.  0.
         12    1    1    2    0    0 -0.15759250338E+02  0.29321444609E+02 -0.23346582637E+02  0.40659119592E+02  0.00000000000E+00 0. -1.
         11    1    3    3    0    0  0.89060643626E+01 -0.63142533451E+01  0.39832903863E-01  0.10917388179E+02  0.51100000000E-03 0. -1.
        -11    1    3    3    0    0  0.13017225965E+02 -0.14313754176E+02  0.79456926460E+01  0.20915682211E+02  0.51100000000E-03 0.  1.
         12    1    3    3    0    0 -0.61640399900E+01 -0.86934370880E+01  0.15361057087E+02  0.18695810018E+02  0.00000000000E+00 0. -1.
</event>
<event>
 7    1  0.2838209E-011  0.5052885E+02  0.7816164E-02  0.1300439E+00
        -11   -1    0    0    0    0  0.00000000000E+00  0.00000000000E+00  0.45593999997E+02  0.45594000000E+02  0.51100000000E-03 0.  1.
         11   -1    0    0    0    0 -0.00000000000E+00 -0.00000000000E+00 -0.45593999997E+02  0.45594000000E+02  0.51100000000E-03 0. -1.
    9900012    2    1    2    0    0  0.34194045457E+02 -0.20070100378E+02  0.90069453893E+01  0.50528846798E+02  0.29999960327E+02 0.  0.
         12    1    1    2    0    0 -0.34194045457E+02  0.20070100378E+02 -0.90069453893E+01  0.40659153202E+02  0.00000000000E+00 0. -1.
         11    1    3    3    0    0 -0.14855205492E+01 -0.69434027520E+01 -0.16892455744E+00  0.71025452371E+01  0.51100000000E-03 0. -1.
        -11    1    3    3    0    0  0.16449921928E+02 -0.12362428337E+02 -0.27886071240E+01  0.20765497726E+02  0.51100000000E-03 0.  1.
        -12    1    3    3    0    0  0.19229644077E+02 -0.76426928861E+00  0.11964477071E+02  0.22660803835E+02  0.00000000000E+00 0.  1.
</event>
<event>
 7    1  0.2838209E-011  0.5052888E+02  0.7816164E-02  0.1300439E+00
        -11   -1    0    0    0    0  0.00000000000E+00  0.00000000000E+00  0.45593999997E+02  0.45594000000E+02  0.51100000000E-03 0.  1.
         11   -1    0    0    0    0 -0.00000000000E+00 -0.00000000000E+00 -0.45593999997E+02  0.45594000000E+02  0.51100000000E-03 0. -1.
    9900012    2    1    2    0    0  0.23326641924E+02 -0.22987518447E+02  0.24095763317E+02  0.50528880018E+02  0.30000061304E+02 0.  0.
         12    1    1    2    0    0 -0.23326641924E+02  0.22987518447E+02 -0.24095763317E+02  0.40659119982E+02  0.00000000000E+00 0. -1.
         11    1    3    3    0    0 -0.11561639839E+01  0.30963172254E+01 -0.76064975620E-01  0.33060069055E+01  0.51100000000E-03 0. -1.
        -11    1    3    3    0    0  0.33208133067E+01 -0.16792233880E+02  0.73063636020E+01  0.18611552032E+02  0.51100000000E-03 0.  1.
         12    1    3    3    0    0  0.21161992601E+02 -0.92916017925E+01  0.16865464691E+02  0.28611321081E+02  0.00000000000E+00 0. -1.
</event>
<event>
 7    1  0.2838209E-011  0.5052886E+02  0.7816164E-02  0.1300439E+00
        -11   -1    0    0    0    0  0.00000000000E+00  0.00000000000E+00  0.45593999997E+02  0.45594000000E+02  0.51100000000E-03 0.  1.
         11   -1    0    0    0    0 -0.00000000000E+00 -0.00000000000E+00 -0.45593999997E+02  0.45594000000E+02  0.51100000000E-03 0. -1.
    9900012    2    1    2    0    0 -0.14820005808E+02 -0.24945173676E+01  0.37779762892E+02  0.50528859906E+02  0.30000000169E+02 0.  0.
         12    1    1    2    0    0  0.14820005808E+02  0.24945173676E+01 -0.37779762892E+02  0.40659140094E+02  0.00000000000E+00 0. -1.
         11    1    3    3    0    0 -0.56522666773E+01 -0.45027505996E+01  0.53557766053E+01  0.89948443489E+01  0.51100000000E-03 0. -1.
        -11    1    3    3    0    0 -0.16886894348E+02  0.32195873966E+01  0.16657280531E+02  0.23937375351E+02  0.51100000000E-03 0.  1.
         12    1    3    3    0    0  0.77191552168E+01 -0.12113541646E+01  0.15766705755E+02  0.17596640206E+02  0.00000000000E+00 0. -1.
</event>
<event>
 7    1  0.4627743E-011  0.5052885E+02  0.7816164E-02  0.1300439E+00
        -11   -1    0    0    0    0  0.00000000000E+00  0.00000000000E+00  0.45593999997E+02  0.45594000000E+02  0.51100000000E-03 0. -1.
         11   -1    0    0    0    0 -0.00000000000E+00 -0.00000000000E+00 -0.45593999997E+02  0.45594000000E+02  0.51100000000E-03 0.  1.
    9900012    2    1    2    0    0 -0.18572646564E+02 -0.51418155405E+01 -0.35802027652E+02  0.50528847876E+02  0.29999963603E+02 0.  0.
         12    1    1    2    0    0  0.18572646564E+02  0.51418155405E+01  0.35802027652E+02  0.40659152124E+02  0.00000000000E+00 0. -1.
         11    1    3    3    0    0 -0.31644782958E+01 -0.39011764460E+01  0.12275762801E+01  0.51710776761E+01  0.51100000000E-03 0. -1.
        -11    1    3    3    0    0 -0.13299781432E+02 -0.83403207090E+01 -0.13549276235E+02  0.20737117022E+02  0.51100000000E-03 0.  1.
        -12    1    3    3    0    0 -0.21083868370E+01  0.70996816145E+01 -0.23480327698E+02  0.24620653177E+02  0.00000000000E+00 0.  1.
</event>
<event>
 7    1  0.2838209E-011  0.5052887E+02  0.7816164E-02  0.1300439E+00
        -11   -1    0    0    0    0  0.00000000000E+00  0.00000000000E+00  0.45593999997E+02  0.45594000000E+02  0.51100000000E-03 0.  1.
         11   -1    0    0    0    0 -0.00000000000E+00 -0.00000000000E+00 -0.45593999997E+02  0.45594000000E+02  0.51100000000E-03 0. -1.
    9900012    2    1    2    0    0  0.66713983535E+01  0.60630068304E+01  0.39647160180E+02  0.50528869191E+02  0.30000028394E+02 0.  0.
         12    1    1    2    0    0 -0.66713983535E+01 -0.60630068304E+01 -0.39647160180E+02  0.40659130809E+02  0.00000000000E+00 0. -1.
         11    1    3    3    0    0  0.59096721282E+01  0.13064446787E+02  0.19683090085E+02  0.24352166845E+02  0.51100000000E-03 0. -1.
        -11    1    3    3    0    0  0.71628368196E+01 -0.72550441674E+01  0.96677401985E+01  0.14050163628E+02  0.51100000000E-03 0.  1.
        -12    1    3    3    0    0 -0.64011105943E+01  0.25360421083E+00  0.10296329896E+02  0.12126538717E+02  0.00000000000E+00 0.  1.
</event>
<event>
 7    1  0.2838209E-011  0.5052886E+02  0.7816164E-02  0.1300439E+00
        -11   -1    0    0    0    0  0.00000000000E+00  0.00000000000E+00  0.45593999997E+02  0.45594000000E+02  0.51100000000E-03 0.  1.
         11   -1    0    0    0    0 -0.00000000000E+00 -0.00000000000E+00 -0.45593999997E+02  0.45594000000E+02  0.51100000000E-03 0. -1.
    9900012    2    1    2    0    0  0.33350886501E+02 -0.93282702360E+01  0.21304156786E+02  0.50528863851E+02  0.30000012163E+02 0.  0.
         12    1    1    2    0    0 -0.33350886501E+02  0.93282702360E+01 -0.21304156786E+02  0.40659136149E+02  0.00000000000E+00 0. -1.
         11    1    3    3    0    0  0.37741425502E+01  0.49915669801E+01 -0.36457049219E+01  0.72423102353E+01  0.51100000000E-03 0. -1.
        -11    1    3    3    0    0  0.92237042022E+01 -0.10842256580E+01  0.12720418230E+01  0.93739188789E+01  0.51100000000E-03 0.  1.
        -12    1    3    3    0    0  0.20353039748E+02 -0.13235611558E+02  0.23677819885E+02  0.33912634737E+02  0.00000000000E+00 0.  1.
</event>
<event>
 7    1  0.2838209E-011  0.5052885E+02  0.7816164E-02  0.1300439E+00
        -11   -1    0    0    0    0  0.00000000000E+00  0.00000000000E+00  0.45593999997E+02  0.45594000000E+02  0.51100000000E-03 0.  1.
         11   -1    0    0    0    0 -0.00000000000E+00 -0.00000000000E+00 -0.45593999997E+02  0.45594000000E+02  0.51100000000E-03 0. -1.
    9900012    2    1    2    0    0  0.24532190830E+02  0.11541638302E+02  0.30300643260E+02  0.50528846251E+02  0.29999958664E+02 0.  0.
         12    1    1    2    0    0 -0.24532190830E+02 -0.11541638302E+02 -0.30300643260E+02  0.40659153749E+02  0.00000000000E+00 0. -1.
         11    1    3    3    0    0  0.65142311926E+01 -0.17392931643E+01  0.51625831487E+01  0.84919146116E+01  0.51100000000E-03 0. -1.
        -11    1    3    3    0    0  0.34526563839E+01 -0.70999567073E+01  0.25229510161E+01  0.82882750583E+01  0.51100000000E-03 0.  1.
        -12    1    3    3    0    0  0.14565303254E+02  0.20380888174E+02  0.22615109095E+02  0.33748656581E+02  0.00000000000E+00 0.  1.
</event>
<event>
 7    1  0.2838209E-011  0.5052886E+02  0.7816164E-02  0.1300439E+00
        -11   -1    0    0    0    0  0.00000000000E+00  0.00000000000E+00  0.45593999997E+02  0.45594000000E+02  0.51100000000E-03 0.  1.
         11   -1    0    0    0    0 -0.00000000000E+00 -0.00000000000E+00 -0.45593999997E+02  0.45594000000E+02  0.51100000000E-03 0. -1.
    9900012    2    1    2    0    0  0.19736658079E+02 -0.16128425024E+02  0.31678129009E+02  0.50528860518E+02  0.30000002032E+02 0.  0.
         12    1    1    2    0    0 -0.19736658079E+02  0.16128425024E+02 -0.31678129009E+02  0.40659139482E+02  0.00000000000E+00 0. -1.
         11    1    3    3    0    0  0.79212990657E+01  0.83097519701E+00  0.24831602685E+02  0.26077691440E+02  0.51100000000E-03 0. -1.
        -11    1    3    3    0    0 -0.71423400602E+00 -0.34023098543E+01  0.47295693165E+01  0.58698099408E+01  0.51100000000E-03 0.  1.
        -12    1    3    3    0    0  0.12529593019E+02 -0.13557090367E+02  0.21169570076E+01  0.18581359138E+02  0.00000000000E+00 0.  1.
</event>
<event>
 7    1  0.2838209E-011  0.5052887E+02  0.7816164E-02  0.1300439E+00
        -11   -1    0    0    0    0  0.00000000000E+00  0.00000000000E+00  0.45593999997E+02  0.45594000000E+02  0.51100000000E-03 0.  1.
         11   -1    0    0    0    0 -0.00000000000E+00 -0.00000000000E+00 -0.45593999997E+02  0.45594000000E+02  0.51100000000E-03 0. -1.
    9900012    2    1    2    0    0  0.69919232029E+00 -0.65856086538E+00  0.40647787636E+02  0.50528865577E+02  0.30000017409E+02 0.  0.
         12    1    1    2    0    0 -0.69919232029E+00  0.65856086538E+00 -0.40647787636E+02  0.40659134423E+02  0.00000000000E+00 0. -1.
         11    1    3    3    0    0  0.37664930444E+01  0.45784618296E+01  0.11419243679E+01  0.60376132786E+01  0.51100000000E-03 0. -1.
        -11    1    3    3    0    0  0.80753644241E+01 -0.41741339239E+01  0.14812733207E+02  0.17379642399E+02  0.51100000000E-03 0.  1.
        -12    1    3    3    0    0 -0.11142665148E+02 -0.10628887711E+01  0.24693130061E+02  0.27111609900E+02  0.00000000000E+00 0.  1.
</event>
<event>
 7    1  0.2838209E-011  0.5052885E+02  0.7816164E-02  0.1300439E+00
        -11   -1    0    0    0    0  0.00000000000E+00  0.00000000000E+00  0.45593999997E+02  0.45594000000E+02  0.51100000000E-03 0. -1.
         11   -1    0    0    0    0 -0.00000000000E+00 -0.00000000000E+00 -0.45593999997E+02  0.45594000000E+02  0.51100000000E-03 0.  1.
    9900012    2    1    2    0    0  0.95414879210E+01  0.11778773910E+02 -0.37727797928E+02  0.50528852898E+02  0.29999978868E+02 0.  0.
         12    1    1    2    0    0 -0.95414879210E+01 -0.11778773910E+02  0.37727797928E+02  0.40659147102E+02  0.00000000000E+00 0. -1.
         11    1    3    3    0    0  0.54840738777E+01  0.23266977544E+01 -0.10355631919E+01  0.60465676315E+01  0.51100000000E-03 0. -1.
        -11    1    3    3    0    0  0.42947633008E+01  0.11024718417E+02 -0.51566247908E+01  0.12906594728E+02  0.51100000000E-03 0.  1.
        -12    1    3    3    0    0 -0.23734925752E+00 -0.15726422607E+01 -0.31535609945E+02  0.31575690538E+02  0.00000000000E+00 0.  1.
</event>
<event>
 7    1  0.2838209E-011  0.5052888E+02  0.7816164E-02  0.1300439E+00
        -11   -1    0    0    0    0  0.00000000000E+00  0.00000000000E+00  0.45593999997E+02  0.45594000000E+02  0.51100000000E-03 0.  1.
         11   -1    0    0    0    0 -0.00000000000E+00 -0.00000000000E+00 -0.45593999997E+02  0.45594000000E+02  0.51100000000E-03 0. -1.
    9900012    2    1    2    0    0 -0.39802784575E+01  0.39827959156E+02 -0.71453013130E+01  0.50528877064E+02  0.30000052323E+02 0.  0.
         12    1    1    2    0    0  0.39802784575E+01 -0.39827959156E+02  0.71453013130E+01  0.40659122936E+02  0.00000000000E+00 0. -1.
         11    1    3    3    0    0  0.50426746825E+01  0.62847354520E+01 -0.78450634892E+01  0.11245954342E+02  0.51100000000E-03 0. -1.
        -11    1    3    3    0    0 -0.80174799966E+01  0.35792598193E+01  0.28340838038E+01  0.92262190315E+01  0.51100000000E-03 0.  1.
         12    1    3    3    0    0 -0.10054731434E+01  0.29963963884E+02 -0.21343216276E+01  0.30056703690E+02  0.00000000000E+00 0. -1.
</event>
<event>
 7    1  0.2838209E-011  0.5052886E+02  0.7816164E-02  0.1300439E+00
        -11   -1    0    0    0    0  0.00000000000E+00  0.00000000000E+00  0.45593999997E+02  0.45594000000E+02  0.51100000000E-03 0.  1.
         11   -1    0    0    0    0 -0.00000000000E+00 -0.00000000000E+00 -0.45593999997E+02  0.45594000000E+02  0.51100000000E-03 0. -1.
    9900012    2    1    2    0    0  0.18044905574E+02 -0.15845105030E+01  0.36401053027E+02  0.50528856475E+02  0.29999989743E+02 0.  0.
         12    1    1    2    0    0 -0.18044905574E+02  0.15845105030E+01 -0.36401053027E+02  0.40659143525E+02  0.00000000000E+00 0. -1.
         11    1    3    3    0    0  0.17158282677E+01  0.28702799739E+01  0.51399769861E+01  0.61320418665E+01  0.51100000000E-03 0. -1.
        -11    1    3    3    0    0 -0.68765730462E+01  0.18597954811E+01  0.45418923478E+01  0.84483656674E+01  0.51100000000E-03 0.  1.
        -12    1    3    3    0    0  0.23205650352E+02 -0.63145859580E+01  0.26719183693E+02  0.35948448942E+02  0.00000000000E+00 0.  1.
</event>
<event>
 7    1  0.2838209E-011  0.5052886E+02  0.7816164E-02  0.1300439E+00
        -11   -1    0    0    0    0  0.00000000000E+00  0.00000000000E+00  0.45593999997E+02  0.45594000000E+02  0.51100000000E-03 0. -1.
         11   -1    0    0    0    0 -0.00000000000E+00 -0.00000000000E+00 -0.45593999997E+02  0.45594000000E+02  0.51100000000E-03 0.  1.
    9900012    2    1    2    0    0 -0.28085392011E+02  0.46422596788E+01 -0.29031461529E+02  0.50528861079E+02  0.30000003734E+02 0.  0.
         12    1    1    2    0    0  0.28085392011E+02 -0.46422596788E+01  0.29031461529E+02  0.40659138921E+02  0.00000000000E+00 0. -1.
         11    1    3    3    0    0 -0.14421991944E+02  0.29244085831E+01 -0.10546350437E+02  0.18104461467E+02  0.51100000000E-03 0. -1.
        -11    1    3    3    0    0 -0.18272742755E+02  0.69522722139E+01 -0.12267178125E+02  0.23080530240E+02  0.51100000000E-03 0.  1.
         12    1    3    3    0    0  0.46093426886E+01 -0.52344211181E+01 -0.62179329666E+01  0.93438693719E+01  0.00000000000E+00 0. -1.
</event>
<event>
 7    1  0.2838209E-011  0.5052886E+02  0.7816164E-02  0.1300439E+00
        -11   -1    0    0    0    0  0.00000000000E+00  0.00000000000E+00  0.45593999997E+02  0.45594000000E+02  0.51100000000E-03 0.  1.
         11   -1    0    0    0    0 -0.00000000000E+00 -0.00000000000E+00 -0.45593999997E+02  0.45594000000E+02  0.51100000000E-03 0. -1.
    9900012    2    1    2    0    0 -0.13553292877E+01  0.34986083544E+02  0.20671297810E+02  0.50528861883E+02  0.30000006179E+02 0.  0.
         12    1    1    2    0    0  0.13553292877E+01 -0.34986083544E+02 -0.20671297810E+02  0.40659138117E+02  0.00000000000E+00 0. -1.
         11    1    3    3    0    0  0.18050876958E+00 -0.10500429940E+01 -0.34253780006E+01  0.35872536031E+01  0.51100000000E-03 0. -1.
        -11    1    3    3    0    0  0.61502087424E+01  0.58789243328E+01  0.19054487319E+01  0.87188046208E+01  0.51100000000E-03 0.  1.
         12    1    3    3    0    0 -0.76860467996E+01  0.30157202206E+02  0.22191227079E+02  0.38222803659E+02  0.00000000000E+00 0. -1.
</event>
<event>
 7    1  0.2838209E-011  0.5052885E+02  0.7816164E-02  0.1300439E+00
        -11   -1    0    0    0    0  0.00000000000E+00  0.00000000000E+00  0.45593999997E+02  0.45594000000E+02  0.51100000000E-03 0. -1.
         11   -1    0    0    0    0 -0.00000000000E+00 -0.00000000000E+00 -0.45593999997E+02  0.45594000000E+02  0.51100000000E-03 0.  1.
    9900012    2    1    2    0    0  0.15909940014E+02 -0.27195421262E+01 -0.37318150204E+02  0.50528850534E+02  0.29999971683E+02 0.  0.
         12    1    1    2    0    0 -0.15909940014E+02  0.27195421262E+01  0.37318150204E+02  0.40659149466E+02  0.00000000000E+00 0. -1.
         11    1    3    3    0    0  0.44994065784E+01  0.81163391775E+00  0.91610872123E+00  0.46629030254E+01  0.51100000000E-03 0. -1.
        -11    1    3    3    0    0  0.17864834134E+01  0.40377821860E+01  0.11992910761E+01  0.45753149962E+01  0.51100000000E-03 0.  1.
         12    1    3    3    0    0  0.96240500221E+01 -0.75689582300E+01 -0.39433550002E+02  0.41290632512E+02  0.00000000000E+00 0. -1.
</event>
<event>
 7    1  0.2838209E-011  0.5052885E+02  0.7816164E-02  0.1300439E+00
        -11   -1    0    0    0    0  0.00000000000E+00  0.00000000000E+00  0.45593999997E+02  0.45594000000E+02  0.51100000000E-03 0. -1.
         11   -1    0    0    0    0 -0.00000000000E+00 -0.00000000000E+00 -0.45593999997E+02  0.45594000000E+02  0.51100000000E-03 0.  1.
    9900012    2    1    2    0    0 -0.33865044502E+02 -0.21935863489E+02 -0.50142619667E+01  0.50528853807E+02  0.29999981631E+02 0.  0.
         12    1    1    2    0    0  0.33865044502E+02  0.21935863489E+02  0.50142619667E+01  0.40659146193E+02  0.00000000000E+00 0. -1.
         11    1    3    3    0    0 -0.42849383183E+01 -0.15765641481E+02  0.35187627891E+01  0.16712206303E+02  0.51100000000E-03 0. -1.
        -11    1    3    3    0    0 -0.49417697975E+01 -0.61161313207E+01 -0.37779624738E+01  0.87235974104E+01  0.51100000000E-03 0.  1.
         12    1    3    3    0    0 -0.24638336386E+02 -0.54090687206E-01 -0.47550622820E+01  0.25093050093E+02  0.00000000000E+00 0. -1.
</event>
<event>
 7    1  0.2838209E-011  0.5052885E+02  0.7816164E-02  0.1300439E+00
        -11   -1    0    0    0    0  0.00000000000E+00  0.00000000000E+00  0.45593999997E+02  0.45594000000E+02  0.51100000000E-03 0.  1.
         11   -1    0    0    0    0 -0.00000000000E+00 -0.00000000000E+00 -0.45593999997E+02  0.45594000000E+02  0.51100000000E-03 0. -1.
    9900012    2    1    2    0    0 -0.37295917315E+02 -0.10120807409E+02 -0.12639243350E+02  0.50528847729E+02  0.29999963156E+02 0.  0.
         12    1    1    2    0    0  0.37295917315E+02  0.10120807409E+02  0.12639243350E+02  0.40659152271E+02  0.00000000000E+00 0. -1.
         11    1    3    3    0    0 -0.12778892520E+02 -0.11710903915E+02  0.36024672435E+01  0.17703760478E+02  0.51100000000E-03 0. -1.
        -11    1    3    3    0    0 -0.15586671550E+01 -0.27994582049E+01 -0.69846834415E+01  0.76845437457E+01  0.51100000000E-03 0.  1.
        -12    1    3    3    0    0 -0.22958357639E+02  0.43895547105E+01 -0.92570271523E+01  0.25140543505E+02  0.00000000000E+00 0.  1.
</event>
<event>
 7    1  0.2838209E-011  0.5052887E+02  0.7816164E-02  0.1300439E+00
        -11   -1    0    0    0    0  0.00000000000E+00  0.00000000000E+00  0.45593999997E+02  0.45594000000E+02  0.51100000000E-03 0. -1.
         11   -1    0    0    0    0 -0.00000000000E+00 -0.00000000000E+00 -0.45593999997E+02  0.45594000000E+02  0.51100000000E-03 0.  1.
    9900012    2    1    2    0    0  0.36617068550E+02 -0.91223868643E+01  0.15137289474E+02  0.50528865923E+02  0.30000018459E+02 0.  0.
         12    1    1    2    0    0 -0.36617068550E+02  0.91223868643E+01 -0.15137289474E+02  0.40659134077E+02  0.00000000000E+00 0. -1.
         11    1    3    3    0    0  0.56524072182E+01 -0.92922781131E+00  0.99912183791E+01  0.11516840567E+02  0.51100000000E-03 0. -1.
        -11    1    3    3    0    0  0.24069817212E+02 -0.15489874927E+02  0.34428604095E+01  0.28829596146E+02  0.51100000000E-03 0.  1.
         12    1    3    3    0    0  0.68948441196E+01  0.72967158739E+01  0.17032106850E+01  0.10182429210E+02  0.00000000000E+00 0. -1.
</event>
<event>
 7    1  0.2838209E-011  0.5052889E+02  0.7816164E-02  0.1300439E+00
        -11   -1    0    0    0    0  0.00000000000E+00  0.00000000000E+00  0.45593999997E+02  0.45594000000E+02  0.51100000000E-03 0. -1.
         11   -1    0    0    0    0 -0.00000000000E+00 -0.00000000000E+00 -0.45593999997E+02  0.45594000000E+02  0.51100000000E-03 0.  1.
    9900012    2    1    2    0    0 -0.17608537954E+02 -0.32379357423E+02 -0.17166246072E+02  0.50528887857E+02  0.30000085130E+02 0.  0.
         12    1    1    2    0    0  0.17608537954E+02  0.32379357423E+02  0.17166246072E+02  0.40659112143E+02  0.00000000000E+00 0. -1.
         11    1    3    3    0    0 -0.10510346252E+02 -0.34619456683E+02 -0.98636256923E+01  0.37500203618E+02  0.51100000000E-03 0. -1.
        -11    1    3    3    0    0 -0.40929115406E+01 -0.26335731031E+01 -0.21308706105E+01  0.53130256906E+01  0.51100000000E-03 0.  1.
         12    1    3    3    0    0 -0.30052801616E+01  0.48736723628E+01 -0.51717497697E+01  0.77156585481E+01  0.00000000000E+00 0. -1.
</event>
<event>
 7    1  0.2838209E-011  0.5052886E+02  0.7816164E-02  0.1300439E+00
        -11   -1    0    0    0    0  0.00000000000E+00  0.00000000000E+00  0.45593999997E+02  0.45594000000E+02  0.51100000000E-03 0. -1.
         11   -1    0    0    0    0 -0.00000000000E+00 -0.00000000000E+00 -0.45593999997E+02  0.45594000000E+02  0.51100000000E-03 0.  1.
    9900012    2    1    2    0    0 -0.37000923776E+02 -0.15535350261E+02 -0.65383941204E+01  0.50528855079E+02  0.29999985498E+02 0.  0.
         12    1    1    2    0    0  0.37000923776E+02  0.15535350261E+02  0.65383941204E+01  0.40659144921E+02  0.00000000000E+00 0. -1.
         11    1    3    3    0    0  0.80728114163E+00 -0.14265261842E+01  0.21381889975E+01  0.26941663360E+01  0.51100000000E-03 0. -1.
        -11    1    3    3    0    0 -0.17065375439E+02 -0.46202121947E+01  0.81717027327E+01  0.19476912625E+02  0.51100000000E-03 0.  1.
        -12    1    3    3    0    0 -0.20742829479E+02 -0.94886118824E+01 -0.16848285851E+02  0.28357776118E+02  0.00000000000E+00 0.  1.
</event>
<event>
 7    1  0.2838209E-011  0.5052885E+02  0.7816164E-02  0.1300439E+00
        -11   -1    0    0    0    0  0.00000000000E+00  0.00000000000E+00  0.45593999997E+02  0.45594000000E+02  0.51100000000E-03 0. -1.
         11   -1    0    0    0    0 -0.00000000000E+00 -0.00000000000E+00 -0.45593999997E+02  0.45594000000E+02  0.51100000000E-03 0.  1.
    9900012    2    1    2    0    0  0.38424654593E+02 -0.13244825876E+02 -0.11344776016E+01  0.50528849339E+02  0.29999968051E+02 0.  0.
         12    1    1    2    0    0 -0.38424654593E+02  0.13244825876E+02  0.11344776016E+01  0.40659150661E+02  0.00000000000E+00 0. -1.
         11    1    3    3    0    0  0.66140049602E+00 -0.53916462120E+01  0.10098442734E+01  0.55251321441E+01  0.51100000000E-03 0. -1.
        -11    1    3    3    0    0  0.26543149865E+02 -0.13360047222E+02  0.56858448629E+01  0.30254892143E+02  0.51100000000E-03 0.  1.
         12    1    3    3    0    0  0.11220104232E+02  0.55068675578E+01 -0.78301667380E+01  0.14748825052E+02  0.00000000000E+00 0. -1.
</event>
<event>
 7    1  0.2838209E-011  0.5052886E+02  0.7816164E-02  0.1300439E+00
        -11   -1    0    0    0    0  0.00000000000E+00  0.00000000000E+00  0.45593999997E+02  0.45594000000E+02  0.51100000000E-03 0. -1.
         11   -1    0    0    0    0 -0.00000000000E+00 -0.00000000000E+00 -0.45593999997E+02  0.45594000000E+02  0.51100000000E-03 0.  1.
    9900012    2    1    2    0    0  0.11324731352E+02 -0.37507294681E+02 -0.10868268538E+02  0.50528856434E+02  0.29999989618E+02 0.  0.
         12    1    1    2    0    0 -0.11324731352E+02  0.37507294681E+02  0.10868268538E+02  0.40659143566E+02  0.00000000000E+00 0. -1.
         11    1    3    3    0    0  0.93596301737E+01 -0.19965151576E+02  0.59439387161E+01  0.22837258202E+02  0.51100000000E-03 0. -1.
        -11    1    3    3    0    0 -0.27790452818E+01 -0.11601497232E+02 -0.36222481451E+01  0.12467498249E+02  0.51100000000E-03 0.  1.
        -12    1    3    3    0    0  0.47441464606E+01 -0.59406458730E+01 -0.13189959109E+02  0.15224099984E+02  0.00000000000E+00 0.  1.
</event>
<event>
 7    1  0.2838209E-011  0.5052888E+02  0.7816164E-02  0.1300439E+00
        -11   -1    0    0    0    0  0.00000000000E+00  0.00000000000E+00  0.45593999997E+02  0.45594000000E+02  0.51100000000E-03 0.  1.
         11   -1    0    0    0    0 -0.00000000000E+00 -0.00000000000E+00 -0.45593999997E+02  0.45594000000E+02  0.51100000000E-03 0. -1.
    9900012    2    1    2    0    0 -0.81805563002E+01 -0.32620972033E+02  0.22849825680E+02  0.50528882309E+02  0.30000068267E+02 0.  0.
         12    1    1    2    0    0  0.81805563002E+01  0.32620972033E+02 -0.22849825680E+02  0.40659117691E+02  0.00000000000E+00 0. -1.
         11    1    3    3    0    0 -0.57270949458E+01 -0.11944585949E+02  0.22219406378E+02  0.25868412593E+02  0.51100000000E-03 0. -1.
        -11    1    3    3    0    0  0.28689052206E+01 -0.11276766787E+02  0.54296395253E+01  0.12840446720E+02  0.51100000000E-03 0.  1.
         12    1    3    3    0    0 -0.53223665750E+01 -0.93996192968E+01 -0.47992202231E+01  0.11820022996E+02  0.00000000000E+00 0. -1.
</event>
<event>
 7    1  0.2838209E-011  0.5052886E+02  0.7816164E-02  0.1300439E+00
        -11   -1    0    0    0    0  0.00000000000E+00  0.00000000000E+00  0.45593999997E+02  0.45594000000E+02  0.51100000000E-03 0.  1.
         11   -1    0    0    0    0 -0.00000000000E+00 -0.00000000000E+00 -0.45593999997E+02  0.45594000000E+02  0.51100000000E-03 0. -1.
    9900012    2    1    2    0    0  0.19323917094E+02 -0.74385495341E+01  0.34991711110E+02  0.50528860346E+02  0.30000001507E+02 0.  0.
         12    1    1    2    0    0 -0.19323917094E+02  0.74385495341E+01 -0.34991711110E+02  0.40659139654E+02  0.00000000000E+00 0. -1.
         11    1    3    3    0    0  0.15250476568E+02 -0.10006251644E+01  0.12606856355E+02  0.19811893238E+02  0.51100000000E-03 0. -1.
        -11    1    3    3    0    0  0.10779114896E+02 -0.87994350967E+01  0.14353957101E+02  0.19991384662E+02  0.51100000000E-03 0.  1.
         12    1    3    3    0    0 -0.67056743702E+01  0.23615107270E+01  0.80308976537E+01  0.10725582446E+02  0.00000000000E+00 0. -1.
</event>
<event>
 7    1  0.2838209E-011  0.5052888E+02  0.7816164E-02  0.1300439E+00
        -11   -1    0    0    0    0  0.00000000000E+00  0.00000000000E+00  0.45593999997E+02  0.45594000000E+02  0.51100000000E-03 0.  1.
         11   -1    0    0    0    0 -0.00000000000E+00 -0.00000000000E+00 -0.45593999997E+02  0.45594000000E+02  0.51100000000E-03 0. -1.
    9900012    2    1    2    0    0  0.24195952353E+02 -0.56858186096E+01  0.32177504197E+02  0.50528875318E+02  0.30000047018E+02 0.  0.
         12    1    1    2    0    0 -0.24195952353E+02  0.56858186096E+01 -0.32177504197E+02  0.40659124682E+02  0.00000000000E+00 0. -1.
         11    1    3    3    0    0  0.11459940474E+01  0.22566696819E+01 -0.35272354487E+01  0.43413420254E+01  0.51100000000E-03 0. -1.
        -11    1    3    3    0    0  0.77839011996E+01  0.37180876279E+01  0.50055000909E+01  0.99733808167E+01  0.51100000000E-03 0.  1.
        -12    1    3    3    0    0  0.15266057106E+02 -0.11660575919E+02  0.30699239555E+02  0.36214152476E+02  0.00000000000E+00 0.  1.
</event>
<event>
 7    1  0.2838209E-011  0.5052886E+02  0.7816164E-02  0.1300439E+00
        -11   -1    0    0    0    0  0.00000000000E+00  0.00000000000E+00  0.45593999997E+02  0.45594000000E+02  0.51100000000E-03 0.  1.
         11   -1    0    0    0    0 -0.00000000000E+00 -0.00000000000E+00 -0.45593999997E+02  0.45594000000E+02  0.51100000000E-03 0. -1.
    9900012    2    1    2    0    0  0.26600299951E+02 -0.86170817062E+01 -0.29518400505E+02  0.50528855604E+02  0.29999987095E+02 0.  0.
         12    1    1    2    0    0 -0.26600299951E+02  0.86170817062E+01  0.29518400505E+02  0.40659144396E+02  0.00000000000E+00 0. -1.
         11    1    3    3    0    0  0.19342144436E+02 -0.39408917909E+01 -0.28849534207E+02  0.34956327091E+02  0.51100000000E-03 0. -1.
        -11    1    3    3    0    0  0.82786807884E+01  0.36557849691E+00 -0.42418990189E+01  0.93093453466E+01  0.51100000000E-03 0.  1.
         12    1    3    3    0    0 -0.10205252732E+01 -0.50417684122E+01  0.35730327209E+01  0.62631831668E+01  0.00000000000E+00 0. -1.
</event>
<event>
 7    1  0.2838209E-011  0.5052885E+02  0.7816164E-02  0.1300439E+00
        -11   -1    0    0    0    0  0.00000000000E+00  0.00000000000E+00  0.45593999997E+02  0.45594000000E+02  0.51100000000E-03 0.  1.
         11   -1    0    0    0    0 -0.00000000000E+00 -0.00000000000E+00 -0.45593999997E+02  0.45594000000E+02  0.51100000000E-03 0. -1.
    9900012    2    1    2    0    0 -0.34171806345E+02  0.11664151798E+02  0.18692279312E+02  0.50528854757E+02  0.29999984518E+02 0.  0.
         12    1    1    2    0    0  0.34171806345E+02 -0.11664151798E+02 -0.18692279312E+02  0.40659145243E+02  0.00000000000E+00 0. -1.
         11    1    3    3    0    0 -0.84382116351E+01  0.10761474111E+02  0.49321447656E+01  0.14537496101E+02  0.51100000000E-03 0. -1.
        -11    1    3    3    0    0 -0.17398711302E+02  0.77011129220E+01  0.16168856968E+02  0.24969065484E+02  0.51100000000E-03 0.  1.
        -12    1    3    3    0    0 -0.83348834077E+01 -0.67984352349E+01 -0.24087224216E+01  0.11022293172E+02  0.00000000000E+00 0.  1.
</event>
<event>
 7    1  0.2838209E-011  0.5052883E+02  0.7816164E-02  0.1300439E+00
        -11   -1    0    0    0    0  0.00000000000E+00  0.00000000000E+00  0.45593999997E+02  0.45594000000E+02  0.51100000000E-03 0. -1.
         11   -1    0    0    0    0 -0.00000000000E+00 -0.00000000000E+00 -0.45593999997E+02  0.45594000000E+02  0.51100000000E-03 0.  1.
    9900012    2    1    2    0    0 -0.49594911913E+00  0.25952716084E+02 -0.31295026895E+02  0.50528829496E+02  0.29999907737E+02 0.  0.
         12    1    1    2    0    0  0.49594911913E+00 -0.25952716084E+02  0.31295026895E+02  0.40659170504E+02  0.00000000000E+00 0. -1.
         11    1    3    3    0    0  0.12842667767E+02  0.12316877975E+02 -0.13777695672E+02  0.22504766089E+02  0.51100000000E-03 0. -1.
        -11    1    3    3    0    0 -0.21581705390E+01  0.54674074762E+00  0.12535575882E+01  0.25550014498E+01  0.51100000000E-03 0.  1.
        -12    1    3    3    0    0 -0.11180446347E+02  0.13089097362E+02 -0.18770888811E+02  0.25469061958E+02  0.00000000000E+00 0.  1.
</event>
<event>
 7    1  0.2838209E-011  0.5052886E+02  0.7816164E-02  0.1300439E+00
        -11   -1    0    0    0    0  0.00000000000E+00  0.00000000000E+00  0.45593999997E+02  0.45594000000E+02  0.51100000000E-03 0.  1.
         11   -1    0    0    0    0 -0.00000000000E+00 -0.00000000000E+00 -0.45593999997E+02  0.45594000000E+02  0.51100000000E-03 0. -1.
    9900012    2    1    2    0    0  0.32266383886E+01  0.36463852729E+02  0.17695812545E+02  0.50528861633E+02  0.30000005418E+02 0.  0.
         12    1    1    2    0    0 -0.32266383886E+01 -0.36463852729E+02 -0.17695812545E+02  0.40659138367E+02  0.00000000000E+00 0. -1.
         11    1    3    3    0    0  0.10696115723E+00 -0.15083674330E+01  0.23607834028E+01  0.28035533771E+01  0.51100000000E-03 0. -1.
        -11    1    3    3    0    0  0.16530980165E+01  0.30446305327E+01 -0.58861341007E+01  0.68300134001E+01  0.51100000000E-03 0.  1.
        -12    1    3    3    0    0  0.14665792149E+01  0.34927589629E+02  0.21221163243E+02  0.40895294855E+02  0.00000000000E+00 0.  1.
</event>
<event>
 7    1  0.2838209E-011  0.5052887E+02  0.7816164E-02  0.1300439E+00
        -11   -1    0    0    0    0  0.00000000000E+00  0.00000000000E+00  0.45593999997E+02  0.45594000000E+02  0.51100000000E-03 0.  1.
         11   -1    0    0    0    0 -0.00000000000E+00 -0.00000000000E+00 -0.45593999997E+02  0.45594000000E+02  0.51100000000E-03 0. -1.
    9900012    2    1    2    0    0 -0.22408149457E+02 -0.45490307094E+01  0.33620622138E+02  0.50528867257E+02  0.30000022515E+02 0.  0.
         12    1    1    2    0    0  0.22408149457E+02  0.45490307094E+01 -0.33620622138E+02  0.40659132743E+02  0.00000000000E+00 0. -1.
         11    1    3    3    0    0 -0.54576799035E+01  0.51976152462E+01  0.71805530138E+01  0.10409698171E+02  0.51100000000E-03 0. -1.
        -11    1    3    3    0    0  0.38887411699E+01  0.34412590893E+01  0.70055231123E+01  0.87202021963E+01  0.51100000000E-03 0.  1.
        -12    1    3    3    0    0 -0.20839210723E+02 -0.13187905045E+02  0.19434546012E+02  0.31398966889E+02  0.00000000000E+00 0.  1.
</event>
<event>
 7    1  0.2838209E-011  0.5052890E+02  0.7816164E-02  0.1300439E+00
        -11   -1    0    0    0    0  0.00000000000E+00  0.00000000000E+00  0.45593999997E+02  0.45594000000E+02  0.51100000000E-03 0. -1.
         11   -1    0    0    0    0 -0.00000000000E+00 -0.00000000000E+00 -0.45593999997E+02  0.45594000000E+02  0.51100000000E-03 0.  1.
    9900012    2    1    2    0    0  0.17146521506E+02 -0.64345330880E+01 -0.36300911722E+02  0.50528897604E+02  0.30000114758E+02 0.  0.
         12    1    1    2    0    0 -0.17146521506E+02  0.64345330880E+01  0.36300911722E+02  0.40659102396E+02  0.00000000000E+00 0. -1.
         11    1    3    3    0    0  0.28854670938E+00  0.38779545940E+01 -0.23669516582E+02  0.23986825687E+02  0.51100000000E-03 0.  1.
        -11    1    3    3    0    0  0.10733234967E+02 -0.57392116305E+01 -0.14237981253E+02  0.18731283817E+02  0.51100000000E-03 0. -1.
         12    1    3    3    0    0  0.61247398292E+01 -0.45732760515E+01  0.16065861132E+01  0.78107881010E+01  0.00000000000E+00 0. -1.
</event>
<event>
 7    1  0.2838209E-011  0.5052887E+02  0.7816164E-02  0.1300439E+00
        -11   -1    0    0    0    0  0.00000000000E+00  0.00000000000E+00  0.45593999997E+02  0.45594000000E+02  0.51100000000E-03 0.  1.
         11   -1    0    0    0    0 -0.00000000000E+00 -0.00000000000E+00 -0.45593999997E+02  0.45594000000E+02  0.51100000000E-03 0. -1.
    9900012    2    1    2    0    0 -0.33808991733E+02 -0.22347295956E+02 -0.32734502954E+01  0.50528867750E+02  0.30000024012E+02 0.  0.
         12    1    1    2    0    0  0.33808991733E+02  0.22347295956E+02  0.32734502954E+01  0.40659132250E+02  0.00000000000E+00 0. -1.
         11    1    3    3    0    0  0.29313635689E+01 -0.10542733831E+01 -0.33869432365E+01  0.46017137555E+01  0.51100000000E-03 0. -1.
        -11    1    3    3    0    0  0.71442850791E+00 -0.26843958785E+01 -0.28750288408E+01  0.39977719322E+01  0.51100000000E-03 0.  1.
        -12    1    3    3    0    0 -0.37454783810E+02 -0.18608626694E+02  0.29885217819E+01  0.41929382062E+02  0.00000000000E+00 0.  1.
</event>
<event>
 7    1  0.2838209E-011  0.5052887E+02  0.7816164E-02  0.1300439E+00
        -11   -1    0    0    0    0  0.00000000000E+00  0.00000000000E+00  0.45593999997E+02  0.45594000000E+02  0.51100000000E-03 0.  1.
         11   -1    0    0    0    0 -0.00000000000E+00 -0.00000000000E+00 -0.45593999997E+02  0.45594000000E+02  0.51100000000E-03 0. -1.
    9900012    2    1    2    0    0 -0.41847577538E+01  0.27494761136E+02  0.29659581210E+02  0.50528870091E+02  0.30000031129E+02 0.  0.
         12    1    1    2    0    0  0.41847577538E+01 -0.27494761136E+02 -0.29659581210E+02  0.40659129909E+02  0.00000000000E+00 0. -1.
         11    1    3    3    0    0 -0.66461733587E+00  0.95014290465E+01  0.25117569549E+02  0.26862821341E+02  0.51100000000E-03 0. -1.
        -11    1    3    3    0    0 -0.13781180380E+01  0.39961734026E+01  0.80371261015E+01  0.90809695200E+01  0.51100000000E-03 0.  1.
         12    1    3    3    0    0 -0.21420223799E+01  0.13997158687E+02 -0.34951144403E+01  0.14585079230E+02  0.00000000000E+00 0. -1.
</event>
<event>
 7    1  0.2838209E-011  0.5052886E+02  0.7816164E-02  0.1300439E+00
        -11   -1    0    0    0    0  0.00000000000E+00  0.00000000000E+00  0.45593999997E+02  0.45594000000E+02  0.51100000000E-03 0.  1.
         11   -1    0    0    0    0 -0.00000000000E+00 -0.00000000000E+00 -0.45593999997E+02  0.45594000000E+02  0.51100000000E-03 0. -1.
    9900012    2    1    2    0    0 -0.89834002903E+00  0.26004148456E+02  0.31243288630E+02  0.50528857902E+02  0.29999994079E+02 0.  0.
         12    1    1    2    0    0  0.89834002903E+00 -0.26004148456E+02 -0.31243288630E+02  0.40659142098E+02  0.00000000000E+00 0. -1.
         11    1    3    3    0    0 -0.12056147560E+01  0.42136467930E+01  0.31485410461E+01  0.53964467213E+01  0.51100000000E-03 0. -1.
        -11    1    3    3    0    0  0.64583819263E+01  0.24653595169E+02  0.28625828529E+02  0.38326864092E+02  0.51100000000E-03 0.  1.
         12    1    3    3    0    0 -0.61511071993E+01 -0.28630935066E+01 -0.53108094487E+00  0.68055470886E+01  0.00000000000E+00 0. -1.
</event>
<event>
 7    1  0.2838209E-011  0.5052897E+02  0.7816164E-02  0.1300438E+00
        -11   -1    0    0    0    0  0.00000000000E+00  0.00000000000E+00  0.45593999997E+02  0.45594000000E+02  0.51100000000E-03 0.  1.
         11   -1    0    0    0    0 -0.00000000000E+00 -0.00000000000E+00 -0.45593999997E+02  0.45594000000E+02  0.51100000000E-03 0. -1.
    9900012    2    1    2    0    0  0.11000405679E+00 -0.39856182372E+02  0.80392129659E+01  0.50528974935E+02  0.30000349809E+02 0.  0.
         12    1    1    2    0    0 -0.11000405679E+00  0.39856182372E+02 -0.80392129659E+01  0.40659025065E+02  0.00000000000E+00 0. -1.
         11    1    3    3    0    0 -0.38164877691E+01 -0.47136681533E+01  0.73773424367E+00  0.61097052651E+01  0.51100000000E-03 0. -1.
        -11    1    3    3    0    0  0.12002729367E+02 -0.17014736023E+02 -0.45372635059E+01  0.21310877846E+02  0.51100000000E-03 0.  1.
         12    1    3    3    0    0 -0.80762375408E+01 -0.18127778196E+02  0.11838742228E+02  0.23108391824E+02  0.00000000000E+00 0. -1.
</event>
<event>
 7    1  0.2838209E-011  0.5052887E+02  0.7816164E-02  0.1300439E+00
        -11   -1    0    0    0    0  0.00000000000E+00  0.00000000000E+00  0.45593999997E+02  0.45594000000E+02  0.51100000000E-03 0.  1.
         11   -1    0    0    0    0 -0.00000000000E+00 -0.00000000000E+00 -0.45593999997E+02  0.45594000000E+02  0.51100000000E-03 0. -1.
    9900012    2    1    2    0    0 -0.12015262695E+02  0.33967458070E+02  0.18841721895E+02  0.50528865364E+02  0.30000016760E+02 0.  0.
         12    1    1    2    0    0  0.12015262695E+02 -0.33967458070E+02 -0.18841721895E+02  0.40659134636E+02  0.00000000000E+00 0. -1.
         11    1    3    3    0    0 -0.24710262466E+01 -0.37844901032E+01  0.30460076343E+01  0.54503668521E+01  0.51100000000E-03 0. -1.
        -11    1    3    3    0    0 -0.93669221438E+00 -0.85763180740E+00 -0.14479953397E+01  0.19260361851E+01  0.51100000000E-03 0.  1.
        -12    1    3    3    0    0 -0.86075442344E+01  0.38609579981E+02  0.17243709601E+02  0.43152462327E+02  0.00000000000E+00 0.  1.
</event>
<event>
 7    1  0.2838209E-011  0.5052882E+02  0.7816164E-02  0.1300439E+00
        -11   -1    0    0    0    0  0.00000000000E+00  0.00000000000E+00  0.45593999997E+02  0.45594000000E+02  0.51100000000E-03 0.  1.
         11   -1    0    0    0    0 -0.00000000000E+00 -0.00000000000E+00 -0.45593999997E+02  0.45594000000E+02  0.51100000000E-03 0. -1.
    9900012    2    1    2    0    0  0.20938029321E+02  0.18466151633E+02  0.29559579845E+02  0.50528824055E+02  0.29999891196E+02 0.  0.
         12    1    1    2    0    0 -0.20938029321E+02 -0.18466151633E+02 -0.29559579845E+02  0.40659175945E+02  0.00000000000E+00 0. -1.
         11    1    3    3    0    0  0.18294010295E+02  0.25740502238E+02  0.19688949606E+02  0.37214231216E+02  0.51100000000E-03 0. -1.
        -11    1    3    3    0    0  0.41805957655E+00 -0.56656687802E+00  0.41855053612E+01  0.42443170506E+01  0.51100000000E-03 0.  1.
         12    1    3    3    0    0  0.22259594487E+01 -0.67077837271E+01  0.56851248779E+01  0.90702757882E+01  0.00000000000E+00 0. -1.
</event>
<event>
 7    1  0.2838209E-011  0.5052886E+02  0.7816164E-02  0.1300439E+00
        -11   -1    0    0    0    0  0.00000000000E+00  0.00000000000E+00  0.45593999997E+02  0.45594000000E+02  0.51100000000E-03 0.  1.
         11   -1    0    0    0    0 -0.00000000000E+00 -0.00000000000E+00 -0.45593999997E+02  0.45594000000E+02  0.51100000000E-03 0. -1.
    9900012    2    1    2    0    0  0.30408618800E+02  0.17909103011E+02  0.20192712843E+02  0.50528859331E+02  0.29999998423E+02 0.  0.
         12    1    1    2    0    0 -0.30408618800E+02 -0.17909103011E+02 -0.20192712843E+02  0.40659140669E+02  0.00000000000E+00 0. -1.
         11    1    3    3    0    0  0.13702901342E+02  0.12040200297E+02 -0.32205137753E+01  0.18523164892E+02  0.51100000000E-03 0. -1.
        -11    1    3    3    0    0  0.25060884176E+01  0.52269450893E+01  0.16768636429E+01  0.60343438799E+01  0.51100000000E-03 0.  1.
        -12    1    3    3    0    0  0.14199629040E+02  0.64195762482E+00  0.21736362976E+02  0.25971350559E+02  0.00000000000E+00 0.  1.
</event>
<event>
 7    1  0.2838209E-011  0.5052881E+02  0.7816164E-02  0.1300439E+00
        -11   -1    0    0    0    0  0.00000000000E+00  0.00000000000E+00  0.45593999997E+02  0.45594000000E+02  0.51100000000E-03 0.  1.
         11   -1    0    0    0    0 -0.00000000000E+00 -0.00000000000E+00 -0.45593999997E+02  0.45594000000E+02  0.51100000000E-03 0. -1.
    9900012    2    1    2    0    0 -0.21420640960E+02 -0.33027666150E+02 -0.10173434211E+02  0.50528814640E+02  0.29999862581E+02 0.  0.
         12    1    1    2    0    0  0.21420640960E+02  0.33027666150E+02  0.10173434211E+02  0.40659185360E+02  0.00000000000E+00 0. -1.
         11    1    3    3    0    0 -0.98547568806E+01 -0.13038055984E+02  0.59187166692E+00  0.16354126370E+02  0.51100000000E-03 0.  1.
        -11    1    3    3    0    0  0.45261191678E+01  0.19755408210E+01 -0.12362407343E+00  0.49400201851E+01  0.51100000000E-03 0. -1.
         12    1    3    3    0    0 -0.16092003247E+02 -0.21965150988E+02 -0.10641681804E+02  0.29234668085E+02  0.00000000000E+00 0. -1.
</event>
<event>
 7    1  0.2838209E-011  0.5052886E+02  0.7816164E-02  0.1300439E+00
        -11   -1    0    0    0    0  0.00000000000E+00  0.00000000000E+00  0.45593999997E+02  0.45594000000E+02  0.51100000000E-03 0.  1.
         11   -1    0    0    0    0 -0.00000000000E+00 -0.00000000000E+00 -0.45593999997E+02  0.45594000000E+02  0.51100000000E-03 0. -1.
    9900012    2    1    2    0    0 -0.11139939773E+02  0.39010024867E+02 -0.26991499652E+01  0.50528859468E+02  0.29999998839E+02 0.  0.
         12    1    1    2    0    0  0.11139939773E+02 -0.39010024867E+02  0.26991499652E+01  0.40659140532E+02  0.00000000000E+00 0. -1.
         11    1    3    3    0    0 -0.38021293902E+00 -0.23027701068E+01 -0.28557310325E+01  0.36881583528E+01  0.51100000000E-03 0. -1.
        -11    1    3    3    0    0 -0.53648636566E+01  0.11997535938E+01 -0.29655723190E+01  0.62462620967E+01  0.51100000000E-03 0.  1.
        -12    1    3    3    0    0 -0.53948631772E+01  0.40113041380E+02  0.31221533863E+01  0.40594439019E+02  0.00000000000E+00 0.  1.
</event>
<event>
 7    1  0.2838209E-011  0.5052885E+02  0.7816164E-02  0.1300439E+00
        -11   -1    0    0    0    0  0.00000000000E+00  0.00000000000E+00  0.45593999997E+02  0.45594000000E+02  0.51100000000E-03 0. -1.
         11   -1    0    0    0    0 -0.00000000000E+00 -0.00000000000E+00 -0.45593999997E+02  0.45594000000E+02  0.51100000000E-03 0.  1.
    9900012    2    1    2    0    0 -0.15930853261E+02  0.12692795187E+02 -0.35189026466E+02  0.50528847046E+02  0.29999961081E+02 0.  0.
         12    1    1    2    0    0  0.15930853261E+02 -0.12692795187E+02  0.35189026466E+02  0.40659152954E+02  0.00000000000E+00 0. -1.
         11    1    3    3    0    0 -0.29623610128E+01 -0.51888547380E+01 -0.18642886735E+02  0.19576951303E+02  0.51100000000E-03 0. -1.
        -11    1    3    3    0    0 -0.98427937715E+01  0.23213057822E+01 -0.47252218189E+01  0.11162292384E+02  0.51100000000E-03 0.  1.
        -12    1    3    3    0    0 -0.31256984771E+01  0.15560344143E+02 -0.11820917912E+02  0.19789603359E+02  0.00000000000E+00 0.  1.
</event>
<event>
 7    1  0.2838209E-011  0.5052884E+02  0.7816164E-02  0.1300439E+00
        -11   -1    0    0    0    0  0.00000000000E+00  0.00000000000E+00  0.45593999997E+02  0.45594000000E+02  0.51100000000E-03 0.  1.
         11   -1    0    0    0    0 -0.00000000000E+00 -0.00000000000E+00 -0.45593999997E+02  0.45594000000E+02  0.51100000000E-03 0. -1.
    9900012    2    1    2    0    0 -0.31486294421E+02  0.13022639335E+02  0.22185386615E+02  0.50528840504E+02  0.29999941197E+02 0.  0.
         12    1    1    2    0    0  0.31486294421E+02 -0.13022639335E+02 -0.22185386615E+02  0.40659159496E+02  0.00000000000E+00 0. -1.
         11    1    3    3    0    0 -0.18572550602E+02 -0.80403646413E-01  0.80718702975E+01  0.20250955310E+02  0.51100000000E-03 0. -1.
        -11    1    3    3    0    0 -0.14629101842E+02  0.12013095077E+01  0.89473663891E+01  0.17190379019E+02  0.51100000000E-03 0.  1.
        -12    1    3    3    0    0  0.17153580227E+01  0.11901733473E+02  0.51661499283E+01  0.13087506176E+02  0.00000000000E+00 0.  1.
</event>
<event>
 7    1  0.2838209E-011  0.5052886E+02  0.7816164E-02  0.1300439E+00
        -11   -1    0    0    0    0  0.00000000000E+00  0.00000000000E+00  0.45593999997E+02  0.45594000000E+02  0.51100000000E-03 0. -1.
         11   -1    0    0    0    0 -0.00000000000E+00 -0.00000000000E+00 -0.45593999997E+02  0.45594000000E+02  0.51100000000E-03 0.  1.
    9900012    2    1    2    0    0  0.23108878617E+02 -0.13564115451E+02 -0.30580382371E+02  0.50528864681E+02  0.30000014685E+02 0.  0.
         12    1    1    2    0    0 -0.23108878617E+02  0.13564115451E+02  0.30580382371E+02  0.40659135319E+02  0.00000000000E+00 0. -1.
         11    1    3    3    0    0  0.25846800070E+01 -0.95408936984E+01 -0.21985478037E+02  0.24105403296E+02  0.51100000000E-03 0. -1.
        -11    1    3    3    0    0  0.39159458017E+01 -0.66890485153E+01 -0.49969631557E+01  0.92221278782E+01  0.51100000000E-03 0.  1.
        -12    1    3    3    0    0  0.16608252809E+02  0.26658267626E+01 -0.35979411780E+01  0.17201333507E+02  0.00000000000E+00 0.  1.
</event>
<event>
 7    1  0.2838209E-011  0.5052889E+02  0.7816164E-02  0.1300439E+00
        -11   -1    0    0    0    0  0.00000000000E+00  0.00000000000E+00  0.45593999997E+02  0.45594000000E+02  0.51100000000E-03 0.  1.
         11   -1    0    0    0    0 -0.00000000000E+00 -0.00000000000E+00 -0.45593999997E+02  0.45594000000E+02  0.51100000000E-03 0. -1.
    9900012    2    1    2    0    0  0.15364624588E+02  0.13420431496E+02  0.35170782487E+02  0.50528885265E+02  0.30000077251E+02 0.  0.
         12    1    1    2    0    0 -0.15364624588E+02 -0.13420431496E+02 -0.35170782487E+02  0.40659114735E+02  0.00000000000E+00 0. -1.
         11    1    3    3    0    0 -0.97556996149E+00  0.21735843157E+01 -0.44609416429E+01  0.50572923714E+01  0.51100000000E-03 0. -1.
        -11    1    3    3    0    0 -0.83317141554E+00 -0.53923078180E+00  0.43323931914E+00  0.10828855029E+01  0.51100000000E-03 0.  1.
        -12    1    3    3    0    0  0.17173365965E+02  0.11786077963E+02  0.39198484811E+02  0.44388707390E+02  0.00000000000E+00 0.  1.
</event>
<event>
 7    1  0.2838209E-011  0.5052886E+02  0.7816164E-02  0.1300439E+00
        -11   -1    0    0    0    0  0.00000000000E+00  0.00000000000E+00  0.45593999997E+02  0.45594000000E+02  0.51100000000E-03 0.  1.
         11   -1    0    0    0    0 -0.00000000000E+00 -0.00000000000E+00 -0.45593999997E+02  0.45594000000E+02  0.51100000000E-03 0. -1.
    9900012    2    1    2    0    0  0.16753557687E+02 -0.27039334360E+02  0.25325056668E+02  0.50528858432E+02  0.29999995690E+02 0.  0.
         12    1    1    2    0    0 -0.16753557687E+02  0.27039334360E+02 -0.25325056668E+02  0.40659141568E+02  0.00000000000E+00 0. -1.
         11    1    3    3    0    0  0.64075585182E+01 -0.31415959287E+01  0.18177919312E+02  0.19528522267E+02  0.51100000000E-03 0. -1.
        -11    1    3    3    0    0 -0.94313689245E+00 -0.90898648837E+01  0.82987405588E+01  0.12344401400E+02  0.51100000000E-03 0.  1.
        -12    1    3    3    0    0  0.11289136061E+02 -0.14807873548E+02 -0.11516032030E+01  0.18655934765E+02  0.00000000000E+00 0.  1.
</event>
<event>
 7    1  0.2838209E-011  0.5052886E+02  0.7816164E-02  0.1300439E+00
        -11   -1    0    0    0    0  0.00000000000E+00  0.00000000000E+00  0.45593999997E+02  0.45594000000E+02  0.51100000000E-03 0.  1.
         11   -1    0    0    0    0 -0.00000000000E+00 -0.00000000000E+00 -0.45593999997E+02  0.45594000000E+02  0.51100000000E-03 0. -1.
    9900012    2    1    2    0    0 -0.75846538138E+00 -0.28028481490E+02  0.29444776368E+02  0.50528857120E+02  0.29999991703E+02 0.  0.
         12    1    1    2    0    0  0.75846538138E+00  0.28028481490E+02 -0.29444776368E+02  0.40659142880E+02  0.00000000000E+00 0. -1.
         11    1    3    3    0    0 -0.18170492143E+01 -0.45992228830E+01  0.20070920254E+02  0.20671147986E+02  0.51100000000E-03 0. -1.
        -11    1    3    3    0    0  0.25340201197E+01 -0.85087006635E+01  0.11697855416E+02  0.14685335084E+02  0.51100000000E-03 0.  1.
        -12    1    3    3    0    0 -0.14754362868E+01 -0.14920557943E+02 -0.23239993013E+01  0.15172374050E+02  0.00000000000E+00 0.  1.
</event>
<event>
 7    1  0.2838209E-011  0.5052889E+02  0.7816164E-02  0.1300439E+00
        -11   -1    0    0    0    0  0.00000000000E+00  0.00000000000E+00  0.45593999997E+02  0.45594000000E+02  0.51100000000E-03 0.  1.
         11   -1    0    0    0    0 -0.00000000000E+00 -0.00000000000E+00 -0.45593999997E+02  0.45594000000E+02  0.51100000000E-03 0. -1.
    9900012    2    1    2    0    0  0.23044994138E+01  0.18824035688E+02  0.35965376192E+02  0.50528888822E+02  0.30000088065E+02 0.  0.
         12    1    1    2    0    0 -0.23044994138E+01 -0.18824035688E+02 -0.35965376192E+02  0.40659111178E+02  0.00000000000E+00 0. -1.
         11    1    3    3    0    0  0.63704167781E+01 -0.27016902049E+01  0.17482806987E+02  0.18802390282E+02  0.51100000000E-03 0. -1.
        -11    1    3    3    0    0 -0.31678554141E+01 -0.20535064662E+00 -0.15216985414E-01  0.31745406960E+01  0.51100000000E-03 0.  1.
        -12    1    3    3    0    0 -0.89806195015E+00  0.21731076540E+02  0.18497786190E+02  0.28551957845E+02  0.00000000000E+00 0.  1.
</event>
<event>
 7    1  0.2838209E-011  0.5052886E+02  0.7816164E-02  0.1300439E+00
        -11   -1    0    0    0    0  0.00000000000E+00  0.00000000000E+00  0.45593999997E+02  0.45594000000E+02  0.51100000000E-03 0. -1.
         11   -1    0    0    0    0 -0.00000000000E+00 -0.00000000000E+00 -0.45593999997E+02  0.45594000000E+02  0.51100000000E-03 0.  1.
    9900012    2    1    2    0    0 -0.33741946437E+02  0.20794632534E+02 -0.90680919945E+01  0.50528856083E+02  0.29999988551E+02 0.  0.
         12    1    1    2    0    0  0.33741946437E+02 -0.20794632534E+02  0.90680919945E+01  0.40659143917E+02  0.00000000000E+00 0. -1.
         11    1    3    3    0    0 -0.14618091411E+02 -0.47448235753E-01 -0.10216877018E+02  0.17834669162E+02  0.51100000000E-03 0. -1.
        -11    1    3    3    0    0 -0.76111755814E+01  0.78884350331E+00 -0.45189442656E+01  0.88866824710E+01  0.51100000000E-03 0.  1.
        -12    1    3    3    0    0 -0.11512679445E+02  0.20053237267E+02  0.56677292896E+01  0.23807504451E+02  0.00000000000E+00 0.  1.
</event>
<event>
 7    1  0.2838209E-011  0.5052893E+02  0.7816164E-02  0.1300439E+00
        -11   -1    0    0    0    0  0.00000000000E+00  0.00000000000E+00  0.45593999997E+02  0.45594000000E+02  0.51100000000E-03 0.  1.
         11   -1    0    0    0    0 -0.00000000000E+00 -0.00000000000E+00 -0.45593999997E+02  0.45594000000E+02  0.51100000000E-03 0. -1.
    9900012    2    1    2    0    0 -0.28700001146E+01 -0.18275544459E+02  0.36206737668E+02  0.50528926247E+02  0.30000201819E+02 0.  0.
         12    1    1    2    0    0  0.28700001146E+01  0.18275544459E+02 -0.36206737668E+02  0.40659073753E+02  0.00000000000E+00 0. -1.
         11    1    3    3    0    0 -0.94317656261E+01 -0.10188644393E+02  0.20977771159E+02  0.25156183344E+02  0.51100000000E-03 0. -1.
        -11    1    3    3    0    0 -0.48287059706E+00 -0.10861820654E+02  0.13961949258E+02  0.17695997832E+02  0.51100000000E-03 0.  1.
         12    1    3    3    0    0  0.70446361086E+01  0.27749205873E+01  0.12670172510E+01  0.76767450708E+01  0.00000000000E+00 0. -1.
</event>
<event>
 7    1  0.2838209E-011  0.5052888E+02  0.7816164E-02  0.1300439E+00
        -11   -1    0    0    0    0  0.00000000000E+00  0.00000000000E+00  0.45593999997E+02  0.45594000000E+02  0.51100000000E-03 0.  1.
         11   -1    0    0    0    0 -0.00000000000E+00 -0.00000000000E+00 -0.45593999997E+02  0.45594000000E+02  0.51100000000E-03 0. -1.
    9900012    2    1    2    0    0 -0.34884885871E+01 -0.13678575399E+02  0.38129921220E+02  0.50528882083E+02  0.30000067579E+02 0.  0.
         12    1    1    2    0    0  0.34884885871E+01  0.13678575399E+02 -0.38129921220E+02  0.40659117917E+02  0.00000000000E+00 0. -1.
         11    1    3    3    0    0  0.38326288131E+01 -0.61804812971E+01  0.10842332231E+02  0.13055403523E+02  0.51100000000E-03 0. -1.
        -11    1    3    3    0    0  0.68437294483E+01  0.76883531875E+00  0.16401470145E+02  0.17788647045E+02  0.51100000000E-03 0.  1.
         12    1    3    3    0    0 -0.14164846849E+02 -0.82669294212E+01  0.10886118843E+02  0.19684831515E+02  0.00000000000E+00 0. -1.
</event>
<event>
 7    1  0.2838209E-011  0.5052886E+02  0.7816164E-02  0.1300439E+00
        -11   -1    0    0    0    0  0.00000000000E+00  0.00000000000E+00  0.45593999997E+02  0.45594000000E+02  0.51100000000E-03 0.  1.
         11   -1    0    0    0    0 -0.00000000000E+00 -0.00000000000E+00 -0.45593999997E+02  0.45594000000E+02  0.51100000000E-03 0. -1.
    9900012    2    1    2    0    0 -0.25820668275E+02 -0.19544663311E+02  0.24585864519E+02  0.50528861934E+02  0.30000006334E+02 0.  0.
         12    1    1    2    0    0  0.25820668275E+02  0.19544663311E+02 -0.24585864519E+02  0.40659138066E+02  0.00000000000E+00 0. -1.
         11    1    3    3    0    0 -0.15135968156E+01  0.89543097872E+00 -0.97261992821E+00  0.20096670728E+01  0.51100000000E-03 0. -1.
        -11    1    3    3    0    0 -0.24727411014E+01 -0.17142199156E+02  0.42518104948E+01  0.17833881608E+02  0.51100000000E-03 0.  1.
        -12    1    3    3    0    0 -0.21834330358E+02 -0.32978951336E+01  0.21306673953E+02  0.30685313253E+02  0.00000000000E+00 0.  1.
</event>
<event>
 7    1  0.2838209E-011  0.5052886E+02  0.7816164E-02  0.1300439E+00
        -11   -1    0    0    0    0  0.00000000000E+00  0.00000000000E+00  0.45593999997E+02  0.45594000000E+02  0.51100000000E-03 0.  1.
         11   -1    0    0    0    0 -0.00000000000E+00 -0.00000000000E+00 -0.45593999997E+02  0.45594000000E+02  0.51100000000E-03 0. -1.
    9900012    2    1    2    0    0 -0.27183030791E+02 -0.87518526529E+01  0.28942246486E+02  0.50528859337E+02  0.29999998440E+02 0.  0.
         12    1    1    2    0    0  0.27183030791E+02  0.87518526529E+01 -0.28942246486E+02  0.40659140663E+02  0.00000000000E+00 0. -1.
         11    1    3    3    0    0  0.22650109307E+01  0.13835132204E+01  0.92731116282E+00  0.28114568467E+01  0.51100000000E-03 0. -1.
        -11    1    3    3    0    0 -0.14642605772E+02 -0.16093920860E+02  0.10970291192E+02  0.24367344573E+02  0.51100000000E-03 0.  1.
        -12    1    3    3    0    0 -0.14805435949E+02  0.59585549864E+01  0.17044644131E+02  0.23350057917E+02  0.00000000000E+00 0.  1.
</event>
<event>
 7    1  0.2838209E-011  0.5052886E+02  0.7816164E-02  0.1300439E+00
        -11   -1    0    0    0    0  0.00000000000E+00  0.00000000000E+00  0.45593999997E+02  0.45594000000E+02  0.51100000000E-03 0.  1.
         11   -1    0    0    0    0 -0.00000000000E+00 -0.00000000000E+00 -0.45593999997E+02  0.45594000000E+02  0.51100000000E-03 0. -1.
    9900012    2    1    2    0    0 -0.12001778449E+02 -0.36227211721E+02  0.14025395538E+02  0.50528864803E+02  0.30000015054E+02 0.  0.
         12    1    1    2    0    0  0.12001778449E+02  0.36227211721E+02 -0.14025395538E+02  0.40659135197E+02  0.00000000000E+00 0. -1.
         11    1    3    3    0    0 -0.49409280359E+01 -0.25709151769E+02  0.89613731504E+01  0.27670913673E+02  0.51100000000E-03 0.  1.
        -11    1    3    3    0    0  0.17720297847E+01 -0.12359638767E+02  0.58742618958E+01  0.13798830135E+02  0.51100000000E-03 0. -1.
         12    1    3    3    0    0 -0.88328801981E+01  0.18415788151E+01 -0.81023950858E+00  0.90591209942E+01  0.00000000000E+00 0. -1.
</event>
<event>
 7    1  0.2838209E-011  0.5052886E+02  0.7816164E-02  0.1300439E+00
        -11   -1    0    0    0    0  0.00000000000E+00  0.00000000000E+00  0.45593999997E+02  0.45594000000E+02  0.51100000000E-03 0.  1.
         11   -1    0    0    0    0 -0.00000000000E+00 -0.00000000000E+00 -0.45593999997E+02  0.45594000000E+02  0.51100000000E-03 0. -1.
    9900012    2    1    2    0    0  0.76794791048E+01  0.33260084338E+02  0.22089765799E+02  0.50528863726E+02  0.30000011782E+02 0.  0.
         12    1    1    2    0    0 -0.76794791048E+01 -0.33260084338E+02 -0.22089765799E+02  0.40659136274E+02  0.00000000000E+00 0. -1.
         11    1    3    3    0    0  0.72629901390E+01  0.21508868110E+01  0.27338639163E+01  0.80530337145E+01  0.51100000000E-03 0. -1.
        -11    1    3    3    0    0  0.21066328163E+01  0.20447917366E+02  0.28054997231E+00  0.20558062530E+02  0.51100000000E-03 0.  1.
        -12    1    3    3    0    0 -0.16901438505E+01  0.10661280161E+02  0.19075351910E+02  0.21917767482E+02  0.00000000000E+00 0.  1.
</event>
<event>
 7    1  0.2838209E-011  0.5052882E+02  0.7816164E-02  0.1300439E+00
        -11   -1    0    0    0    0  0.00000000000E+00  0.00000000000E+00  0.45593999997E+02  0.45594000000E+02  0.51100000000E-03 0. -1.
         11   -1    0    0    0    0 -0.00000000000E+00 -0.00000000000E+00 -0.45593999997E+02  0.45594000000E+02  0.51100000000E-03 0.  1.
    9900012    2    1    2    0    0  0.26658103677E+02  0.75612165318E+01 -0.29754702586E+02  0.50528821294E+02  0.29999882804E+02 0.  0.
         12    1    1    2    0    0 -0.26658103677E+02 -0.75612165318E+01  0.29754702586E+02  0.40659178706E+02  0.00000000000E+00 0. -1.
         11    1    3    3    0    0 -0.19351738761E+01  0.42230821030E+01 -0.13717202690E+00  0.46473795633E+01  0.51100000000E-03 0. -1.
        -11    1    3    3    0    0  0.27620214616E+02  0.60120735771E+01 -0.17083070907E+02  0.33028057709E+02  0.51100000000E-03 0.  1.
         12    1    3    3    0    0  0.97306293733E+00 -0.26739391483E+01 -0.12534459651E+02  0.12853384021E+02  0.00000000000E+00 0. -1.
</event>
<event>
 7    1  0.2838209E-011  0.5052886E+02  0.7816164E-02  0.1300439E+00
        -11   -1    0    0    0    0  0.00000000000E+00  0.00000000000E+00  0.45593999997E+02  0.45594000000E+02  0.51100000000E-03 0.  1.
         11   -1    0    0    0    0 -0.00000000000E+00 -0.00000000000E+00 -0.45593999997E+02  0.45594000000E+02  0.51100000000E-03 0. -1.
    9900012    2    1    2    0    0  0.22066372022E+02  0.29461908328E+02  0.17269526891E+02  0.50528863566E+02  0.30000011295E+02 0.  0.
         12    1    1    2    0    0 -0.22066372022E+02 -0.29461908328E+02 -0.17269526891E+02  0.40659136434E+02  0.00000000000E+00 0. -1.
         11    1    3    3    0    0  0.12378403764E+02  0.10565232385E+02 -0.53988339780E+01  0.17146323912E+02  0.51100000000E-03 0. -1.
        -11    1    3    3    0    0  0.12398300961E+02  0.15275541020E+02  0.16176558530E+02  0.25470395880E+02  0.51100000000E-03 0.  1.
        -12    1    3    3    0    0 -0.27103327029E+01  0.36211349231E+01  0.64918023390E+01  0.79121437740E+01  0.00000000000E+00 0.  1.
</event>
<event>
 7    1  0.2838209E-011  0.5052888E+02  0.7816164E-02  0.1300439E+00
        -11   -1    0    0    0    0  0.00000000000E+00  0.00000000000E+00  0.45593999997E+02  0.45594000000E+02  0.51100000000E-03 0.  1.
         11   -1    0    0    0    0 -0.00000000000E+00 -0.00000000000E+00 -0.45593999997E+02  0.45594000000E+02  0.51100000000E-03 0. -1.
    9900012    2    1    2    0    0 -0.78519648711E+01  0.11563600910E+02  0.38181070683E+02  0.50528875848E+02  0.30000048627E+02 0.  0.
         12    1    1    2    0    0  0.78519648711E+01 -0.11563600910E+02 -0.38181070683E+02  0.40659124152E+02  0.00000000000E+00 0. -1.
         11    1    3    3    0    0 -0.93950492437E+01 -0.38013154861E+01  0.21121867813E+02  0.23427553220E+02  0.51100000000E-03 0. -1.
        -11    1    3    3    0    0 -0.43267844859E+01  0.45818156693E+01  0.12511291149E+02  0.14008800994E+02  0.51100000000E-03 0.  1.
         12    1    3    3    0    0  0.58698688585E+01  0.10783100727E+02  0.45479117208E+01  0.13092521633E+02  0.00000000000E+00 0. -1.
</event>
<event>
 7    1  0.2838209E-011  0.5052886E+02  0.7816164E-02  0.1300439E+00
        -11   -1    0    0    0    0  0.00000000000E+00  0.00000000000E+00  0.45593999997E+02  0.45594000000E+02  0.51100000000E-03 0. -1.
         11   -1    0    0    0    0 -0.00000000000E+00 -0.00000000000E+00 -0.45593999997E+02  0.45594000000E+02  0.51100000000E-03 0.  1.
    9900012    2    1    2    0    0 -0.31617049949E+01  0.12126376416E+02 -0.38679716854E+02  0.50528857371E+02  0.29999992464E+02 0.  0.
         12    1    1    2    0    0  0.31617049949E+01 -0.12126376416E+02  0.38679716854E+02  0.40659142629E+02  0.00000000000E+00 0. -1.
         11    1    3    3    0    0  0.18477767195E+01  0.97492133438E+01 -0.67733347905E+01  0.12014137675E+02  0.51100000000E-03 0. -1.
        -11    1    3    3    0    0  0.60311797687E+00  0.27765940241E+01  0.24187645875E+01  0.37314404805E+01  0.51100000000E-03 0.  1.
        -12    1    3    3    0    0 -0.56125996913E+01 -0.39943095216E+00 -0.34325146651E+02  0.34783279215E+02  0.00000000000E+00 0.  1.
</event>
<event>
 7    1  0.2838209E-011  0.5052887E+02  0.7816164E-02  0.1300439E+00
        -11   -1    0    0    0    0  0.00000000000E+00  0.00000000000E+00  0.45593999997E+02  0.45594000000E+02  0.51100000000E-03 0. -1.
         11   -1    0    0    0    0 -0.00000000000E+00 -0.00000000000E+00 -0.45593999997E+02  0.45594000000E+02  0.51100000000E-03 0.  1.
    9900012    2    1    2    0    0  0.35843762849E+02  0.15899475421E+02 -0.10751581401E+02  0.50528866260E+02  0.30000019483E+02 0.  0.
         12    1    1    2    0    0 -0.35843762849E+02 -0.15899475421E+02  0.10751581401E+02  0.40659133740E+02  0.00000000000E+00 0. -1.
         11    1    3    3    0    0 -0.16024164746E+01 -0.18560634851E+01  0.16461694136E+01  0.29534021430E+01  0.51100000000E-03 0. -1.
        -11    1    3    3    0    0  0.21832876171E+02  0.17458902715E+01 -0.12488341444E+02  0.25212720738E+02  0.51100000000E-03 0.  1.
         12    1    3    3    0    0  0.15613303153E+02  0.16009648635E+02  0.90590628628E-01  0.22362743378E+02  0.00000000000E+00 0. -1.
</event>
<event>
 7    1  0.2838209E-011  0.5052887E+02  0.7816164E-02  0.1300439E+00
        -11   -1    0    0    0    0  0.00000000000E+00  0.00000000000E+00  0.45593999997E+02  0.45594000000E+02  0.51100000000E-03 0.  1.
         11   -1    0    0    0    0 -0.00000000000E+00 -0.00000000000E+00 -0.45593999997E+02  0.45594000000E+02  0.51100000000E-03 0. -1.
    9900012    2    1    2    0    0 -0.27419677436E+01  0.13504958594E+02  0.38252611555E+02  0.50528873294E+02  0.30000040865E+02 0.  0.
         12    1    1    2    0    0  0.27419677436E+01 -0.13504958594E+02 -0.38252611555E+02  0.40659126706E+02  0.00000000000E+00 0. -1.
         11    1    3    3    0    0  0.46515948766E+01  0.58678297690E+01  0.34138132878E+01  0.82293913820E+01  0.51100000000E-03 0. -1.
        -11    1    3    3    0    0 -0.18505391467E+01  0.12851690722E+02  0.31340367287E+02  0.33923576927E+02  0.51100000000E-03 0.  1.
        -12    1    3    3    0    0 -0.55430234735E+01 -0.52145618973E+01  0.34984309799E+01  0.83759049857E+01  0.00000000000E+00 0.  1.
</event>
<event>
 7    1  0.2838209E-011  0.5052886E+02  0.7816164E-02  0.1300439E+00
        -11   -1    0    0    0    0  0.00000000000E+00  0.00000000000E+00  0.45593999997E+02  0.45594000000E+02  0.51100000000E-03 0.  1.
         11   -1    0    0    0    0 -0.00000000000E+00 -0.00000000000E+00 -0.45593999997E+02  0.45594000000E+02  0.51100000000E-03 0. -1.
    9900012    2    1    2    0    0 -0.72669788397E+01  0.44019596364E+01  0.39761533643E+02  0.50528858497E+02  0.29999995889E+02 0.  0.
         12    1    1    2    0    0  0.72669788397E+01 -0.44019596364E+01 -0.39761533643E+02  0.40659141503E+02  0.00000000000E+00 0. -1.
         11    1    3    3    0    0 -0.51562286250E+01 -0.64250811191E+01  0.10665506515E+01  0.83069784864E+01  0.51100000000E-03 0. -1.
        -11    1    3    3    0    0 -0.62145342553E+01  0.84248919300E+01  0.16634001772E+02  0.19654242679E+02  0.51100000000E-03 0.  1.
        -12    1    3    3    0    0  0.41037840406E+01  0.24021488255E+01  0.22060981219E+02  0.22567637333E+02  0.00000000000E+00 0.  1.
</event>
<event>
 7    1  0.2838209E-011  0.5052885E+02  0.7816164E-02  0.1300439E+00
        -11   -1    0    0    0    0  0.00000000000E+00  0.00000000000E+00  0.45593999997E+02  0.45594000000E+02  0.51100000000E-03 0.  1.
         11   -1    0    0    0    0 -0.00000000000E+00 -0.00000000000E+00 -0.45593999997E+02  0.45594000000E+02  0.51100000000E-03 0. -1.
    9900012    2    1    2    0    0 -0.27439132125E+02 -0.21669344040E+02  0.20753306425E+02  0.50528853791E+02  0.29999981583E+02 0.  0.
         12    1    1    2    0    0  0.27439132125E+02  0.21669344040E+02 -0.20753306425E+02  0.40659146209E+02  0.00000000000E+00 0. -1.
         11    1    3    3    0    0 -0.62381240244E+01 -0.21510256902E+01  0.96112270282E+00  0.66681976556E+01  0.51100000000E-03 0. -1.
        -11    1    3    3    0    0  0.18182181940E+01  0.25651826329E+01  0.10014471156E+02  0.10496461887E+02  0.51100000000E-03 0.  1.
         12    1    3    3    0    0 -0.23019226294E+02 -0.22083500983E+02  0.97777125660E+01  0.33364194249E+02  0.00000000000E+00 0. -1.
</event>
<event>
 7    1  0.2838209E-011  0.5052885E+02  0.7816164E-02  0.1300439E+00
        -11   -1    0    0    0    0  0.00000000000E+00  0.00000000000E+00  0.45593999997E+02  0.45594000000E+02  0.51100000000E-03 0.  1.
         11   -1    0    0    0    0 -0.00000000000E+00 -0.00000000000E+00 -0.45593999997E+02  0.45594000000E+02  0.51100000000E-03 0. -1.
    9900012    2    1    2    0    0 -0.94288080320E+01 -0.25799282592E+02  0.29977676826E+02  0.50528849602E+02  0.29999968850E+02 0.  0.
         12    1    1    2    0    0  0.94288080320E+01  0.25799282592E+02 -0.29977676826E+02  0.40659150398E+02  0.00000000000E+00 0. -1.
         11    1    3    3    0    0  0.28986400884E+01 -0.11414736737E+02  0.20230563313E+02  0.23408844938E+02  0.51100000000E-03 0. -1.
        -11    1    3    3    0    0  0.24837580856E+01 -0.67372427668E+01  0.73574824208E+01  0.10280663508E+02  0.51100000000E-03 0.  1.
         12    1    3    3    0    0 -0.14811206206E+02 -0.76473030891E+01  0.23896310927E+01  0.16839341156E+02  0.00000000000E+00 0. -1.
</event>
<event>
 7    1  0.2838209E-011  0.5052885E+02  0.7816164E-02  0.1300439E+00
        -11   -1    0    0    0    0  0.00000000000E+00  0.00000000000E+00  0.45593999997E+02  0.45594000000E+02  0.51100000000E-03 0.  1.
         11   -1    0    0    0    0 -0.00000000000E+00 -0.00000000000E+00 -0.45593999997E+02  0.45594000000E+02  0.51100000000E-03 0. -1.
    9900012    2    1    2    0    0  0.89588797818E+01  0.18862200783E+02  0.34887275192E+02  0.50528854465E+02  0.29999983631E+02 0.  0.
         12    1    1    2    0    0 -0.89588797818E+01 -0.18862200783E+02 -0.34887275192E+02  0.40659145535E+02  0.00000000000E+00 0. -1.
         11    1    3    3    0    0  0.18924824828E+01  0.14253999144E+02  0.23010335690E+02  0.27133623613E+02  0.51100000000E-03 0. -1.
        -11    1    3    3    0    0 -0.15040840581E+01  0.89068943618E+01  0.13113964909E+01  0.91276939609E+01  0.51100000000E-03 0.  1.
        -12    1    3    3    0    0  0.85704813571E+01 -0.42986927221E+01  0.10565543012E+02  0.14267536891E+02  0.00000000000E+00 0.  1.
</event>
<event>
 7    1  0.2838209E-011  0.5052885E+02  0.7816164E-02  0.1300439E+00
        -11   -1    0    0    0    0  0.00000000000E+00  0.00000000000E+00  0.45593999997E+02  0.45594000000E+02  0.51100000000E-03 0.  1.
         11   -1    0    0    0    0 -0.00000000000E+00 -0.00000000000E+00 -0.45593999997E+02  0.45594000000E+02  0.51100000000E-03 0. -1.
    9900012    2    1    2    0    0 -0.22913798963E+02 -0.30130998604E+02 -0.14840716646E+02  0.50528854284E+02  0.29999983082E+02 0.  0.
         12    1    1    2    0    0  0.22913798963E+02  0.30130998604E+02  0.14840716646E+02  0.40659145716E+02  0.00000000000E+00 0. -1.
         11    1    3    3    0    0 -0.13155537234E+01 -0.11245641641E+02 -0.17318086186E+01  0.11454007983E+02  0.51100000000E-03 0. -1.
        -11    1    3    3    0    0 -0.19787441997E+01 -0.10314340136E+02  0.44296352968E+01  0.11398364364E+02  0.51100000000E-03 0.  1.
         12    1    3    3    0    0 -0.19619501040E+02 -0.85710168267E+01 -0.17538543324E+02  0.27676481937E+02  0.00000000000E+00 0. -1.
</event>
<event>
 7    1  0.2838209E-011  0.5052885E+02  0.7816164E-02  0.1300439E+00
        -11   -1    0    0    0    0  0.00000000000E+00  0.00000000000E+00  0.45593999997E+02  0.45594000000E+02  0.51100000000E-03 0. -1.
         11   -1    0    0    0    0 -0.00000000000E+00 -0.00000000000E+00 -0.45593999997E+02  0.45594000000E+02  0.51100000000E-03 0.  1.
    9900012    2    1    2    0    0  0.30315322613E+02  0.15734504599E+02 -0.22058404149E+02  0.50528848340E+02  0.29999965013E+02 0.  0.
         12    1    1    2    0    0 -0.30315322613E+02 -0.15734504599E+02  0.22058404149E+02  0.40659151660E+02  0.00000000000E+00 0. -1.
         11    1    3    3    0    0  0.13217311080E+02  0.31384901627E+01 -0.57700591290E+01  0.14759438177E+02  0.51100000000E-03 0. -1.
        -11    1    3    3    0    0  0.22545159608E+02  0.12017183244E+02 -0.10014299268E+02  0.27440537622E+02  0.51100000000E-03 0.  1.
         12    1    3    3    0    0 -0.54471480749E+01  0.57883119255E+00 -0.62740457524E+01  0.83288725409E+01  0.00000000000E+00 0. -1.
</event>
<event>
 7    1  0.2838209E-011  0.5052880E+02  0.7816164E-02  0.1300439E+00
        -11   -1    0    0    0    0  0.00000000000E+00  0.00000000000E+00  0.45593999997E+02  0.45594000000E+02  0.51100000000E-03 0.  1.
         11   -1    0    0    0    0 -0.00000000000E+00 -0.00000000000E+00 -0.45593999997E+02  0.45594000000E+02  0.51100000000E-03 0. -1.
    9900012    2    1    2    0    0 -0.28561683919E+02 -0.27206290926E+02 -0.98599506686E+01  0.50528798317E+02  0.29999812965E+02 0.  0.
         12    1    1    2    0    0  0.28561683919E+02  0.27206290926E+02  0.98599506686E+01  0.40659201683E+02  0.00000000000E+00 0. -1.
         11    1    3    3    0    0 -0.14144028441E+01  0.28677686659E+01  0.67883790019E-01  0.31983184639E+01  0.51100000000E-03 0. -1.
        -11    1    3    3    0    0 -0.28996567683E+02 -0.18146051718E+02 -0.74452967489E+01  0.35007321724E+02  0.51100000000E-03 0.  1.
         12    1    3    3    0    0  0.18492866078E+01 -0.11928007874E+02 -0.24825377097E+01  0.12323158130E+02  0.00000000000E+00 0. -1.
</event>
<event>
 7    1  0.2838209E-011  0.5052887E+02  0.7816164E-02  0.1300439E+00
        -11   -1    0    0    0    0  0.00000000000E+00  0.00000000000E+00  0.45593999997E+02  0.45594000000E+02  0.51100000000E-03 0. -1.
         11   -1    0    0    0    0 -0.00000000000E+00 -0.00000000000E+00 -0.45593999997E+02  0.45594000000E+02  0.51100000000E-03 0.  1.
    9900012    2    1    2    0    0  0.40304782764E+02  0.59225261420E+00 -0.53233736552E+01  0.50528873301E+02  0.30000040886E+02 0.  0.
         12    1    1    2    0    0 -0.40304782764E+02 -0.59225261420E+00  0.53233736552E+01  0.40659126699E+02  0.00000000000E+00 0. -1.
         11    1    3    3    0    0  0.29610019044E+01  0.33954750727E+01 -0.45113660410E+01  0.63756730675E+01  0.51100000000E-03 0. -1.
        -11    1    3    3    0    0  0.35837447978E+02  0.48537381694E+01  0.84924489437E+00  0.36174613598E+02  0.51100000000E-03 0.  1.
         12    1    3    3    0    0  0.15063328820E+01 -0.76569606279E+01 -0.16612525086E+01  0.79785866359E+01  0.00000000000E+00 0. -1.
</event>
<event>
 7    1  0.2838209E-011  0.5052886E+02  0.7816164E-02  0.1300439E+00
        -11   -1    0    0    0    0  0.00000000000E+00  0.00000000000E+00  0.45593999997E+02  0.45594000000E+02  0.51100000000E-03 0. -1.
         11   -1    0    0    0    0 -0.00000000000E+00 -0.00000000000E+00 -0.45593999997E+02  0.45594000000E+02  0.51100000000E-03 0.  1.
    9900012    2    1    2    0    0  0.12249449248E+00  0.40600144652E+02  0.21861440711E+01  0.50528856175E+02  0.29999988829E+02 0.  0.
         12    1    1    2    0    0 -0.12249449248E+00 -0.40600144652E+02 -0.21861440711E+01  0.40659143825E+02  0.00000000000E+00 0. -1.
         11    1    3    3    0    0 -0.50110848206E+01  0.35954527386E+01  0.35141227354E+01  0.70984019565E+01  0.51100000000E-03 0. -1.
        -11    1    3    3    0    0 -0.60684792742E+01  0.28231750780E+02 -0.33054974539E+01  0.29065176870E+02  0.51100000000E-03 0.  1.
         12    1    3    3    0    0  0.11202058587E+02  0.87729411338E+01  0.19775187896E+01  0.14365277348E+02  0.00000000000E+00 0. -1.
</event>
<event>
 7    1  0.2838209E-011  0.5052885E+02  0.7816164E-02  0.1300439E+00
        -11   -1    0    0    0    0  0.00000000000E+00  0.00000000000E+00  0.45593999997E+02  0.45594000000E+02  0.51100000000E-03 0.  1.
         11   -1    0    0    0    0 -0.00000000000E+00 -0.00000000000E+00 -0.45593999997E+02  0.45594000000E+02  0.51100000000E-03 0. -1.
    9900012    2    1    2    0    0 -0.37112638235E+02  0.16062220547E+01  0.16529938109E+02  0.50528847034E+02  0.29999961043E+02 0.  0.
         12    1    1    2    0    0  0.37112638235E+02 -0.16062220547E+01 -0.16529938109E+02  0.40659152966E+02  0.00000000000E+00 0. -1.
         11    1    3    3    0    0  0.22811106801E+01 -0.12846075543E+01  0.10543779660E+01  0.28223032544E+01  0.51100000000E-03 0. -1.
        -11    1    3    3    0    0 -0.25747896946E+02 -0.45565925563E+01  0.54735015188E+00  0.26153705766E+02  0.51100000000E-03 0.  1.
         12    1    3    3    0    0 -0.13645851969E+02  0.74474221653E+01  0.14928209991E+02  0.21552838013E+02  0.00000000000E+00 0. -1.
</event>
<event>
 7    1  0.2838209E-011  0.5052885E+02  0.7816164E-02  0.1300439E+00
        -11   -1    0    0    0    0  0.00000000000E+00  0.00000000000E+00  0.45593999997E+02  0.45594000000E+02  0.51100000000E-03 0. -1.
         11   -1    0    0    0    0 -0.00000000000E+00 -0.00000000000E+00 -0.45593999997E+02  0.45594000000E+02  0.51100000000E-03 0.  1.
    9900012    2    1    2    0    0 -0.23122777886E+02  0.32244113119E+02 -0.88781093473E+01  0.50528849571E+02  0.29999968756E+02 0.  0.
         12    1    1    2    0    0  0.23122777886E+02 -0.32244113119E+02  0.88781093473E+01  0.40659150429E+02  0.00000000000E+00 0. -1.
         11    1    3    3    0    0 -0.19087329380E+02  0.22297982705E+02  0.99275541069E+00  0.29368550171E+02  0.51100000000E-03 0. -1.
        -11    1    3    3    0    0 -0.45198332451E+01  0.13131450523E+02 -0.39811677598E+01  0.14446922939E+02  0.51100000000E-03 0.  1.
        -12    1    3    3    0    0  0.48438473843E+00 -0.31853201098E+01 -0.58896969982E+01  0.67133764610E+01  0.00000000000E+00 0.  1.
</event>
<event>
 7    1  0.2838209E-011  0.5052893E+02  0.7816164E-02  0.1300439E+00
        -11   -1    0    0    0    0  0.00000000000E+00  0.00000000000E+00  0.45593999997E+02  0.45594000000E+02  0.51100000000E-03 0.  1.
         11   -1    0    0    0    0 -0.00000000000E+00 -0.00000000000E+00 -0.45593999997E+02  0.45594000000E+02  0.51100000000E-03 0. -1.
    9900012    2    1    2    0    0  0.12025403611E+02 -0.28474404017E+02  0.26415107170E+02  0.50528930865E+02  0.30000215857E+02 0.  0.
         12    1    1    2    0    0 -0.12025403611E+02  0.28474404017E+02 -0.26415107170E+02  0.40659069135E+02  0.00000000000E+00 0. -1.
         11    1    3    3    0    0  0.11862723706E+02 -0.89509965052E+01  0.89138815611E+01  0.17329219166E+02  0.51100000000E-03 0. -1.
        -11    1    3    3    0    0  0.71103823554E+01 -0.20021438343E+02  0.13137725737E+02  0.24980299605E+02  0.51100000000E-03 0.  1.
         12    1    3    3    0    0 -0.69477024503E+01  0.49803083125E+00  0.43634998716E+01  0.82194120943E+01  0.00000000000E+00 0. -1.
</event>
<event>
 7    1  0.2838209E-011  0.5052887E+02  0.7816164E-02  0.1300439E+00
        -11   -1    0    0    0    0  0.00000000000E+00  0.00000000000E+00  0.45593999997E+02  0.45594000000E+02  0.51100000000E-03 0. -1.
         11   -1    0    0    0    0 -0.00000000000E+00 -0.00000000000E+00 -0.45593999997E+02  0.45594000000E+02  0.51100000000E-03 0.  1.
    9900012    2    1    2    0    0  0.14222919219E+02 -0.38055873855E+02 -0.16199215298E+01  0.50528866811E+02  0.30000021158E+02 0.  0.
         12    1    1    2    0    0 -0.14222919219E+02  0.38055873855E+02  0.16199215298E+01  0.40659133189E+02  0.00000000000E+00 0. -1.
         11    1    3    3    0    0 -0.10348248456E+01 -0.86664286929E+01  0.55327544079E+01  0.10333886991E+02  0.51100000000E-03 0.  1.
        -11    1    3    3    0    0  0.23510474911E+01 -0.14645298836E+02  0.66207600630E+01  0.16243357608E+02  0.51100000000E-03 0. -1.
        -12    1    3    3    0    0  0.12906696573E+02 -0.14744146326E+02 -0.13773436001E+02  0.23951622212E+02  0.00000000000E+00 0.  1.
</event>
<event>
 7    1  0.2838209E-011  0.5052886E+02  0.7816164E-02  0.1300439E+00
        -11   -1    0    0    0    0  0.00000000000E+00  0.00000000000E+00  0.45593999997E+02  0.45594000000E+02  0.51100000000E-03 0. -1.
         11   -1    0    0    0    0 -0.00000000000E+00 -0.00000000000E+00 -0.45593999997E+02  0.45594000000E+02  0.51100000000E-03 0.  1.
    9900012    2    1    2    0    0  0.20276454435E+02 -0.26494920428E+02 -0.23238979483E+02  0.50528861048E+02  0.30000003640E+02 0.  0.
         12    1    1    2    0    0 -0.20276454435E+02  0.26494920428E+02  0.23238979483E+02  0.40659138952E+02  0.00000000000E+00 0. -1.
         11    1    3    3    0    0 -0.18550277397E+01 -0.44000126910E+01 -0.96971308936E+01  0.10809051181E+02  0.51100000000E-03 0. -1.
        -11    1    3    3    0    0  0.10945414944E+02 -0.62435125029E+01 -0.15775958470E+02  0.20190701389E+02  0.51100000000E-03 0.  1.
         12    1    3    3    0    0  0.11186067230E+02 -0.15851395234E+02  0.22341098813E+01  0.19529108477E+02  0.00000000000E+00 0. -1.
</event>
<event>
 7    1  0.2838209E-011  0.5052890E+02  0.7816164E-02  0.1300439E+00
        -11   -1    0    0    0    0  0.00000000000E+00  0.00000000000E+00  0.45593999997E+02  0.45594000000E+02  0.51100000000E-03 0. -1.
         11   -1    0    0    0    0 -0.00000000000E+00 -0.00000000000E+00 -0.45593999997E+02  0.45594000000E+02  0.51100000000E-03 0.  1.
    9900012    2    1    2    0    0  0.37657504366E+01 -0.39968472653E+02  0.64422718443E+01  0.50528898324E+02  0.30000116945E+02 0.  0.
         12    1    1    2    0    0 -0.37657504366E+01  0.39968472653E+02 -0.64422718443E+01  0.40659101676E+02  0.00000000000E+00 0. -1.
         11    1    3    3    0    0 -0.23934387185E+00 -0.58703528962E+01 -0.83249694458E+01  0.10189379036E+02  0.51100000000E-03 0. -1.
        -11    1    3    3    0    0 -0.25140149419E+01 -0.22328305581E+01 -0.18258350884E+01  0.38261570094E+01  0.51100000000E-03 0.  1.
        -12    1    3    3    0    0  0.65191092504E+01 -0.31865289199E+02  0.16593076378E+02  0.36513362278E+02  0.00000000000E+00 0.  1.
</event>
<event>
 7    1  0.2838209E-011  0.5052885E+02  0.7816164E-02  0.1300439E+00
        -11   -1    0    0    0    0  0.00000000000E+00  0.00000000000E+00  0.45593999997E+02  0.45594000000E+02  0.51100000000E-03 0. -1.
         11   -1    0    0    0    0 -0.00000000000E+00 -0.00000000000E+00 -0.45593999997E+02  0.45594000000E+02  0.51100000000E-03 0.  1.
    9900012    2    1    2    0    0 -0.48222547245E+01  0.34152098033E+02 -0.21530128464E+02  0.50528851308E+02  0.29999974037E+02 0.  0.
         12    1    1    2    0    0  0.48222547245E+01 -0.34152098033E+02  0.21530128464E+02  0.40659148692E+02  0.00000000000E+00 0. -1.
         11    1    3    3    0    0 -0.10957931846E+01 -0.13298889485E+01  0.53633543873E+00  0.18047224946E+01  0.51100000000E-03 0. -1.
        -11    1    3    3    0    0  0.20764259265E+00 -0.51502519080E+00  0.40433309917E+01  0.40812856017E+01  0.51100000000E-03 0.  1.
        -12    1    3    3    0    0 -0.39341041326E+01  0.35997012172E+02 -0.26109794894E+02  0.44642843212E+02  0.00000000000E+00 0.  1.
</event>
<event>
 7    1  0.2838209E-011  0.5052885E+02  0.7816164E-02  0.1300439E+00
        -11   -1    0    0    0    0  0.00000000000E+00  0.00000000000E+00  0.45593999997E+02  0.45594000000E+02  0.51100000000E-03 0. -1.
         11   -1    0    0    0    0 -0.00000000000E+00 -0.00000000000E+00 -0.45593999997E+02  0.45594000000E+02  0.51100000000E-03 0.  1.
    9900012    2    1    2    0    0 -0.10686791275E+02  0.24225544960E+02 -0.30855829616E+02  0.50528846569E+02  0.29999959632E+02 0.  0.
         12    1    1    2    0    0  0.10686791275E+02 -0.24225544960E+02  0.30855829616E+02  0.40659153431E+02  0.00000000000E+00 0. -1.
         11    1    3    3    0    0  0.24772520326E+01 -0.17778942167E+01  0.66674317013E+00  0.31212549070E+01  0.51100000000E-03 0. -1.
        -11    1    3    3    0    0 -0.33030315447E+01 -0.29631738496E+01 -0.65501441129E+01  0.79116878610E+01  0.51100000000E-03 0.  1.
         12    1    3    3    0    0 -0.98610117628E+01  0.28966613027E+02 -0.24972428674E+02  0.39495903801E+02  0.00000000000E+00 0. -1.
</event>
<event>
 7    1  0.2838209E-011  0.5052885E+02  0.7816164E-02  0.1300439E+00
        -11   -1    0    0    0    0  0.00000000000E+00  0.00000000000E+00  0.45593999997E+02  0.45594000000E+02  0.51100000000E-03 0. -1.
         11   -1    0    0    0    0 -0.00000000000E+00 -0.00000000000E+00 -0.45593999997E+02  0.45594000000E+02  0.51100000000E-03 0.  1.
    9900012    2    1    2    0    0  0.19382127019E+02  0.15379058720E+02 -0.32264287822E+02  0.50528848956E+02  0.29999966888E+02 0.  0.
         12    1    1    2    0    0 -0.19382127019E+02 -0.15379058720E+02  0.32264287822E+02  0.40659151044E+02  0.00000000000E+00 0. -1.
         11    1    3    3    0    0  0.30623344451E+01  0.12591643756E+02 -0.40611794762E+01  0.13580153303E+02  0.51100000000E-03 0. -1.
        -11    1    3    3    0    0 -0.10405532383E+01  0.57953781652E+01 -0.44807097293E+01  0.73990485238E+01  0.51100000000E-03 0.  1.
        -12    1    3    3    0    0  0.17360345813E+02 -0.30079632013E+01 -0.23722398617E+02  0.29549647129E+02  0.00000000000E+00 0.  1.
</event>
<event>
 7    1  0.2838209E-011  0.5052886E+02  0.7816164E-02  0.1300439E+00
        -11   -1    0    0    0    0  0.00000000000E+00  0.00000000000E+00  0.45593999997E+02  0.45594000000E+02  0.51100000000E-03 0. -1.
         11   -1    0    0    0    0 -0.00000000000E+00 -0.00000000000E+00 -0.45593999997E+02  0.45594000000E+02  0.51100000000E-03 0.  1.
    9900012    2    1    2    0    0  0.64974586010E+01 -0.86602802263E+00 -0.40127284237E+02  0.50528856956E+02  0.29999991205E+02 0.  0.
         12    1    1    2    0    0 -0.64974586010E+01  0.86602802263E+00  0.40127284237E+02  0.40659143044E+02  0.00000000000E+00 0. -1.
         11    1    3    3    0    0 -0.92339554523E+01 -0.30408810341E+01 -0.72522553208E+01  0.12128812731E+02  0.51100000000E-03 0. -1.
        -11    1    3    3    0    0  0.21905152521E+01 -0.19210839990E+01 -0.16522489902E+02  0.16777413199E+02  0.51100000000E-03 0.  1.
        -12    1    3    3    0    0  0.13540898801E+02  0.40959370104E+01 -0.16352539014E+02  0.21622631027E+02  0.00000000000E+00 0.  1.
</event>
<event>
 7    1  0.2838209E-011  0.5052885E+02  0.7816164E-02  0.1300439E+00
        -11   -1    0    0    0    0  0.00000000000E+00  0.00000000000E+00  0.45593999997E+02  0.45594000000E+02  0.51100000000E-03 0. -1.
         11   -1    0    0    0    0 -0.00000000000E+00 -0.00000000000E+00 -0.45593999997E+02  0.45594000000E+02  0.51100000000E-03 0.  1.
    9900012    2    1    2    0    0  0.12372009103E+02 -0.36350501252E+02  0.13369412900E+02  0.50528846641E+02  0.29999959851E+02 0.  0.
         12    1    1    2    0    0 -0.12372009103E+02  0.36350501252E+02 -0.13369412900E+02  0.40659153359E+02  0.00000000000E+00 0. -1.
         11    1    3    3    0    0  0.84063368162E+01 -0.52319145980E+01  0.41134718520E+01  0.10721943852E+02  0.51100000000E-03 0. -1.
        -11    1    3    3    0    0  0.11324268311E+02 -0.21142425866E+02  0.12425350006E+02  0.27011674278E+02  0.51100000000E-03 0.  1.
        -12    1    3    3    0    0 -0.73585960240E+01 -0.99761607880E+01 -0.31694089577E+01  0.12795228511E+02  0.00000000000E+00 0.  1.
</event>
<event>
 7    1  0.2838209E-011  0.5052886E+02  0.7816164E-02  0.1300439E+00
        -11   -1    0    0    0    0  0.00000000000E+00  0.00000000000E+00  0.45593999997E+02  0.45594000000E+02  0.51100000000E-03 0.  1.
         11   -1    0    0    0    0 -0.00000000000E+00 -0.00000000000E+00 -0.45593999997E+02  0.45594000000E+02  0.51100000000E-03 0. -1.
    9900012    2    1    2    0    0  0.17509948864E+02 -0.35507650659E+02 -0.92614318702E+01  0.50528859763E+02  0.29999999736E+02 0.  0.
         12    1    1    2    0    0 -0.17509948864E+02  0.35507650659E+02  0.92614318702E+01  0.40659140237E+02  0.00000000000E+00 0. -1.
         11    1    3    3    0    0  0.10869900591E+02 -0.26120044711E+02 -0.42637839640E+01  0.28611035083E+02  0.51100000000E-03 0. -1.
        -11    1    3    3    0    0  0.69250831746E+00 -0.64574171067E+01  0.61520762627E+01  0.89457166321E+01  0.51100000000E-03 0.  1.
         12    1    3    3    0    0  0.59475399546E+01 -0.29301888407E+01 -0.11149724169E+02  0.12972108048E+02  0.00000000000E+00 0. -1.
</event>
<event>
 7    1  0.2838209E-011  0.5052885E+02  0.7816164E-02  0.1300439E+00
        -11   -1    0    0    0    0  0.00000000000E+00  0.00000000000E+00  0.45593999997E+02  0.45594000000E+02  0.51100000000E-03 0. -1.
         11   -1    0    0    0    0 -0.00000000000E+00 -0.00000000000E+00 -0.45593999997E+02  0.45594000000E+02  0.51100000000E-03 0.  1.
    9900012    2    1    2    0    0  0.34279904838E+02 -0.21073312052E+02 -0.58283588512E+01  0.50528854369E+02  0.29999983340E+02 0.  0.
         12    1    1    2    0    0 -0.34279904838E+02  0.21073312052E+02  0.58283588512E+01  0.40659145631E+02  0.00000000000E+00 0. -1.
         11    1    3    3    0    0  0.53580709097E+01  0.57626994041E+01 -0.66706542739E+01  0.10315777091E+02  0.51100000000E-03 0. -1.
        -11    1    3    3    0    0  0.57997943551E+00 -0.27976172259E+01 -0.93827294206E+00  0.30072237468E+01  0.51100000000E-03 0.  1.
        -12    1    3    3    0    0  0.28341854493E+02 -0.24038394230E+02  0.17805683648E+01  0.37205853531E+02  0.00000000000E+00 0.  1.
</event>
<event>
 7    1  0.2871811E-011  0.5052884E+02  0.7816164E-02  0.1300439E+00
        -11   -1    0    0    0    0  0.00000000000E+00  0.00000000000E+00  0.45593999997E+02  0.45594000000E+02  0.51100000000E-03 0. -1.
         11   -1    0    0    0    0 -0.00000000000E+00 -0.00000000000E+00 -0.45593999997E+02  0.45594000000E+02  0.51100000000E-03 0.  1.
    9900012    2    1    2    0    0 -0.23747808590E+02  0.29903066791E+02 -0.13964790337E+02  0.50528841308E+02  0.29999943641E+02 0.  0.
         12    1    1    2    0    0  0.23747808590E+02 -0.29903066791E+02  0.13964790337E+02  0.40659158692E+02  0.00000000000E+00 0. -1.
         11    1    3    3    0    0 -0.43833958819E+01 -0.26222118937E+01 -0.40451565342E+01  0.65156309227E+01  0.51100000000E-03 0. -1.
        -11    1    3    3    0    0 -0.14297801406E+02  0.58083303066E+01 -0.59127087305E+01  0.16526462138E+02  0.51100000000E-03 0.  1.
        -12    1    3    3    0    0 -0.50666113027E+01  0.26716948378E+02 -0.40069250722E+01  0.27486748248E+02  0.00000000000E+00 0.  1.
</event>
<event>
 7    1  0.2838209E-011  0.5052887E+02  0.7816164E-02  0.1300439E+00
        -11   -1    0    0    0    0  0.00000000000E+00  0.00000000000E+00  0.45593999997E+02  0.45594000000E+02  0.51100000000E-03 0.  1.
         11   -1    0    0    0    0 -0.00000000000E+00 -0.00000000000E+00 -0.45593999997E+02  0.45594000000E+02  0.51100000000E-03 0. -1.
    9900012    2    1    2    0    0  0.35399888117E+02 -0.11197352470E+02  0.16572037829E+02  0.50528865493E+02  0.30000017152E+02 0.  0.
         12    1    1    2    0    0 -0.35399888117E+02  0.11197352470E+02 -0.16572037829E+02  0.40659134507E+02  0.00000000000E+00 0. -1.
         11    1    3    3    0    0  0.28321574541E+01 -0.54095963805E+01  0.15577503494E+02  0.16731511116E+02  0.51100000000E-03 0. -1.
        -11    1    3    3    0    0  0.96871642038E+01 -0.36186654439E+01  0.28870068566E+01  0.10736419271E+02  0.51100000000E-03 0.  1.
        -12    1    3    3    0    0  0.22880566459E+02 -0.21690906456E+01 -0.18924725218E+01  0.23060935106E+02  0.00000000000E+00 0.  1.
</event>
<event>
 7    1  0.2838209E-011  0.5052886E+02  0.7816164E-02  0.1300439E+00
        -11   -1    0    0    0    0  0.00000000000E+00  0.00000000000E+00  0.45593999997E+02  0.45594000000E+02  0.51100000000E-03 0.  1.
         11   -1    0    0    0    0 -0.00000000000E+00 -0.00000000000E+00 -0.45593999997E+02  0.45594000000E+02  0.51100000000E-03 0. -1.
    9900012    2    1    2    0    0  0.68850973555E+01 -0.24731403528E+02  0.31529654929E+02  0.50528855567E+02  0.29999986981E+02 0.  0.
         12    1    1    2    0    0 -0.68850973555E+01  0.24731403528E+02 -0.31529654929E+02  0.40659144433E+02  0.00000000000E+00 0. -1.
         11    1    3    3    0    0 -0.43389850539E+01 -0.33933176696E+01  0.22212899659E+02  0.22885679095E+02  0.51100000000E-03 0. -1.
        -11    1    3    3    0    0  0.46548158914E+01 -0.38594322152E+01 -0.12696303733E+01  0.61785507648E+01  0.51100000000E-03 0.  1.
        -12    1    3    3    0    0  0.65692665180E+01 -0.17478653643E+02  0.10586385643E+02  0.21464625707E+02  0.00000000000E+00 0.  1.
</event>
<event>
 7    1  0.2838209E-011  0.5052878E+02  0.7816164E-02  0.1300439E+00
        -11   -1    0    0    0    0  0.00000000000E+00  0.00000000000E+00  0.45593999997E+02  0.45594000000E+02  0.51100000000E-03 0. -1.
         11   -1    0    0    0    0 -0.00000000000E+00 -0.00000000000E+00 -0.45593999997E+02  0.45594000000E+02  0.51100000000E-03 0.  1.
    9900012    2    1    2    0    0  0.17303028864E+02  0.36539278463E+02  0.43195007814E+01  0.50528784988E+02  0.29999772447E+02 0.  0.
         12    1    1    2    0    0 -0.17303028864E+02 -0.36539278463E+02 -0.43195007814E+01  0.40659215012E+02  0.00000000000E+00 0. -1.
         11    1    3    3    0    0  0.44689810200E+01  0.65722076295E+01  0.12486903762E+02  0.14801637420E+02  0.51100000000E-03 0. -1.
        -11    1    3    3    0    0  0.16381264428E+01 -0.82162749910E+00 -0.13187896927E+01  0.22578167562E+01  0.51100000000E-03 0.  1.
        -12    1    3    3    0    0  0.11195921401E+02  0.30788698332E+02 -0.68486132880E+01  0.33469330812E+02  0.00000000000E+00 0.  1.
</event>
<event>
 7    1  0.2838209E-011  0.5052889E+02  0.7816164E-02  0.1300439E+00
        -11   -1    0    0    0    0  0.00000000000E+00  0.00000000000E+00  0.45593999997E+02  0.45594000000E+02  0.51100000000E-03 0.  1.
         11   -1    0    0    0    0 -0.00000000000E+00 -0.00000000000E+00 -0.45593999997E+02  0.45594000000E+02  0.51100000000E-03 0. -1.
    9900012    2    1    2    0    0 -0.15274883565E+02  0.12920141709E+02  0.35396488241E+02  0.50528886514E+02  0.30000081047E+02 0.  0.
         12    1    1    2    0    0  0.15274883565E+02 -0.12920141709E+02 -0.35396488241E+02  0.40659113486E+02  0.00000000000E+00 0. -1.
         11    1    3    3    0    0 -0.89023902961E+01  0.10718955378E+02  0.26161017579E+02  0.29640300242E+02  0.51100000000E-03 0.  1.
        -11    1    3    3    0    0 -0.11942458540E+02  0.13708195672E+01  0.28107607795E+01  0.12345113960E+02  0.51100000000E-03 0. -1.
         12    1    3    3    0    0  0.55699652707E+01  0.83036676319E+00  0.64247098818E+01  0.85434723119E+01  0.00000000000E+00 0. -1.
</event>
<event>
 7    1  0.2838209E-011  0.5052886E+02  0.7816164E-02  0.1300439E+00
        -11   -1    0    0    0    0  0.00000000000E+00  0.00000000000E+00  0.45593999997E+02  0.45594000000E+02  0.51100000000E-03 0.  1.
         11   -1    0    0    0    0 -0.00000000000E+00 -0.00000000000E+00 -0.45593999997E+02  0.45594000000E+02  0.51100000000E-03 0. -1.
    9900012    2    1    2    0    0 -0.95836471734E+01  0.22574740579E+01  0.39448993928E+02  0.50528860754E+02  0.30000002749E+02 0.  0.
         12    1    1    2    0    0  0.95836471734E+01 -0.22574740579E+01 -0.39448993928E+02  0.40659139246E+02  0.00000000000E+00 0. -1.
         11    1    3    3    0    0  0.14761208127E+01 -0.64988621853E+01  0.46010940226E+00  0.66802577256E+01  0.51100000000E-03 0. -1.
        -11    1    3    3    0    0  0.14416191923E+01  0.15848113355E+01  0.19458907569E+02  0.19576490413E+02  0.51100000000E-03 0.  1.
        -12    1    3    3    0    0 -0.12501387178E+02  0.71715249077E+01  0.19529976957E+02  0.24272112616E+02  0.00000000000E+00 0.  1.
</event>
<event>
 7    1  0.2838209E-011  0.5052889E+02  0.7816164E-02  0.1300439E+00
        -11   -1    0    0    0    0  0.00000000000E+00  0.00000000000E+00  0.45593999997E+02  0.45594000000E+02  0.51100000000E-03 0. -1.
         11   -1    0    0    0    0 -0.00000000000E+00 -0.00000000000E+00 -0.45593999997E+02  0.45594000000E+02  0.51100000000E-03 0.  1.
    9900012    2    1    2    0    0  0.35102550691E+02 -0.17182978897E+02 -0.11212461061E+02  0.50528891404E+02  0.30000095912E+02 0.  0.
         12    1    1    2    0    0 -0.35102550691E+02  0.17182978897E+02  0.11212461061E+02  0.40659108596E+02  0.00000000000E+00 0. -1.
         11    1    3    3    0    0  0.88464429829E+00 -0.69913037056E+01 -0.97246572611E+01  0.12009574603E+02  0.51100000000E-03 0. -1.
        -11    1    3    3    0    0  0.20885262428E+02 -0.37842466726E+01 -0.75566903125E+01  0.22530385667E+02  0.51100000000E-03 0.  1.
         12    1    3    3    0    0  0.13332643965E+02 -0.64074285183E+01  0.60688865127E+01  0.15988931134E+02  0.00000000000E+00 0. -1.
</event>
<event>
 7    1  0.2838209E-011  0.5052887E+02  0.7816164E-02  0.1300439E+00
        -11   -1    0    0    0    0  0.00000000000E+00  0.00000000000E+00  0.45593999997E+02  0.45594000000E+02  0.51100000000E-03 0. -1.
         11   -1    0    0    0    0 -0.00000000000E+00 -0.00000000000E+00 -0.45593999997E+02  0.45594000000E+02  0.51100000000E-03 0.  1.
    9900012    2    1    2    0    0  0.38650296593E+02  0.85558905056E+01 -0.92798873017E+01  0.50528868216E+02  0.30000025430E+02 0.  0.
         12    1    1    2    0    0 -0.38650296593E+02 -0.85558905056E+01  0.92798873017E+01  0.40659131784E+02  0.00000000000E+00 0. -1.
         11    1    3    3    0    0  0.60069189061E+01 -0.40176218323E+01  0.72036707563E+00  0.72624574985E+01  0.51100000000E-03 0. -1.
        -11    1    3    3    0    0  0.14973560585E+02 -0.41805699805E+01 -0.10756508305E+02  0.18904686010E+02  0.51100000000E-03 0.  1.
        -12    1    3    3    0    0  0.17669817102E+02  0.16754082319E+02  0.75625392764E+00  0.24361724708E+02  0.00000000000E+00 0.  1.
</event>
<event>
 7    1  0.2838209E-011  0.5052886E+02  0.7816164E-02  0.1300439E+00
        -11   -1    0    0    0    0  0.00000000000E+00  0.00000000000E+00  0.45593999997E+02  0.45594000000E+02  0.51100000000E-03 0.  1.
         11   -1    0    0    0    0 -0.00000000000E+00 -0.00000000000E+00 -0.45593999997E+02  0.45594000000E+02  0.51100000000E-03 0. -1.
    9900012    2    1    2    0    0  0.10213213596E+02  0.11230675831E+02  0.37719065405E+02  0.50528859495E+02  0.29999998920E+02 0.  0.
         12    1    1    2    0    0 -0.10213213596E+02 -0.11230675831E+02 -0.37719065405E+02  0.40659140505E+02  0.00000000000E+00 0. -1.
         11    1    3    3    0    0  0.40778833372E+01  0.32021510135E+01  0.89272158520E-01  0.51856410795E+01  0.51100000000E-03 0. -1.
        -11    1    3    3    0    0  0.16663880955E+01  0.14475737463E+02  0.13116312861E+02  0.19605139319E+02  0.51100000000E-03 0.  1.
        -12    1    3    3    0    0  0.44689421636E+01 -0.64472126454E+01  0.24513480385E+02  0.25738079096E+02  0.00000000000E+00 0.  1.
</event>
<event>
 7    1  0.2838209E-011  0.5052885E+02  0.7816164E-02  0.1300439E+00
        -11   -1    0    0    0    0  0.00000000000E+00  0.00000000000E+00  0.45593999997E+02  0.45594000000E+02  0.51100000000E-03 0.  1.
         11   -1    0    0    0    0 -0.00000000000E+00 -0.00000000000E+00 -0.45593999997E+02  0.45594000000E+02  0.51100000000E-03 0. -1.
    9900012    2    1    2    0    0 -0.37288381450E+02 -0.11565697664E+02  0.11356824901E+02  0.50528853115E+02  0.29999979528E+02 0.  0.
         12    1    1    2    0    0  0.37288381450E+02  0.11565697664E+02 -0.11356824901E+02  0.40659146885E+02  0.00000000000E+00 0. -1.
         11    1    3    3    0    0 -0.26971402741E+02 -0.84281733207E+01  0.73226926405E+01  0.29190966053E+02  0.51100000000E-03 0.  1.
        -11    1    3    3    0    0 -0.13923449774E+02  0.22838245338E+01  0.45004192272E+01  0.14809864334E+02  0.51100000000E-03 0. -1.
         12    1    3    3    0    0  0.36064710655E+01 -0.54213488773E+01 -0.46628696650E+00  0.65280227275E+01  0.00000000000E+00 0. -1.
</event>
<event>
 7    1  0.2838209E-011  0.5052886E+02  0.7816164E-02  0.1300439E+00
        -11   -1    0    0    0    0  0.00000000000E+00  0.00000000000E+00  0.45593999997E+02  0.45594000000E+02  0.51100000000E-03 0.  1.
         11   -1    0    0    0    0 -0.00000000000E+00 -0.00000000000E+00 -0.45593999997E+02  0.45594000000E+02  0.51100000000E-03 0. -1.
    9900012    2    1    2    0    0  0.36614075598E+02  0.15730730159E+02  0.80696297739E+01  0.50528864152E+02  0.30000013077E+02 0.  0.
         12    1    1    2    0    0 -0.36614075598E+02 -0.15730730159E+02 -0.80696297739E+01  0.40659135848E+02  0.00000000000E+00 0. -1.
         11    1    3    3    0    0 -0.17406136925E+01 -0.21712019560E+01 -0.59342049548E+00  0.28453474491E+01  0.51100000000E-03 0. -1.
        -11    1    3    3    0    0  0.32903012653E+01 -0.15023564756E+01  0.66349479216E+01  0.75568307894E+01  0.51100000000E-03 0.  1.
        -12    1    3    3    0    0  0.35064388025E+02  0.19404288591E+02  0.20281023478E+01  0.40126685914E+02  0.00000000000E+00 0.  1.
</event>
<event>
 7    1  0.2838209E-011  0.5052886E+02  0.7816164E-02  0.1300439E+00
        -11   -1    0    0    0    0  0.00000000000E+00  0.00000000000E+00  0.45593999997E+02  0.45594000000E+02  0.51100000000E-03 0.  1.
         11   -1    0    0    0    0 -0.00000000000E+00 -0.00000000000E+00 -0.45593999997E+02  0.45594000000E+02  0.51100000000E-03 0. -1.
    9900012    2    1    2    0    0  0.66434730949E+01  0.12323612507E+02  0.38172742650E+02  0.50528862756E+02  0.30000008834E+02 0.  0.
         12    1    1    2    0    0 -0.66434730949E+01 -0.12323612507E+02 -0.38172742650E+02  0.40659137244E+02  0.00000000000E+00 0. -1.
         11    1    3    3    0    0  0.13627705634E+02  0.14005764760E+02  0.25047780159E+02  0.31768964392E+02  0.51100000000E-03 0. -1.
        -11    1    3    3    0    0  0.27906862187E+01  0.13263611233E+01  0.39927173842E+01  0.50486588092E+01  0.51100000000E-03 0.  1.
        -12    1    3    3    0    0 -0.97749187576E+01 -0.30085133770E+01  0.91322451067E+01  0.13711239555E+02  0.00000000000E+00 0.  1.
</event>
<event>
 7    1  0.2838209E-011  0.5052886E+02  0.7816164E-02  0.1300439E+00
        -11   -1    0    0    0    0  0.00000000000E+00  0.00000000000E+00  0.45593999997E+02  0.45594000000E+02  0.51100000000E-03 0.  1.
         11   -1    0    0    0    0 -0.00000000000E+00 -0.00000000000E+00 -0.45593999997E+02  0.45594000000E+02  0.51100000000E-03 0. -1.
    9900012    2    1    2    0    0  0.83913158262E+01 -0.37335848878E+02  0.13739943282E+02  0.50528857927E+02  0.29999994155E+02 0.  0.
         12    1    1    2    0    0 -0.83913158262E+01  0.37335848878E+02 -0.13739943282E+02  0.40659142073E+02  0.00000000000E+00 0. -1.
         11    1    3    3    0    0  0.60792874803E+01 -0.14510293251E+01  0.32771866752E+01  0.70571364686E+01  0.51100000000E-03 0. -1.
        -11    1    3    3    0    0  0.78846772508E+01 -0.21414959425E+02 -0.28980518531E+01  0.23003637263E+02  0.51100000000E-03 0.  1.
        -12    1    3    3    0    0 -0.55726489050E+01 -0.14469860127E+02  0.13360808460E+02  0.20468084195E+02  0.00000000000E+00 0.  1.
</event>
<event>
 7    1  0.2838209E-011  0.5052886E+02  0.7816164E-02  0.1300439E+00
        -11   -1    0    0    0    0  0.00000000000E+00  0.00000000000E+00  0.45593999997E+02  0.45594000000E+02  0.51100000000E-03 0.  1.
         11   -1    0    0    0    0 -0.00000000000E+00 -0.00000000000E+00 -0.45593999997E+02  0.45594000000E+02  0.51100000000E-03 0. -1.
    9900012    2    1    2    0    0  0.14512184475E+01 -0.16508022762E+02  0.37128764488E+02  0.50528855851E+02  0.29999987845E+02 0.  0.
         12    1    1    2    0    0 -0.14512184475E+01  0.16508022762E+02 -0.37128764488E+02  0.40659144149E+02  0.00000000000E+00 0. -1.
         11    1    3    3    0    0 -0.36947074864E+00 -0.62845133597E+01 -0.22024971840E+01  0.66695285372E+01  0.51100000000E-03 0. -1.
        -11    1    3    3    0    0 -0.58427814585E+01 -0.10185965776E+02  0.24125644331E+02  0.26831673608E+02  0.51100000000E-03 0.  1.
         12    1    3    3    0    0  0.76634706546E+01 -0.37543626599E-01  0.15205617341E+02  0.17027653705E+02  0.00000000000E+00 0. -1.
</event>
<event>
 7    1  0.2838209E-011  0.5052884E+02  0.7816164E-02  0.1300439E+00
        -11   -1    0    0    0    0  0.00000000000E+00  0.00000000000E+00  0.45593999997E+02  0.45594000000E+02  0.51100000000E-03 0. -1.
         11   -1    0    0    0    0 -0.00000000000E+00 -0.00000000000E+00 -0.45593999997E+02  0.45594000000E+02  0.51100000000E-03 0.  1.
    9900012    2    1    2    0    0 -0.39917815218E+02  0.37827869704E+01 -0.67398762786E+01  0.50528838901E+02  0.29999936322E+02 0.  0.
         12    1    1    2    0    0  0.39917815218E+02 -0.37827869704E+01  0.67398762786E+01  0.40659161099E+02  0.00000000000E+00 0. -1.
         11    1    3    3    0    0 -0.62325526539E+01  0.91332496391E+01 -0.76798808077E+01  0.13462597485E+02  0.51100000000E-03 0.  1.
        -11    1    3    3    0    0  0.13868976669E+01 -0.77517843193E-02  0.77567670623E+00  0.15890940319E+01  0.51100000000E-03 0. -1.
         12    1    3    3    0    0 -0.35072160231E+02 -0.53427108844E+01  0.16432782287E+00  0.35477147384E+02  0.00000000000E+00 0. -1.
</event>
<event>
 7    1  0.2838209E-011  0.5052886E+02  0.7816164E-02  0.1300439E+00
        -11   -1    0    0    0    0  0.00000000000E+00  0.00000000000E+00  0.45593999997E+02  0.45594000000E+02  0.51100000000E-03 0. -1.
         11   -1    0    0    0    0 -0.00000000000E+00 -0.00000000000E+00 -0.45593999997E+02  0.45594000000E+02  0.51100000000E-03 0.  1.
    9900012    2    1    2    0    0 -0.22443609266E+02  0.63068436432E+01 -0.33311766450E+02  0.50528860097E+02  0.30000000752E+02 0.  0.
         12    1    1    2    0    0  0.22443609266E+02 -0.63068436432E+01  0.33311766450E+02  0.40659139903E+02  0.00000000000E+00 0. -1.
         11    1    3    3    0    0 -0.64230754712E+01  0.24554692762E+01 -0.49913278461E+01  0.84969748619E+01  0.51100000000E-03 0. -1.
        -11    1    3    3    0    0 -0.11051846965E+02  0.12770244202E+02 -0.26846077934E+02  0.31716468262E+02  0.51100000000E-03 0.  1.
         12    1    3    3    0    0 -0.49686868294E+01 -0.89188698354E+01 -0.14743606699E+01  0.10315416973E+02  0.00000000000E+00 0. -1.
</event>
<event>
 7    1  0.2838209E-011  0.5052886E+02  0.7816164E-02  0.1300439E+00
        -11   -1    0    0    0    0  0.00000000000E+00  0.00000000000E+00  0.45593999997E+02  0.45594000000E+02  0.51100000000E-03 0.  1.
         11   -1    0    0    0    0 -0.00000000000E+00 -0.00000000000E+00 -0.45593999997E+02  0.45594000000E+02  0.51100000000E-03 0. -1.
    9900012    2    1    2    0    0 -0.24200065923E+02  0.65278120224E+01  0.32014222520E+02  0.50528856329E+02  0.29999989298E+02 0.  0.
         12    1    1    2    0    0  0.24200065923E+02 -0.65278120224E+01 -0.32014222520E+02  0.40659143671E+02  0.00000000000E+00 0. -1.
         11    1    3    3    0    0 -0.96946938078E+01  0.24599548953E+01  0.18550293153E+02  0.21074910259E+02  0.51100000000E-03 0. -1.
        -11    1    3    3    0    0 -0.58401236222E+01  0.15432028186E+01  0.18260030109E+02  0.19233232144E+02  0.51100000000E-03 0.  1.
         12    1    3    3    0    0 -0.86652484933E+01  0.25246543085E+01 -0.47961007421E+01  0.10220713926E+02  0.00000000000E+00 0. -1.
</event>
<event>
 7    1  0.2838209E-011  0.5052888E+02  0.7816164E-02  0.1300439E+00
        -11   -1    0    0    0    0  0.00000000000E+00  0.00000000000E+00  0.45593999997E+02  0.45594000000E+02  0.51100000000E-03 0.  1.
         11   -1    0    0    0    0 -0.00000000000E+00 -0.00000000000E+00 -0.45593999997E+02  0.45594000000E+02  0.51100000000E-03 0. -1.
    9900012    2    1    2    0    0 -0.28142475023E+02 -0.19708279799E+02  0.21742789581E+02  0.50528879353E+02  0.30000059280E+02 0.  0.
         12    1    1    2    0    0  0.28142475023E+02  0.19708279799E+02 -0.21742789581E+02  0.40659120647E+02  0.00000000000E+00 0. -1.
         11    1    3    3    0    0 -0.65039156064E+01 -0.10571796153E+02 -0.20340984493E+01  0.12577811768E+02  0.51100000000E-03 0. -1.
        -11    1    3    3    0    0 -0.17628296274E+02 -0.13396110803E+02  0.12963923094E+02  0.25656888284E+02  0.51100000000E-03 0.  1.
         12    1    3    3    0    0 -0.40102631429E+01  0.42596271562E+01  0.10812964935E+02  0.12294179301E+02  0.00000000000E+00 0. -1.
</event>
<event>
 7    1  0.2838209E-011  0.5052886E+02  0.7816164E-02  0.1300439E+00
        -11   -1    0    0    0    0  0.00000000000E+00  0.00000000000E+00  0.45593999997E+02  0.45594000000E+02  0.51100000000E-03 0. -1.
         11   -1    0    0    0    0 -0.00000000000E+00 -0.00000000000E+00 -0.45593999997E+02  0.45594000000E+02  0.51100000000E-03 0.  1.
    9900012    2    1    2    0    0 -0.18128381831E+02  0.35014149953E+02  0.99265533065E+01  0.50528863446E+02  0.30000010931E+02 0.  0.
         12    1    1    2    0    0  0.18128381831E+02 -0.35014149953E+02 -0.99265533065E+01  0.40659136554E+02  0.00000000000E+00 0. -1.
         11    1    3    3    0    0 -0.14665372663E+01  0.49776678692E+01  0.63521473660E+00  0.52279448154E+01  0.51100000000E-03 0. -1.
        -11    1    3    3    0    0 -0.19760465684E+02  0.23520915055E+02  0.16694921075E+02  0.34963264136E+02  0.51100000000E-03 0.  1.
         12    1    3    3    0    0  0.30986211189E+01  0.65155670288E+01 -0.74035825050E+01  0.10337654495E+02  0.00000000000E+00 0. -1.
</event>
<event>
 7    1  0.2838209E-011  0.5052886E+02  0.7816164E-02  0.1300439E+00
        -11   -1    0    0    0    0  0.00000000000E+00  0.00000000000E+00  0.45593999997E+02  0.45594000000E+02  0.51100000000E-03 0.  1.
         11   -1    0    0    0    0 -0.00000000000E+00 -0.00000000000E+00 -0.45593999997E+02  0.45594000000E+02  0.51100000000E-03 0. -1.
    9900012    2    1    2    0    0 -0.26943004431E+02  0.25885837197E+01  0.30340396553E+02  0.50528856915E+02  0.29999991079E+02 0.  0.
         12    1    1    2    0    0  0.26943004431E+02 -0.25885837197E+01 -0.30340396553E+02  0.40659143085E+02  0.00000000000E+00 0. -1.
         11    1    3    3    0    0 -0.10016962666E+02  0.89257122461E+01  0.15549275058E+02  0.20537473925E+02  0.51100000000E-03 0. -1.
        -11    1    3    3    0    0 -0.19005183769E-01 -0.19608315018E+01  0.12175447365E+02  0.12332345283E+02  0.51100000000E-03 0.  1.
         12    1    3    3    0    0 -0.16907036581E+02 -0.43762970246E+01  0.26156741304E+01  0.17659037707E+02  0.00000000000E+00 0. -1.
</event>
<event>
 7    1  0.2838209E-011  0.5052886E+02  0.7816164E-02  0.1300439E+00
        -11   -1    0    0    0    0  0.00000000000E+00  0.00000000000E+00  0.45593999997E+02  0.45594000000E+02  0.51100000000E-03 0.  1.
         11   -1    0    0    0    0 -0.00000000000E+00 -0.00000000000E+00 -0.45593999997E+02  0.45594000000E+02  0.51100000000E-03 0. -1.
    9900012    2    1    2    0    0  0.23409608821E+02  0.23912692742E+02  0.23094138000E+02  0.50528857495E+02  0.29999992841E+02 0.  0.
         12    1    1    2    0    0 -0.23409608821E+02 -0.23912692742E+02 -0.23094138000E+02  0.40659142505E+02  0.00000000000E+00 0. -1.
         11    1    3    3    0    0  0.59850342823E+01 -0.15212670264E+01  0.22301493487E+00  0.61793708942E+01  0.51100000000E-03 0. -1.
        -11    1    3    3    0    0  0.17850132044E+02  0.66376344086E+01  0.13488410658E+02  0.23337151216E+02  0.51100000000E-03 0.  1.
         12    1    3    3    0    0 -0.42555750522E+00  0.18796325359E+02  0.93827124071E+01  0.21012335385E+02  0.00000000000E+00 0. -1.
</event>
<event>
 7    1  0.2838209E-011  0.5052886E+02  0.7816164E-02  0.1300439E+00
        -11   -1    0    0    0    0  0.00000000000E+00  0.00000000000E+00  0.45593999997E+02  0.45594000000E+02  0.51100000000E-03 0. -1.
         11   -1    0    0    0    0 -0.00000000000E+00 -0.00000000000E+00 -0.45593999997E+02  0.45594000000E+02  0.51100000000E-03 0.  1.
    9900012    2    1    2    0    0  0.19321081045E+02 -0.30854528784E+02  0.18106900485E+02  0.50528856325E+02  0.29999989285E+02 0.  0.
         12    1    1    2    0    0 -0.19321081045E+02  0.30854528784E+02 -0.18106900485E+02  0.40659143675E+02  0.00000000000E+00 0. -1.
         11    1    3    3    0    0 -0.49656009143E+01 -0.44882145826E+01 -0.19987039753E+00  0.66963580413E+01  0.51100000000E-03 0. -1.
        -11    1    3    3    0    0  0.10473938823E+00 -0.95701755870E+01  0.86138347057E+00  0.96094335343E+01  0.51100000000E-03 0.  1.
        -12    1    3    3    0    0  0.24181942571E+02 -0.16796138614E+02  0.17445387412E+02  0.34223064749E+02  0.00000000000E+00 0.  1.
</event>
<event>
 7    1  0.2838209E-011  0.5052886E+02  0.7816164E-02  0.1300439E+00
        -11   -1    0    0    0    0  0.00000000000E+00  0.00000000000E+00  0.45593999997E+02  0.45594000000E+02  0.51100000000E-03 0. -1.
         11   -1    0    0    0    0 -0.00000000000E+00 -0.00000000000E+00 -0.45593999997E+02  0.45594000000E+02  0.51100000000E-03 0.  1.
    9900012    2    1    2    0    0  0.28295570889E+02 -0.16421419195E+01 -0.29151839540E+02  0.50528859446E+02  0.29999998771E+02 0.  0.
         12    1    1    2    0    0 -0.28295570889E+02  0.16421419195E+01  0.29151839540E+02  0.40659140554E+02  0.00000000000E+00 0. -1.
         11    1    3    3    0    0  0.50389149597E+01 -0.16149070734E+01 -0.13542194069E+02  0.14539243767E+02  0.51100000000E-03 0. -1.
        -11    1    3    3    0    0  0.17893670199E+02  0.59614251034E+01 -0.19439132999E+02  0.27085086569E+02  0.51100000000E-03 0.  1.
        -12    1    3    3    0    0  0.53629857307E+01 -0.59886599494E+01  0.38294875285E+01  0.89045291099E+01  0.00000000000E+00 0.  1.
</event>
<event>
 7    1  0.2838209E-011  0.5052885E+02  0.7816164E-02  0.1300439E+00
        -11   -1    0    0    0    0  0.00000000000E+00  0.00000000000E+00  0.45593999997E+02  0.45594000000E+02  0.51100000000E-03 0.  1.
         11   -1    0    0    0    0 -0.00000000000E+00 -0.00000000000E+00 -0.45593999997E+02  0.45594000000E+02  0.51100000000E-03 0. -1.
    9900012    2    1    2    0    0  0.12521294453E+02 -0.58173030887E+01  0.38243208284E+02  0.50528845928E+02  0.29999957683E+02 0.  0.
         12    1    1    2    0    0 -0.12521294453E+02  0.58173030887E+01 -0.38243208284E+02  0.40659154072E+02  0.00000000000E+00 0. -1.
         11    1    3    3    0    0  0.27305483804E+01  0.73671364180E+01  0.60323278418E+01  0.99055324396E+01  0.51100000000E-03 0. -1.
        -11    1    3    3    0    0  0.50552994850E+01 -0.46155892448E+01  0.29751481804E+02  0.30528845159E+02  0.51100000000E-03 0.  1.
         12    1    3    3    0    0  0.47354465871E+01 -0.85688502619E+01  0.24593986379E+01  0.10094468329E+02  0.00000000000E+00 0. -1.
</event>
<event>
 7    1  0.2838209E-011  0.5052887E+02  0.7816164E-02  0.1300439E+00
        -11   -1    0    0    0    0  0.00000000000E+00  0.00000000000E+00  0.45593999997E+02  0.45594000000E+02  0.51100000000E-03 0.  1.
         11   -1    0    0    0    0 -0.00000000000E+00 -0.00000000000E+00 -0.45593999997E+02  0.45594000000E+02  0.51100000000E-03 0. -1.
    9900012    2    1    2    0    0 -0.39953173971E+02  0.31011195974E+01 -0.68769304698E+01  0.50528865407E+02  0.30000016892E+02 0.  0.
         12    1    1    2    0    0  0.39953173971E+02 -0.31011195974E+01  0.68769304698E+01  0.40659134593E+02  0.00000000000E+00 0. -1.
         11    1    3    3    0    0 -0.69186828285E+01 -0.62620271234E+01 -0.62964256702E+01  0.11257270196E+02  0.51100000000E-03 0. -1.
        -11    1    3    3    0    0 -0.15317143090E+01 -0.32336307129E+01 -0.37656641496E+01  0.51944916075E+01  0.51100000000E-03 0.  1.
        -12    1    3    3    0    0 -0.31502776834E+02  0.12596777434E+02  0.31851593499E+01  0.34077103604E+02  0.00000000000E+00 0.  1.
</event>
<event>
 7    1  0.2838209E-011  0.5052885E+02  0.7816164E-02  0.1300439E+00
        -11   -1    0    0    0    0  0.00000000000E+00  0.00000000000E+00  0.45593999997E+02  0.45594000000E+02  0.51100000000E-03 0.  1.
         11   -1    0    0    0    0 -0.00000000000E+00 -0.00000000000E+00 -0.45593999997E+02  0.45594000000E+02  0.51100000000E-03 0. -1.
    9900012    2    1    2    0    0 -0.11031632796E+01 -0.37163613891E+02  0.16456463298E+02  0.50528851572E+02  0.29999974838E+02 0.  0.
         12    1    1    2    0    0  0.11031632796E+01  0.37163613891E+02 -0.16456463298E+02  0.40659148428E+02  0.00000000000E+00 0. -1.
         11    1    3    3    0    0 -0.57862116201E+00  0.32683328487E+01 -0.13520803952E+01  0.35839815450E+01  0.51100000000E-03 0. -1.
        -11    1    3    3    0    0 -0.47770381474E+01 -0.11374144148E+02  0.11588942386E+02  0.16926158290E+02  0.51100000000E-03 0.  1.
         12    1    3    3    0    0  0.42524960298E+01 -0.29057802592E+02  0.62196013067E+01  0.30018711737E+02  0.00000000000E+00 0. -1.
</event>
<event>
 7    1  0.2838209E-011  0.5052885E+02  0.7816164E-02  0.1300439E+00
        -11   -1    0    0    0    0  0.00000000000E+00  0.00000000000E+00  0.45593999997E+02  0.45594000000E+02  0.51100000000E-03 0.  1.
         11   -1    0    0    0    0 -0.00000000000E+00 -0.00000000000E+00 -0.45593999997E+02  0.45594000000E+02  0.51100000000E-03 0. -1.
    9900012    2    1    2    0    0  0.22434438295E+02 -0.24880976224E+02 -0.23039077528E+02  0.50528854746E+02  0.29999984486E+02 0.  0.
         12    1    1    2    0    0 -0.22434438295E+02  0.24880976224E+02  0.23039077528E+02  0.40659145254E+02  0.00000000000E+00 0. -1.
         11    1    3    3    0    0  0.98229430571E+01 -0.11024195870E+02  0.21643192152E+01  0.14923383759E+02  0.51100000000E-03 0. -1.
        -11    1    3    3    0    0 -0.75103636979E-01 -0.56517757369E+00  0.23883689352E+01  0.24554780955E+01  0.51100000000E-03 0.  1.
         12    1    3    3    0    0  0.12686598875E+02 -0.13291602781E+02 -0.27591765678E+02  0.33149992892E+02  0.00000000000E+00 0. -1.
</event>
<event>
 7    1  0.2838209E-011  0.5052887E+02  0.7816164E-02  0.1300439E+00
        -11   -1    0    0    0    0  0.00000000000E+00  0.00000000000E+00  0.45593999997E+02  0.45594000000E+02  0.51100000000E-03 0.  1.
         11   -1    0    0    0    0 -0.00000000000E+00 -0.00000000000E+00 -0.45593999997E+02  0.45594000000E+02  0.51100000000E-03 0. -1.
    9900012    2    1    2    0    0  0.45831162806E+01  0.30889483301E+02 -0.26038428559E+02  0.50528869472E+02  0.30000029248E+02 0.  0.
         12    1    1    2    0    0 -0.45831162806E+01 -0.30889483301E+02  0.26038428559E+02  0.40659130528E+02  0.00000000000E+00 0. -1.
         11    1    3    3    0    0 -0.30878899160E+01 -0.31415086305E+01  0.82452304789E+00  0.44815152713E+01  0.51100000000E-03 0. -1.
        -11    1    3    3    0    0 -0.86926768169E-01  0.61215920007E+01  0.57347934479E+00  0.61490099777E+01  0.51100000000E-03 0.  1.
         12    1    3    3    0    0  0.77579329648E+01  0.27909399931E+02 -0.27436430951E+02  0.39898344223E+02  0.00000000000E+00 0. -1.
</event>
<event>
 7    1  0.2838209E-011  0.5052885E+02  0.7816164E-02  0.1300439E+00
        -11   -1    0    0    0    0  0.00000000000E+00  0.00000000000E+00  0.45593999997E+02  0.45594000000E+02  0.51100000000E-03 0. -1.
         11   -1    0    0    0    0 -0.00000000000E+00 -0.00000000000E+00 -0.45593999997E+02  0.45594000000E+02  0.51100000000E-03 0.  1.
    9900012    2    1    2    0    0 -0.37007186265E+02 -0.13768434678E+02  0.96986949619E+01  0.50528852042E+02  0.29999976266E+02 0.  0.
         12    1    1    2    0    0  0.37007186265E+02  0.13768434678E+02 -0.96986949619E+01  0.40659147958E+02  0.00000000000E+00 0. -1.
         11    1    3    3    0    0  0.40995183811E+01 -0.37443420347E+01 -0.24307224130E+01  0.60609042180E+01  0.51100000000E-03 0. -1.
        -11    1    3    3    0    0 -0.77517711398E+01 -0.45270087722E+01  0.25427127062E+01  0.93300135259E+01  0.51100000000E-03 0.  1.
        -12    1    3    3    0    0 -0.33354933506E+02 -0.54970838713E+01  0.95867046687E+01  0.35137934298E+02  0.00000000000E+00 0.  1.
</event>
<event>
 7    1  0.2838209E-011  0.5052888E+02  0.7816164E-02  0.1300439E+00
        -11   -1    0    0    0    0  0.00000000000E+00  0.00000000000E+00  0.45593999997E+02  0.45594000000E+02  0.51100000000E-03 0.  1.
         11   -1    0    0    0    0 -0.00000000000E+00 -0.00000000000E+00 -0.45593999997E+02  0.45594000000E+02  0.51100000000E-03 0. -1.
    9900012    2    1    2    0    0  0.28222026556E+02 -0.87022283831E+01  0.27945534101E+02  0.50528875096E+02  0.30000046341E+02 0.  0.
         12    1    1    2    0    0 -0.28222026556E+02  0.87022283831E+01 -0.27945534101E+02  0.40659124904E+02  0.00000000000E+00 0. -1.
         11    1    3    3    0    0  0.57084061220E+01 -0.41545767689E+01 -0.56077983342E+00  0.70824348120E+01  0.51100000000E-03 0. -1.
        -11    1    3    3    0    0  0.44901359796E+01  0.42212169831E+01 -0.23968057465E+01  0.66124633822E+01  0.51100000000E-03 0.  1.
         12    1    3    3    0    0  0.18023484455E+02 -0.87688685973E+01  0.30903119681E+02  0.36833976902E+02  0.00000000000E+00 0. -1.
</event>
<event>
 7    1  0.2838209E-011  0.5052881E+02  0.7816164E-02  0.1300439E+00
        -11   -1    0    0    0    0  0.00000000000E+00  0.00000000000E+00  0.45593999997E+02  0.45594000000E+02  0.51100000000E-03 0. -1.
         11   -1    0    0    0    0 -0.00000000000E+00 -0.00000000000E+00 -0.45593999997E+02  0.45594000000E+02  0.51100000000E-03 0.  1.
    9900012    2    1    2    0    0  0.37281171327E+02  0.15707175186E+02 -0.40704424060E+01  0.50528811749E+02  0.29999853792E+02 0.  0.
         12    1    1    2    0    0 -0.37281171327E+02 -0.15707175186E+02  0.40704424060E+01  0.40659188251E+02  0.00000000000E+00 0. -1.
         11    1    3    3    0    0  0.12266327033E+02 -0.15635067900E+01  0.25707196028E+01  0.12629961675E+02  0.51100000000E-03 0. -1.
        -11    1    3    3    0    0  0.10826592695E+02  0.69070884225E+01  0.79123555102E+01  0.15084042888E+02  0.51100000000E-03 0.  1.
        -12    1    3    3    0    0  0.14188251599E+02  0.10363593553E+02 -0.14553517519E+02  0.22814807187E+02  0.00000000000E+00 0.  1.
</event>
<event>
 7    1  0.2838209E-011  0.5052886E+02  0.7816164E-02  0.1300439E+00
        -11   -1    0    0    0    0  0.00000000000E+00  0.00000000000E+00  0.45593999997E+02  0.45594000000E+02  0.51100000000E-03 0. -1.
         11   -1    0    0    0    0 -0.00000000000E+00 -0.00000000000E+00 -0.45593999997E+02  0.45594000000E+02  0.51100000000E-03 0.  1.
    9900012    2    1    2    0    0 -0.22617309257E+02 -0.30382869997E+02 -0.14781896582E+02  0.50528856700E+02  0.29999990426E+02 0.  0.
         12    1    1    2    0    0  0.22617309257E+02  0.30382869997E+02  0.14781896582E+02  0.40659143300E+02  0.00000000000E+00 0. -1.
         11    1    3    3    0    0 -0.14250112071E+02 -0.19520960940E+02 -0.13473700971E+02  0.27670819073E+02  0.51100000000E-03 0. -1.
        -11    1    3    3    0    0 -0.13621135331E+02 -0.10476394972E+02 -0.27347052384E+01  0.17400252650E+02  0.51100000000E-03 0.  1.
         12    1    3    3    0    0  0.52539381442E+01 -0.38551408536E+00  0.14265096280E+01  0.54577849767E+01  0.00000000000E+00 0. -1.
</event>
<event>
 7    1  0.2838209E-011  0.5052885E+02  0.7816164E-02  0.1300439E+00
        -11   -1    0    0    0    0  0.00000000000E+00  0.00000000000E+00  0.45593999997E+02  0.45594000000E+02  0.51100000000E-03 0.  1.
         11   -1    0    0    0    0 -0.00000000000E+00 -0.00000000000E+00 -0.45593999997E+02  0.45594000000E+02  0.51100000000E-03 0. -1.
    9900012    2    1    2    0    0  0.24387057572E+02  0.23928060332E+02  0.22042809746E+02  0.50528854537E+02  0.29999983851E+02 0.  0.
         12    1    1    2    0    0 -0.24387057572E+02 -0.23928060332E+02 -0.22042809746E+02  0.40659145463E+02  0.00000000000E+00 0. -1.
         11    1    3    3    0    0  0.32524511768E+01  0.17612438046E+02  0.76353568164E+01  0.19469850707E+02  0.51100000000E-03 0. -1.
        -11    1    3    3    0    0  0.47510029949E+01  0.92718681027E+01  0.83201488299E+01  0.13332833322E+02  0.51100000000E-03 0.  1.
         12    1    3    3    0    0  0.16383603400E+02 -0.29562458162E+01  0.60873040997E+01  0.17726170509E+02  0.00000000000E+00 0. -1.
</event>
<event>
 7    1  0.2838209E-011  0.5052885E+02  0.7816164E-02  0.1300439E+00
        -11   -1    0    0    0    0  0.00000000000E+00  0.00000000000E+00  0.45593999997E+02  0.45594000000E+02  0.51100000000E-03 0.  1.
         11   -1    0    0    0    0 -0.00000000000E+00 -0.00000000000E+00 -0.45593999997E+02  0.45594000000E+02  0.51100000000E-03 0. -1.
    9900012    2    1    2    0    0 -0.15605800659E+02  0.17602718404E+02  0.33162781966E+02  0.50528845838E+02  0.29999957410E+02 0.  0.
         12    1    1    2    0    0  0.15605800659E+02 -0.17602718404E+02 -0.33162781966E+02  0.40659154162E+02  0.00000000000E+00 0. -1.
         11    1    3    3    0    0  0.14377616804E+01  0.19135997183E+01 -0.22680824893E+01  0.32974567428E+01  0.51100000000E-03 0. -1.
        -11    1    3    3    0    0 -0.19451499037E+01  0.11908269327E+02  0.50196571347E+01  0.13068567042E+02  0.51100000000E-03 0.  1.
         12    1    3    3    0    0 -0.15098412436E+02  0.37808493585E+01  0.30411207321E+02  0.34162822053E+02  0.00000000000E+00 0. -1.
</event>
<event>
 7    1  0.2838209E-011  0.5052887E+02  0.7816164E-02  0.1300439E+00
        -11   -1    0    0    0    0  0.00000000000E+00  0.00000000000E+00  0.45593999997E+02  0.45594000000E+02  0.51100000000E-03 0. -1.
         11   -1    0    0    0    0 -0.00000000000E+00 -0.00000000000E+00 -0.45593999997E+02  0.45594000000E+02  0.51100000000E-03 0.  1.
    9900012    2    1    2    0    0 -0.88575048186E+01  0.64916567519E+01 -0.39148026142E+02  0.50528868801E+02  0.30000027208E+02 0.  0.
         12    1    1    2    0    0  0.88575048186E+01 -0.64916567519E+01  0.39148026142E+02  0.40659131199E+02  0.00000000000E+00 0. -1.
         11    1    3    3    0    0 -0.10536636435E+02  0.34780664701E+01 -0.51187874554E+01  0.12219641526E+02  0.51100000000E-03 0. -1.
        -11    1    3    3    0    0 -0.35651488786E+01  0.87099120522E+01 -0.22832684808E+02  0.24696241623E+02  0.51100000000E-03 0.  1.
        -12    1    3    3    0    0  0.52442804953E+01 -0.56963217704E+01 -0.11196553879E+02  0.13612985653E+02  0.00000000000E+00 0.  1.
</event>
<event>
 7    1  0.3533993E-011  0.5052886E+02  0.7816164E-02  0.1300439E+00
        -11   -1    0    0    0    0  0.00000000000E+00  0.00000000000E+00  0.45593999997E+02  0.45594000000E+02  0.51100000000E-03 0. -1.
         11   -1    0    0    0    0 -0.00000000000E+00 -0.00000000000E+00 -0.45593999997E+02  0.45594000000E+02  0.51100000000E-03 0.  1.
    9900012    2    1    2    0    0  0.76701241837E+01  0.38511342537E+02 -0.10545675463E+02  0.50528861052E+02  0.30000003654E+02 0.  0.
         12    1    1    2    0    0 -0.76701241837E+01 -0.38511342537E+02  0.10545675463E+02  0.40659138948E+02  0.00000000000E+00 0. -1.
         11    1    3    3    0    0 -0.65935523945E+01  0.26245053682E+01  0.81000899758E+00  0.71427639219E+01  0.51100000000E-03 0. -1.
        -11    1    3    3    0    0  0.96372439498E+01  0.70684883637E+01  0.30549269091E+00  0.11955472585E+02  0.51100000000E-03 0.  1.
        -12    1    3    3    0    0  0.46264326284E+01  0.28818348805E+02 -0.11661177152E+02  0.31430624545E+02  0.00000000000E+00 0.  1.
</event>
<event>
 7    1  0.2838209E-011  0.5052886E+02  0.7816164E-02  0.1300439E+00
        -11   -1    0    0    0    0  0.00000000000E+00  0.00000000000E+00  0.45593999997E+02  0.45594000000E+02  0.51100000000E-03 0. -1.
         11   -1    0    0    0    0 -0.00000000000E+00 -0.00000000000E+00 -0.45593999997E+02  0.45594000000E+02  0.51100000000E-03 0.  1.
    9900012    2    1    2    0    0 -0.16650842082E+02 -0.19941212809E+02 -0.31277204538E+02  0.50528855468E+02  0.29999986681E+02 0.  0.
         12    1    1    2    0    0  0.16650842082E+02  0.19941212809E+02  0.31277204538E+02  0.40659144532E+02  0.00000000000E+00 0. -1.
         11    1    3    3    0    0 -0.21494158187E+02 -0.14454788382E+02 -0.19915430505E+02  0.32673599676E+02  0.51100000000E-03 0. -1.
        -11    1    3    3    0    0 -0.21626797206E+01 -0.61594454475E+01 -0.70166064662E+01  0.95837737012E+01  0.51100000000E-03 0.  1.
        -12    1    3    3    0    0  0.70059958253E+01  0.67302102006E+00 -0.43451675668E+01  0.82714820909E+01  0.00000000000E+00 0.  1.
</event>
<event>
 7    1  0.2838209E-011  0.5052886E+02  0.7816164E-02  0.1300439E+00
        -11   -1    0    0    0    0  0.00000000000E+00  0.00000000000E+00  0.45593999997E+02  0.45594000000E+02  0.51100000000E-03 0.  1.
         11   -1    0    0    0    0 -0.00000000000E+00 -0.00000000000E+00 -0.45593999997E+02  0.45594000000E+02  0.51100000000E-03 0. -1.
    9900012    2    1    2    0    0  0.23370798592E+02  0.18048860446E+02  0.27950133398E+02  0.50528861455E+02  0.30000004880E+02 0.  0.
         12    1    1    2    0    0 -0.23370798592E+02 -0.18048860446E+02 -0.27950133398E+02  0.40659138545E+02  0.00000000000E+00 0. -1.
         11    1    3    3    0    0  0.16295569687E+02  0.90633781639E+01  0.23537951843E+02  0.30028746101E+02  0.51100000000E-03 0.  1.
        -11    1    3    3    0    0 -0.35612456831E+01  0.22108367850E+01  0.64834189171E+01  0.77204268807E+01  0.51100000000E-03 0. -1.
         12    1    3    3    0    0  0.10636474588E+02  0.67746454967E+01 -0.20712373624E+01  0.12779688473E+02  0.00000000000E+00 0. -1.
</event>
<event>
 7    1  0.2838209E-011  0.5052887E+02  0.7816164E-02  0.1300439E+00
        -11   -1    0    0    0    0  0.00000000000E+00  0.00000000000E+00  0.45593999997E+02  0.45594000000E+02  0.51100000000E-03 0.  1.
         11   -1    0    0    0    0 -0.00000000000E+00 -0.00000000000E+00 -0.45593999997E+02  0.45594000000E+02  0.51100000000E-03 0. -1.
    9900012    2    1    2    0    0  0.19389393535E+02  0.20336497140E+02  0.29387807147E+02  0.50528869334E+02  0.30000028829E+02 0.  0.
         12    1    1    2    0    0 -0.19389393535E+02 -0.20336497140E+02 -0.29387807147E+02  0.40659130666E+02  0.00000000000E+00 0. -1.
         11    1    3    3    0    0  0.28371256658E+01 -0.16188504529E+01 -0.45071244447E+01  0.55663389991E+01  0.51100000000E-03 0. -1.
        -11    1    3    3    0    0  0.46398059062E+01  0.47013512678E+01  0.22035906272E+01  0.69632115079E+01  0.51100000000E-03 0.  1.
        -12    1    3    3    0    0  0.11912461963E+02  0.17253996325E+02  0.31691340965E+02  0.37999318827E+02  0.00000000000E+00 0.  1.
</event>
<event>
 7    1  0.2838209E-011  0.5052886E+02  0.7816164E-02  0.1300439E+00
        -11   -1    0    0    0    0  0.00000000000E+00  0.00000000000E+00  0.45593999997E+02  0.45594000000E+02  0.51100000000E-03 0.  1.
         11   -1    0    0    0    0 -0.00000000000E+00 -0.00000000000E+00 -0.45593999997E+02  0.45594000000E+02  0.51100000000E-03 0. -1.
    9900012    2    1    2    0    0 -0.78659758220E+01 -0.18647336641E+02  0.35264271250E+02  0.50528861221E+02  0.30000004169E+02 0.  0.
         12    1    1    2    0    0  0.78659758220E+01  0.18647336641E+02 -0.35264271250E+02  0.40659138779E+02  0.00000000000E+00 0. -1.
         11    1    3    3    0    0  0.17027269109E+01 -0.75790210762E+01  0.95566393290E+00  0.78265019786E+01  0.51100000000E-03 0. -1.
        -11    1    3    3    0    0  0.53354869258E+00 -0.14298951503E+02  0.15394968660E+02  0.21017843577E+02  0.51100000000E-03 0.  1.
        -12    1    3    3    0    0 -0.10102251425E+02  0.32306359390E+01  0.18913638657E+02  0.21684515666E+02  0.00000000000E+00 0.  1.
</event>
<event>
 7    1  0.2838209E-011  0.5052886E+02  0.7816164E-02  0.1300439E+00
        -11   -1    0    0    0    0  0.00000000000E+00  0.00000000000E+00  0.45593999997E+02  0.45594000000E+02  0.51100000000E-03 0.  1.
         11   -1    0    0    0    0 -0.00000000000E+00 -0.00000000000E+00 -0.45593999997E+02  0.45594000000E+02  0.51100000000E-03 0. -1.
    9900012    2    1    2    0    0 -0.11286115371E+02  0.10701954062E+02  0.37566706319E+02  0.50528860258E+02  0.30000001240E+02 0.  0.
         12    1    1    2    0    0  0.11286115371E+02 -0.10701954062E+02 -0.37566706319E+02  0.40659139742E+02  0.00000000000E+00 0. -1.
         11    1    3    3    0    0 -0.62712732637E+01  0.12440818165E+02  0.12116331028E+02  0.18463702305E+02  0.51100000000E-03 0. -1.
        -11    1    3    3    0    0  0.20960371981E+01  0.54018354499E+01  0.13596683307E+01  0.59516297259E+01  0.51100000000E-03 0.  1.
        -12    1    3    3    0    0 -0.71108793051E+01 -0.71406995532E+01  0.24090706960E+02  0.26113528227E+02  0.00000000000E+00 0.  1.
</event>
<event>
 7    1  0.2838209E-011  0.5052887E+02  0.7816164E-02  0.1300439E+00
        -11   -1    0    0    0    0  0.00000000000E+00  0.00000000000E+00  0.45593999997E+02  0.45594000000E+02  0.51100000000E-03 0. -1.
         11   -1    0    0    0    0 -0.00000000000E+00 -0.00000000000E+00 -0.45593999997E+02  0.45594000000E+02  0.51100000000E-03 0.  1.
    9900012    2    1    2    0    0  0.31111853305E+02 -0.77538376226E+01  0.25001908860E+02  0.50528869899E+02  0.30000030544E+02 0.  0.
         12    1    1    2    0    0 -0.31111853305E+02  0.77538376226E+01 -0.25001908860E+02  0.40659130101E+02  0.00000000000E+00 0. -1.
         11    1    3    3    0    0  0.14918582212E+02 -0.75440001501E+01  0.14610153196E+02  0.22202085716E+02  0.51100000000E-03 0. -1.
        -11    1    3    3    0    0  0.20626301631E+02 -0.15123914131E+01  0.11374206221E+02  0.23603055188E+02  0.51100000000E-03 0.  1.
        -12    1    3    3    0    0 -0.44330305383E+01  0.13025539406E+01 -0.98245055695E+00  0.47237289951E+01  0.00000000000E+00 0.  1.
</event>
<event>
 7    1  0.2838209E-011  0.5052885E+02  0.7816164E-02  0.1300439E+00
        -11   -1    0    0    0    0  0.00000000000E+00  0.00000000000E+00  0.45593999997E+02  0.45594000000E+02  0.51100000000E-03 0.  1.
         11   -1    0    0    0    0 -0.00000000000E+00 -0.00000000000E+00 -0.45593999997E+02  0.45594000000E+02  0.51100000000E-03 0. -1.
    9900012    2    1    2    0    0  0.14130023575E+02  0.27067920854E+02  0.26848395563E+02  0.50528852814E+02  0.29999978612E+02 0.  0.
         12    1    1    2    0    0 -0.14130023575E+02 -0.27067920854E+02 -0.26848395563E+02  0.40659147186E+02  0.00000000000E+00 0. -1.
         11    1    3    3    0    0  0.47272385882E+01  0.41636229189E+01  0.16295279967E+02  0.17470509149E+02  0.51100000000E-03 0. -1.
        -11    1    3    3    0    0  0.32613918133E+01  0.24179008079E+02  0.11014688087E+02  0.26769095281E+02  0.51100000000E-03 0.  1.
         12    1    3    3    0    0  0.61413931740E+01 -0.12747101435E+01 -0.46157249094E+00  0.62892483837E+01  0.00000000000E+00 0. -1.
</event>
<event>
 7    1  0.2838209E-011  0.5052890E+02  0.7816164E-02  0.1300439E+00
        -11   -1    0    0    0    0  0.00000000000E+00  0.00000000000E+00  0.45593999997E+02  0.45594000000E+02  0.51100000000E-03 0. -1.
         11   -1    0    0    0    0 -0.00000000000E+00 -0.00000000000E+00 -0.45593999997E+02  0.45594000000E+02  0.51100000000E-03 0.  1.
    9900012    2    1    2    0    0  0.37794329491E+02  0.49625859307E+01  0.14146522807E+02  0.50528896366E+02  0.30000110995E+02 0.  0.
         12    1    1    2    0    0 -0.37794329491E+02 -0.49625859307E+01 -0.14146522807E+02  0.40659103634E+02  0.00000000000E+00 0. -1.
         11    1    3    3    0    0  0.15804333029E+02  0.33742923293E+01  0.41275042917E+01  0.16679301039E+02  0.51100000000E-03 0. -1.
        -11    1    3    3    0    0  0.26956002071E+02 -0.43371320746E+00  0.80186530124E+01  0.28126730190E+02  0.51100000000E-03 0.  1.
         12    1    3    3    0    0 -0.49660056085E+01  0.20220068088E+01  0.20003655027E+01  0.57228651376E+01  0.00000000000E+00 0. -1.
</event>
<event>
 7    1  0.2838209E-011  0.5052886E+02  0.7816164E-02  0.1300439E+00
        -11   -1    0    0    0    0  0.00000000000E+00  0.00000000000E+00  0.45593999997E+02  0.45594000000E+02  0.51100000000E-03 0. -1.
         11   -1    0    0    0    0 -0.00000000000E+00 -0.00000000000E+00 -0.45593999997E+02  0.45594000000E+02  0.51100000000E-03 0.  1.
    9900012    2    1    2    0    0 -0.25322232546E+02 -0.26855928530E+02 -0.17050211345E+02  0.50528855085E+02  0.29999985515E+02 0.  0.
         12    1    1    2    0    0  0.25322232546E+02  0.26855928530E+02  0.17050211345E+02  0.40659144915E+02  0.00000000000E+00 0. -1.
         11    1    3    3    0    0  0.40806379525E+00 -0.13479311662E+01  0.60426508628E+01  0.62046002450E+01  0.51100000000E-03 0. -1.
        -11    1    3    3    0    0  0.57225756491E-01 -0.34156541780E+01 -0.43733112500E+01  0.55493981477E+01  0.51100000000E-03 0.  1.
        -12    1    3    3    0    0 -0.25787522098E+02 -0.22092343186E+02 -0.18719550958E+02  0.38774856692E+02  0.00000000000E+00 0.  1.
</event>
<event>
 7    1  0.2838209E-011  0.5052885E+02  0.7816164E-02  0.1300439E+00
        -11   -1    0    0    0    0  0.00000000000E+00  0.00000000000E+00  0.45593999997E+02  0.45594000000E+02  0.51100000000E-03 0.  1.
         11   -1    0    0    0    0 -0.00000000000E+00 -0.00000000000E+00 -0.45593999997E+02  0.45594000000E+02  0.51100000000E-03 0. -1.
    9900012    2    1    2    0    0  0.34994002354E+02 -0.20546849487E+02 -0.25325107081E+01  0.50528845618E+02  0.29999956741E+02 0.  0.
         12    1    1    2    0    0 -0.34994002354E+02  0.20546849487E+02  0.25325107081E+01  0.40659154382E+02  0.00000000000E+00 0. -1.
         11    1    3    3    0    0  0.30922846480E+02 -0.14166086216E+02 -0.12553598398E+02  0.36255941115E+02  0.51100000000E-03 0. -1.
        -11    1    3    3    0    0  0.65743369175E+00  0.33355132035E+00 -0.80032894766E+00  0.10881186645E+01  0.51100000000E-03 0.  1.
        -12    1    3    3    0    0  0.34137221816E+01 -0.67143145912E+01  0.10821416638E+02  0.13184785839E+02  0.00000000000E+00 0.  1.
</event>
<event>
 7    1  0.2838209E-011  0.5052886E+02  0.7816164E-02  0.1300439E+00
        -11   -1    0    0    0    0  0.00000000000E+00  0.00000000000E+00  0.45593999997E+02  0.45594000000E+02  0.51100000000E-03 0. -1.
         11   -1    0    0    0    0 -0.00000000000E+00 -0.00000000000E+00 -0.45593999997E+02  0.45594000000E+02  0.51100000000E-03 0.  1.
    9900012    2    1    2    0    0  0.29408271344E+01  0.31727098140E+02 -0.25256849919E+02  0.50528859719E+02  0.29999999600E+02 0.  0.
         12    1    1    2    0    0 -0.29408271344E+01 -0.31727098140E+02  0.25256849919E+02  0.40659140281E+02  0.00000000000E+00 0. -1.
         11    1    3    3    0    0 -0.30761657456E+01  0.24860319969E+02 -0.74335969554E+01  0.26129612868E+02  0.51100000000E-03 0. -1.
        -11    1    3    3    0    0 -0.30019254213E+01  0.45535367692E+01 -0.15827177903E+01  0.56790183314E+01  0.51100000000E-03 0.  1.
        -12    1    3    3    0    0  0.90189183013E+01  0.23132414013E+01 -0.16240535173E+02  0.18720228519E+02  0.00000000000E+00 0.  1.
</event>
<event>
 7    1  0.2838209E-011  0.5052892E+02  0.7816164E-02  0.1300439E+00
        -11   -1    0    0    0    0  0.00000000000E+00  0.00000000000E+00  0.45593999997E+02  0.45594000000E+02  0.51100000000E-03 0. -1.
         11   -1    0    0    0    0 -0.00000000000E+00 -0.00000000000E+00 -0.45593999997E+02  0.45594000000E+02  0.51100000000E-03 0.  1.
    9900012    2    1    2    0    0  0.26439221622E+02  0.30830775602E+02  0.18950858638E+01  0.50528923342E+02  0.30000192990E+02 0.  0.
         12    1    1    2    0    0 -0.26439221622E+02 -0.30830775602E+02 -0.18950858638E+01  0.40659076658E+02  0.00000000000E+00 0. -1.
         11    1    3    3    0    0 -0.98054002301E+00  0.39353488469E+00  0.11133499071E+01  0.15348865492E+01  0.51100000000E-03 0. -1.
        -11    1    3    3    0    0  0.31981355148E+01 -0.27699427287E+01 -0.59941257008E+01  0.73369064781E+01  0.51100000000E-03 0.  1.
         12    1    3    3    0    0  0.24221626131E+02  0.33207183446E+02  0.67758616574E+01  0.41657130315E+02  0.00000000000E+00 0. -1.
</event>
<event>
 7    1  0.2838209E-011  0.5052887E+02  0.7816164E-02  0.1300439E+00
        -11   -1    0    0    0    0  0.00000000000E+00  0.00000000000E+00  0.45593999997E+02  0.45594000000E+02  0.51100000000E-03 0. -1.
         11   -1    0    0    0    0 -0.00000000000E+00 -0.00000000000E+00 -0.45593999997E+02  0.45594000000E+02  0.51100000000E-03 0.  1.
    9900012    2    1    2    0    0 -0.47890708680E+01 -0.18290956921E+01 -0.40334653659E+02  0.50528867242E+02  0.30000022469E+02 0.  0.
         12    1    1    2    0    0  0.47890708680E+01  0.18290956921E+01  0.40334653659E+02  0.40659132758E+02  0.00000000000E+00 0. -1.
         11    1    3    3    0    0 -0.33678623677E+01 -0.15317716272E+01 -0.91517983504E+01  0.98713846320E+01  0.51100000000E-03 0. -1.
        -11    1    3    3    0    0 -0.42387906271E+01  0.10048613290E+02 -0.27050065644E+02  0.29165870922E+02  0.51100000000E-03 0.  1.
         12    1    3    3    0    0  0.28175821267E+01 -0.10345937355E+02 -0.41327896650E+01  0.11491611689E+02  0.00000000000E+00 0. -1.
</event>
<event>
 7    1  0.2838209E-011  0.5052886E+02  0.7816164E-02  0.1300439E+00
        -11   -1    0    0    0    0  0.00000000000E+00  0.00000000000E+00  0.45593999997E+02  0.45594000000E+02  0.51100000000E-03 0.  1.
         11   -1    0    0    0    0 -0.00000000000E+00 -0.00000000000E+00 -0.45593999997E+02  0.45594000000E+02  0.51100000000E-03 0. -1.
    9900012    2    1    2    0    0 -0.33181930066E+02 -0.10505852486E+01  0.23473843638E+02  0.50528861453E+02  0.30000004871E+02 0.  0.
         12    1    1    2    0    0  0.33181930066E+02  0.10505852486E+01 -0.23473843638E+02  0.40659138547E+02  0.00000000000E+00 0. -1.
         11    1    3    3    0    0 -0.12836034299E+02  0.44051142869E+01  0.94013134385E+01  0.16509194500E+02  0.51100000000E-03 0. -1.
        -11    1    3    3    0    0 -0.89903256228E+01  0.39245288085E+01  0.16398237308E+02  0.19108376913E+02  0.51100000000E-03 0.  1.
         12    1    3    3    0    0 -0.11355570144E+02 -0.93802283440E+01 -0.23257071087E+01  0.14911290039E+02  0.00000000000E+00 0. -1.
</event>
<event>
 7    1  0.2838209E-011  0.5052886E+02  0.7816164E-02  0.1300439E+00
        -11   -1    0    0    0    0  0.00000000000E+00  0.00000000000E+00  0.45593999997E+02  0.45594000000E+02  0.51100000000E-03 0. -1.
         11   -1    0    0    0    0 -0.00000000000E+00 -0.00000000000E+00 -0.45593999997E+02  0.45594000000E+02  0.51100000000E-03 0.  1.
    9900012    2    1    2    0    0 -0.24460303995E+01  0.31510304339E+01 -0.40462987055E+02  0.50528863524E+02  0.30000011168E+02 0.  0.
         12    1    1    2    0    0  0.24460303995E+01 -0.31510304339E+01  0.40462987055E+02  0.40659136476E+02  0.00000000000E+00 0. -1.
         11    1    3    3    0    0 -0.12653519910E+02 -0.31891409629E+01 -0.18637998157E+02  0.22752080383E+02  0.51100000000E-03 0. -1.
        -11    1    3    3    0    0 -0.22210259367E+01 -0.64851730296E+00 -0.95980214788E+00  0.25049453742E+01  0.51100000000E-03 0.  1.
         12    1    3    3    0    0  0.12428515447E+02  0.69886886998E+01 -0.20865186751E+02  0.25271837767E+02  0.00000000000E+00 0. -1.
</event>
<event>
 7    1  0.2838209E-011  0.5052889E+02  0.7816164E-02  0.1300439E+00
        -11   -1    0    0    0    0  0.00000000000E+00  0.00000000000E+00  0.45593999997E+02  0.45594000000E+02  0.51100000000E-03 0.  1.
         11   -1    0    0    0    0 -0.00000000000E+00 -0.00000000000E+00 -0.45593999997E+02  0.45594000000E+02  0.51100000000E-03 0. -1.
    9900012    2    1    2    0    0  0.55127612280E+01 -0.29827648051E+02  0.27075522009E+02  0.50528892574E+02  0.30000099467E+02 0.  0.
         12    1    1    2    0    0 -0.55127612280E+01  0.29827648051E+02 -0.27075522009E+02  0.40659107426E+02  0.00000000000E+00 0. -1.
         11    1    3    3    0    0  0.58429188990E+00 -0.20850985013E+01  0.47934902644E+01  0.52599032262E+01  0.51100000000E-03 0. -1.
        -11    1    3    3    0    0  0.12846187785E+02 -0.27478763216E+02  0.21757453037E+02  0.37329528947E+02  0.51100000000E-03 0.  1.
         12    1    3    3    0    0 -0.79177184466E+01 -0.26378633360E+00  0.52457870807E+00  0.79394604004E+01  0.00000000000E+00 0. -1.
</event>
<event>
 7    1  0.2838209E-011  0.5052887E+02  0.7816164E-02  0.1300439E+00
        -11   -1    0    0    0    0  0.00000000000E+00  0.00000000000E+00  0.45593999997E+02  0.45594000000E+02  0.51100000000E-03 0.  1.
         11   -1    0    0    0    0 -0.00000000000E+00 -0.00000000000E+00 -0.45593999997E+02  0.45594000000E+02  0.51100000000E-03 0. -1.
    9900012    2    1    2    0    0 -0.24453729492E+02 -0.27107878007E+02  0.17898135860E+02  0.50528865683E+02  0.30000017731E+02 0.  0.
         12    1    1    2    0    0  0.24453729492E+02  0.27107878007E+02 -0.17898135860E+02  0.40659134317E+02  0.00000000000E+00 0. -1.
         11    1    3    3    0    0  0.46815710541E+00  0.27152233524E+01  0.23104125131E+00  0.27649573685E+01  0.51100000000E-03 0. -1.
        -11    1    3    3    0    0 -0.20408409323E+02 -0.28423932610E+02  0.22016257183E+02  0.41341730694E+02  0.51100000000E-03 0.  1.
         12    1    3    3    0    0 -0.45134772746E+01 -0.13991687487E+01 -0.43491625742E+01  0.64221776207E+01  0.00000000000E+00 0. -1.
</event>
<event>
 7    1  0.2838209E-011  0.5052884E+02  0.7816164E-02  0.1300439E+00
        -11   -1    0    0    0    0  0.00000000000E+00  0.00000000000E+00  0.45593999997E+02  0.45594000000E+02  0.51100000000E-03 0.  1.
         11   -1    0    0    0    0 -0.00000000000E+00 -0.00000000000E+00 -0.45593999997E+02  0.45594000000E+02  0.51100000000E-03 0. -1.
    9900012    2    1    2    0    0  0.27788297750E+02  0.27472742688E+02  0.11235029322E+02  0.50528844001E+02  0.29999951826E+02 0.  0.
         12    1    1    2    0    0 -0.27788297750E+02 -0.27472742688E+02 -0.11235029322E+02  0.40659155999E+02  0.00000000000E+00 0. -1.
         11    1    3    3    0    0  0.86414814341E+01  0.20510036700E+02  0.14026373309E+01  0.22300318351E+02  0.51100000000E-03 0. -1.
        -11    1    3    3    0    0  0.44578312649E+01  0.10146556691E+02  0.64487182194E+01  0.12822279017E+02  0.51100000000E-03 0.  1.
         12    1    3    3    0    0  0.14688985051E+02 -0.31838507025E+01  0.33836737718E+01  0.15406246633E+02  0.00000000000E+00 0. -1.
</event>
<event>
 7    1  0.2838209E-011  0.5052886E+02  0.7816164E-02  0.1300439E+00
        -11   -1    0    0    0    0  0.00000000000E+00  0.00000000000E+00  0.45593999997E+02  0.45594000000E+02  0.51100000000E-03 0.  1.
         11   -1    0    0    0    0 -0.00000000000E+00 -0.00000000000E+00 -0.45593999997E+02  0.45594000000E+02  0.51100000000E-03 0. -1.
    9900012    2    1    2    0    0  0.10676178957E+02  0.22446293495E+02  0.32176833308E+02  0.50528862153E+02  0.30000006999E+02 0.  0.
         12    1    1    2    0    0 -0.10676178957E+02 -0.22446293495E+02 -0.32176833308E+02  0.40659137847E+02  0.00000000000E+00 0. -1.
         11    1    3    3    0    0 -0.35503004510E+01  0.86061754178E+00 -0.30800595600E+01  0.47782908031E+01  0.51100000000E-03 0. -1.
        -11    1    3    3    0    0 -0.57311274081E+00 -0.15659403824E+01  0.17410235651E+01  0.24107656066E+01  0.51100000000E-03 0.  1.
        -12    1    3    3    0    0  0.14799592148E+02  0.23151616335E+02  0.33515869303E+02  0.43339805743E+02  0.00000000000E+00 0.  1.
</event>
<event>
 7    1  0.2838209E-011  0.5052886E+02  0.7816164E-02  0.1300439E+00
        -11   -1    0    0    0    0  0.00000000000E+00  0.00000000000E+00  0.45593999997E+02  0.45594000000E+02  0.51100000000E-03 0.  1.
         11   -1    0    0    0    0 -0.00000000000E+00 -0.00000000000E+00 -0.45593999997E+02  0.45594000000E+02  0.51100000000E-03 0. -1.
    9900012    2    1    2    0    0 -0.31127307369E+02 -0.24859533175E+02  0.81400339879E+01  0.50528858260E+02  0.29999995167E+02 0.  0.
         12    1    1    2    0    0  0.31127307369E+02  0.24859533175E+02 -0.81400339879E+01  0.40659141740E+02  0.00000000000E+00 0. -1.
         11    1    3    3    0    0 -0.14551950930E+02 -0.13175496010E+02 -0.42620672882E+01  0.20087762165E+02  0.51100000000E-03 0. -1.
        -11    1    3    3    0    0 -0.53941783869E+01 -0.13512499436E+02  0.13472459660E+01  0.14611634865E+02  0.51100000000E-03 0.  1.
        -12    1    3    3    0    0 -0.11181178052E+02  0.18284622703E+01  0.11054855310E+02  0.15829461230E+02  0.00000000000E+00 0.  1.
</event>
<event>
 7    1  0.2838209E-011  0.5052888E+02  0.7816164E-02  0.1300439E+00
        -11   -1    0    0    0    0  0.00000000000E+00  0.00000000000E+00  0.45593999997E+02  0.45594000000E+02  0.51100000000E-03 0.  1.
         11   -1    0    0    0    0 -0.00000000000E+00 -0.00000000000E+00 -0.45593999997E+02  0.45594000000E+02  0.51100000000E-03 0. -1.
    9900012    2    1    2    0    0 -0.33956015709E+02  0.46715402503E+01  0.21870757199E+02  0.50528876650E+02  0.30000051065E+02 0.  0.
         12    1    1    2    0    0  0.33956015709E+02 -0.46715402503E+01 -0.21870757199E+02  0.40659123350E+02  0.00000000000E+00 0. -1.
         11    1    3    3    0    0 -0.40955552016E-01 -0.12768929110E+01  0.25507752592E+01  0.28528209807E+01  0.51100000000E-03 0. -1.
        -11    1    3    3    0    0  0.18172458242E+01  0.41713038452E+01 -0.30536336183E+01  0.54796748709E+01  0.51100000000E-03 0.  1.
        -12    1    3    3    0    0 -0.35732305981E+02  0.17771293161E+01  0.22373615558E+02  0.42196380798E+02  0.00000000000E+00 0.  1.
</event>
<event>
 7    1  0.2838209E-011  0.5052886E+02  0.7816164E-02  0.1300439E+00
        -11   -1    0    0    0    0  0.00000000000E+00  0.00000000000E+00  0.45593999997E+02  0.45594000000E+02  0.51100000000E-03 0. -1.
         11   -1    0    0    0    0 -0.00000000000E+00 -0.00000000000E+00 -0.45593999997E+02  0.45594000000E+02  0.51100000000E-03 0.  1.
    9900012    2    1    2    0    0  0.16649012483E+02 -0.26290121420E+02 -0.26168796711E+02  0.50528855614E+02  0.29999987123E+02 0.  0.
         12    1    1    2    0    0 -0.16649012483E+02  0.26290121420E+02  0.26168796711E+02  0.40659144386E+02  0.00000000000E+00 0. -1.
         11    1    3    3    0    0  0.13900476655E+02 -0.70251711739E+01 -0.31441826023E+01  0.15889058052E+02  0.51100000000E-03 0. -1.
        -11    1    3    3    0    0  0.96339068372E+01 -0.78627203651E+01 -0.12820377124E+02  0.17860475983E+02  0.51100000000E-03 0.  1.
         12    1    3    3    0    0 -0.68853710097E+01 -0.11402229881E+02 -0.10204236985E+02  0.16779321579E+02  0.00000000000E+00 0. -1.
</event>
<event>
 7    1  0.2838209E-011  0.5052886E+02  0.7816164E-02  0.1300439E+00
        -11   -1    0    0    0    0  0.00000000000E+00  0.00000000000E+00  0.45593999997E+02  0.45594000000E+02  0.51100000000E-03 0. -1.
         11   -1    0    0    0    0 -0.00000000000E+00 -0.00000000000E+00 -0.45593999997E+02  0.45594000000E+02  0.51100000000E-03 0.  1.
    9900012    2    1    2    0    0 -0.25059342664E+02  0.74187779044E+00 -0.32010071968E+02  0.50528859025E+02  0.29999997494E+02 0.  0.
         12    1    1    2    0    0  0.25059342664E+02 -0.74187779044E+00  0.32010071968E+02  0.40659140975E+02  0.00000000000E+00 0. -1.
         11    1    3    3    0    0 -0.33093836169E+01 -0.10281345101E+02 -0.10696834079E+02  0.15201326803E+02  0.51100000000E-03 0. -1.
        -11    1    3    3    0    0 -0.16204885534E+02  0.68142616398E+01 -0.22191620721E+02  0.28310784295E+02  0.51100000000E-03 0.  1.
         12    1    3    3    0    0 -0.55450735124E+01  0.42089612514E+01  0.87838283277E+00  0.70167479273E+01  0.00000000000E+00 0. -1.
</event>
<event>
 7    1  0.2838209E-011  0.5052887E+02  0.7816164E-02  0.1300439E+00
        -11   -1    0    0    0    0  0.00000000000E+00  0.00000000000E+00  0.45593999997E+02  0.45594000000E+02  0.51100000000E-03 0. -1.
         11   -1    0    0    0    0 -0.00000000000E+00 -0.00000000000E+00 -0.45593999997E+02  0.45594000000E+02  0.51100000000E-03 0.  1.
    9900012    2    1    2    0    0  0.23564083460E+01 -0.40055377892E+02  0.65710873866E+01  0.50528866367E+02  0.30000019809E+02 0.  0.
         12    1    1    2    0    0 -0.23564083460E+01  0.40055377892E+02 -0.65710873866E+01  0.40659133633E+02  0.00000000000E+00 0. -1.
         11    1    3    3    0    0  0.13793813659E+01 -0.64953599267E+00  0.80872832938E+01  0.82297473408E+01  0.51100000000E-03 0. -1.
        -11    1    3    3    0    0  0.18557695713E-01 -0.91509444593E+00  0.33659235111E+01  0.34881490187E+01  0.51100000000E-03 0.  1.
        -12    1    3    3    0    0  0.95846928436E+00 -0.38490747453E+02 -0.48821194183E+01  0.38810970007E+02  0.00000000000E+00 0.  1.
</event>
<event>
 7    1  0.2838209E-011  0.5052887E+02  0.7816164E-02  0.1300439E+00
        -11   -1    0    0    0    0  0.00000000000E+00  0.00000000000E+00  0.45593999997E+02  0.45594000000E+02  0.51100000000E-03 0.  1.
         11   -1    0    0    0    0 -0.00000000000E+00 -0.00000000000E+00 -0.45593999997E+02  0.45594000000E+02  0.51100000000E-03 0. -1.
    9900012    2    1    2    0    0 -0.30831758000E+02  0.90694002083E+00  0.26490473608E+02  0.50528867771E+02  0.30000024078E+02 0.  0.
         12    1    1    2    0    0  0.30831758000E+02 -0.90694002083E+00 -0.26490473608E+02  0.40659132229E+02  0.00000000000E+00 0. -1.
         11    1    3    3    0    0 -0.12168924831E+02  0.91510544784E+01  0.12467490254E+02  0.19678994972E+02  0.51100000000E-03 0. -1.
        -11    1    3    3    0    0 -0.15921643170E+02  0.26287011890E+01  0.97269452830E+01  0.18842034285E+02  0.51100000000E-03 0.  1.
         12    1    3    3    0    0 -0.27411899991E+01 -0.10872815647E+02  0.42960380714E+01  0.12007838515E+02  0.00000000000E+00 0. -1.
</event>
<event>
 7    1  0.2838209E-011  0.5052886E+02  0.7816164E-02  0.1300439E+00
        -11   -1    0    0    0    0  0.00000000000E+00  0.00000000000E+00  0.45593999997E+02  0.45594000000E+02  0.51100000000E-03 0.  1.
         11   -1    0    0    0    0 -0.00000000000E+00 -0.00000000000E+00 -0.45593999997E+02  0.45594000000E+02  0.51100000000E-03 0. -1.
    9900012    2    1    2    0    0  0.28811474492E+02 -0.24659244238E+02 -0.14662412428E+02  0.50528859244E+02  0.29999998158E+02 0.  0.
         12    1    1    2    0    0 -0.28811474492E+02  0.24659244238E+02  0.14662412428E+02  0.40659140756E+02  0.00000000000E+00 0. -1.
         11    1    3    3    0    0  0.10402768405E+02 -0.73740007935E+01 -0.40811621128E+01  0.13388404036E+02  0.51100000000E-03 0. -1.
        -11    1    3    3    0    0  0.20610762432E+02 -0.12453221582E+02  0.13110248294E+01  0.24116489009E+02  0.51100000000E-03 0.  1.
         12    1    3    3    0    0 -0.22020563441E+01 -0.48320218629E+01 -0.11892275144E+02  0.13023966198E+02  0.00000000000E+00 0. -1.
</event>
<event>
 7    1  0.2838209E-011  0.5052885E+02  0.7816164E-02  0.1300439E+00
        -11   -1    0    0    0    0  0.00000000000E+00  0.00000000000E+00  0.45593999997E+02  0.45594000000E+02  0.51100000000E-03 0.  1.
         11   -1    0    0    0    0 -0.00000000000E+00 -0.00000000000E+00 -0.45593999997E+02  0.45594000000E+02  0.51100000000E-03 0. -1.
    9900012    2    1    2    0    0 -0.24802641631E+02 -0.24128558152E+02  0.21349667183E+02  0.50528848027E+02  0.29999964061E+02 0.  0.
         12    1    1    2    0    0  0.24802641631E+02  0.24128558152E+02 -0.21349667183E+02  0.40659151973E+02  0.00000000000E+00 0. -1.
         11    1    3    3    0    0 -0.31655873615E+01 -0.90194156460E+01 -0.33486439522E+01  0.10128386768E+02  0.51100000000E-03 0. -1.
        -11    1    3    3    0    0 -0.15578890318E+02 -0.17685013341E+02  0.24228588730E+02  0.33800680947E+02  0.51100000000E-03 0.  1.
         12    1    3    3    0    0 -0.60581639515E+01  0.25758708346E+01  0.46972240520E+00  0.65997803113E+01  0.00000000000E+00 0. -1.
</event>
<event>
 7    1  0.2838209E-011  0.5052886E+02  0.7816164E-02  0.1300439E+00
        -11   -1    0    0    0    0  0.00000000000E+00  0.00000000000E+00  0.45593999997E+02  0.45594000000E+02  0.51100000000E-03 0. -1.
         11   -1    0    0    0    0 -0.00000000000E+00 -0.00000000000E+00 -0.45593999997E+02  0.45594000000E+02  0.51100000000E-03 0.  1.
    9900012    2    1    2    0    0 -0.88743950625E+01 -0.37571701764E+02 -0.12758454216E+02  0.50528858160E+02  0.29999994863E+02 0.  0.
         12    1    1    2    0    0  0.88743950625E+01  0.37571701764E+02  0.12758454216E+02  0.40659141840E+02  0.00000000000E+00 0. -1.
         11    1    3    3    0    0  0.47989665124E+01 -0.61842699385E+01  0.28314813040E+01  0.83242153321E+01  0.51100000000E-03 0. -1.
        -11    1    3    3    0    0  0.24600373235E+01 -0.15431806444E+02 -0.19963348598E+01  0.15753659477E+02  0.51100000000E-03 0.  1.
        -12    1    3    3    0    0 -0.16133398898E+02 -0.15955625381E+02 -0.13593600660E+02  0.26450983351E+02  0.00000000000E+00 0.  1.
</event>
<event>
 7    1  0.2838209E-011  0.5052886E+02  0.7816164E-02  0.1300439E+00
        -11   -1    0    0    0    0  0.00000000000E+00  0.00000000000E+00  0.45593999997E+02  0.45594000000E+02  0.51100000000E-03 0. -1.
         11   -1    0    0    0    0 -0.00000000000E+00 -0.00000000000E+00 -0.45593999997E+02  0.45594000000E+02  0.51100000000E-03 0.  1.
    9900012    2    1    2    0    0  0.36778528609E+02 -0.13997204269E+02 -0.10226630322E+02  0.50528857587E+02  0.29999993123E+02 0.  0.
         12    1    1    2    0    0 -0.36778528609E+02  0.13997204269E+02  0.10226630322E+02  0.40659142413E+02  0.00000000000E+00 0. -1.
         11    1    3    3    0    0  0.15869485957E+01 -0.74857960844E+01  0.35444506673E+01  0.84331891747E+01  0.51100000000E-03 0. -1.
        -11    1    3    3    0    0  0.16835524362E+00 -0.35734277923E+01  0.13646841258E+01  0.38288500492E+01  0.51100000000E-03 0.  1.
        -12    1    3    3    0    0  0.35023224770E+02 -0.29379803921E+01 -0.15135765115E+02  0.38266818364E+02  0.00000000000E+00 0.  1.
</event>
<event>
 7    1  0.2838209E-011  0.5052889E+02  0.7816164E-02  0.1300439E+00
        -11   -1    0    0    0    0  0.00000000000E+00  0.00000000000E+00  0.45593999997E+02  0.45594000000E+02  0.51100000000E-03 0. -1.
         11   -1    0    0    0    0 -0.00000000000E+00 -0.00000000000E+00 -0.45593999997E+02  0.45594000000E+02  0.51100000000E-03 0.  1.
    9900012    2    1    2    0    0 -0.79066685355E+01 -0.32283075223E+02 -0.23419034456E+02  0.50528886285E+02  0.30000080353E+02 0.  0.
         12    1    1    2    0    0  0.79066685355E+01  0.32283075223E+02  0.23419034456E+02  0.40659113715E+02  0.00000000000E+00 0. -1.
         11    1    3    3    0    0 -0.42654339941E+01 -0.22248645910E+01 -0.14378231497E+02  0.15161711343E+02  0.51100000000E-03 0. -1.
        -11    1    3    3    0    0  0.52399633174E+01 -0.46124614676E+01 -0.13289482346E+00  0.69820969381E+01  0.51100000000E-03 0.  1.
         12    1    3    3    0    0 -0.88811978588E+01 -0.25445749165E+02 -0.89079081361E+01  0.28385078005E+02  0.00000000000E+00 0. -1.
</event>
<event>
 7    1  0.2838209E-011  0.5052887E+02  0.7816164E-02  0.1300439E+00
        -11   -1    0    0    0    0  0.00000000000E+00  0.00000000000E+00  0.45593999997E+02  0.45594000000E+02  0.51100000000E-03 0. -1.
         11   -1    0    0    0    0 -0.00000000000E+00 -0.00000000000E+00 -0.45593999997E+02  0.45594000000E+02  0.51100000000E-03 0.  1.
    9900012    2    1    2    0    0 -0.18101150387E+02  0.31342017574E+02 -0.18525429036E+02  0.50528865332E+02  0.30000016664E+02 0.  0.
         12    1    1    2    0    0  0.18101150387E+02 -0.31342017574E+02  0.18525429036E+02  0.40659134668E+02  0.00000000000E+00 0. -1.
         11    1    3    3    0    0 -0.11250367461E+02  0.81513992633E+01 -0.64486164227E+01  0.15316681494E+02  0.51100000000E-03 0.  1.
        -11    1    3    3    0    0 -0.78292540676E+01 -0.15683265749E+01 -0.91876241549E+00  0.80374742387E+01  0.51100000000E-03 0. -1.
        -12    1    3    3    0    0  0.97847114138E+00  0.24758944886E+02 -0.11158050198E+02  0.27174709600E+02  0.00000000000E+00 0.  1.
</event>
<event>
 7    1  0.2838209E-011  0.5052886E+02  0.7816164E-02  0.1300439E+00
        -11   -1    0    0    0    0  0.00000000000E+00  0.00000000000E+00  0.45593999997E+02  0.45594000000E+02  0.51100000000E-03 0. -1.
         11   -1    0    0    0    0 -0.00000000000E+00 -0.00000000000E+00 -0.45593999997E+02  0.45594000000E+02  0.51100000000E-03 0.  1.
    9900012    2    1    2    0    0  0.38830179247E+02  0.89537600740E+01 -0.80754792502E+01  0.50528855826E+02  0.29999987770E+02 0.  0.
         12    1    1    2    0    0 -0.38830179247E+02 -0.89537600740E+01  0.80754792502E+01  0.40659144174E+02  0.00000000000E+00 0. -1.
         11    1    3    3    0    0  0.12159302068E+02 -0.65215521659E+01 -0.99919269619E+01  0.17035782169E+02  0.51100000000E-03 0. -1.
        -11    1    3    3    0    0  0.10257981665E+02  0.28872980413E+01 -0.48799715220E+01  0.11720784963E+02  0.51100000000E-03 0.  1.
         12    1    3    3    0    0  0.16412895514E+02  0.12588014199E+02  0.67964192337E+01  0.21772288695E+02  0.00000000000E+00 0. -1.
</event>
<event>
 7    1  0.2838209E-011  0.5052886E+02  0.7816164E-02  0.1300439E+00
        -11   -1    0    0    0    0  0.00000000000E+00  0.00000000000E+00  0.45593999997E+02  0.45594000000E+02  0.51100000000E-03 0.  1.
         11   -1    0    0    0    0 -0.00000000000E+00 -0.00000000000E+00 -0.45593999997E+02  0.45594000000E+02  0.51100000000E-03 0. -1.
    9900012    2    1    2    0    0  0.37952863618E+02  0.14449510115E+02  0.19893368009E+01  0.50528860065E+02  0.30000000654E+02 0.  0.
         12    1    1    2    0    0 -0.37952863618E+02 -0.14449510115E+02 -0.19893368009E+01  0.40659139935E+02  0.00000000000E+00 0. -1.
         11    1    3    3    0    0  0.18591497448E+01  0.12171868462E+02  0.59977042482E+01  0.13696104415E+02  0.51100000000E-03 0. -1.
        -11    1    3    3    0    0  0.15261185300E+02  0.34581736229E+01 -0.37333188182E+00  0.15652543516E+02  0.51100000000E-03 0.  1.
         12    1    3    3    0    0  0.20832528573E+02 -0.11805319706E+01 -0.36350355655E+01  0.21180212134E+02  0.00000000000E+00 0. -1.
</event>
<event>
 7    1  0.2838209E-011  0.5052887E+02  0.7816164E-02  0.1300439E+00
        -11   -1    0    0    0    0  0.00000000000E+00  0.00000000000E+00  0.45593999997E+02  0.45594000000E+02  0.51100000000E-03 0. -1.
         11   -1    0    0    0    0 -0.00000000000E+00 -0.00000000000E+00 -0.45593999997E+02  0.45594000000E+02  0.51100000000E-03 0.  1.
    9900012    2    1    2    0    0  0.30373300406E+02 -0.20725634722E+02 -0.17351537623E+02  0.50528866093E+02  0.30000018977E+02 0.  0.
         12    1    1    2    0    0 -0.30373300406E+02  0.20725634722E+02  0.17351537623E+02  0.40659133907E+02  0.00000000000E+00 0. -1.
         11    1    3    3    0    0  0.15168152663E+02  0.53685888344E+00 -0.40381778531E+01  0.15705666280E+02  0.51100000000E-03 0. -1.
        -11    1    3    3    0    0  0.13329671681E+02 -0.65295069378E+01  0.51763723956E-01  0.14843088887E+02  0.51100000000E-03 0.  1.
        -12    1    3    3    0    0  0.18754760622E+01 -0.14732986667E+02 -0.13365123494E+02  0.19980110926E+02  0.00000000000E+00 0.  1.
</event>
<event>
 7    1  0.2838209E-011  0.5052887E+02  0.7816164E-02  0.1300439E+00
        -11   -1    0    0    0    0  0.00000000000E+00  0.00000000000E+00  0.45593999997E+02  0.45594000000E+02  0.51100000000E-03 0.  1.
         11   -1    0    0    0    0 -0.00000000000E+00 -0.00000000000E+00 -0.45593999997E+02  0.45594000000E+02  0.51100000000E-03 0. -1.
    9900012    2    1    2    0    0 -0.33809813887E+02 -0.44084584162E+01  0.22150088989E+02  0.50528874790E+02  0.30000045410E+02 0.  0.
         12    1    1    2    0    0  0.33809813887E+02  0.44084584162E+01 -0.22150088989E+02  0.40659125210E+02  0.00000000000E+00 0. -1.
         11    1    3    3    0    0 -0.64394017082E+00 -0.77503343252E+01  0.35875675854E+01  0.85646355752E+01  0.51100000000E-03 0. -1.
        -11    1    3    3    0    0 -0.14661048828E+01 -0.47009491602E+01  0.21575650301E+01  0.53761950908E+01  0.51100000000E-03 0.  1.
        -12    1    3    3    0    0 -0.31699768833E+02  0.80428250692E+01  0.16404956373E+02  0.36588044123E+02  0.00000000000E+00 0.  1.
</event>
<event>
 7    1  0.2838209E-011  0.5052887E+02  0.7816164E-02  0.1300439E+00
        -11   -1    0    0    0    0  0.00000000000E+00  0.00000000000E+00  0.45593999997E+02  0.45594000000E+02  0.51100000000E-03 0. -1.
         11   -1    0    0    0    0 -0.00000000000E+00 -0.00000000000E+00 -0.45593999997E+02  0.45594000000E+02  0.51100000000E-03 0.  1.
    9900012    2    1    2    0    0 -0.11019175298E+02 -0.37609882050E+02  0.10827723062E+02  0.50528867708E+02  0.30000023885E+02 0.  0.
         12    1    1    2    0    0  0.11019175298E+02  0.37609882050E+02 -0.10827723062E+02  0.40659132292E+02  0.00000000000E+00 0. -1.
         11    1    3    3    0    0 -0.68017168578E+01  0.41072966538E-01  0.27704266277E+01  0.73444062498E+01  0.51100000000E-03 0. -1.
        -11    1    3    3    0    0 -0.40307239286E+01 -0.22185200615E+01  0.61763037801E+01  0.77016423767E+01  0.51100000000E-03 0.  1.
        -12    1    3    3    0    0 -0.18673451154E+00 -0.35432434955E+02  0.18809926538E+01  0.35482819081E+02  0.00000000000E+00 0.  1.
</event>
<event>
 7    1  0.2838209E-011  0.5052886E+02  0.7816164E-02  0.1300439E+00
        -11   -1    0    0    0    0  0.00000000000E+00  0.00000000000E+00  0.45593999997E+02  0.45594000000E+02  0.51100000000E-03 0.  1.
         11   -1    0    0    0    0 -0.00000000000E+00 -0.00000000000E+00 -0.45593999997E+02  0.45594000000E+02  0.51100000000E-03 0. -1.
    9900012    2    1    2    0    0  0.19010978768E+02 -0.35109902622E+02 -0.76839241210E+01  0.50528864917E+02  0.30000015402E+02 0.  0.
         12    1    1    2    0    0 -0.19010978768E+02  0.35109902622E+02  0.76839241210E+01  0.40659135083E+02  0.00000000000E+00 0. -1.
         11    1    3    3    0    0 -0.18421292443E+01  0.19355751834E+01  0.19579800600E+01  0.33126390718E+01  0.51100000000E-03 0.  1.
        -11    1    3    3    0    0 -0.28038665453E+01 -0.42680364077E+01 -0.38175476421E+01  0.63758507387E+01  0.51100000000E-03 0. -1.
         12    1    3    3    0    0  0.23656974557E+02 -0.32777441397E+02 -0.58243565390E+01  0.40840375106E+02  0.00000000000E+00 0. -1.
</event>
<event>
 7    1  0.2838209E-011  0.5052886E+02  0.7816164E-02  0.1300439E+00
        -11   -1    0    0    0    0  0.00000000000E+00  0.00000000000E+00  0.45593999997E+02  0.45594000000E+02  0.51100000000E-03 0. -1.
         11   -1    0    0    0    0 -0.00000000000E+00 -0.00000000000E+00 -0.45593999997E+02  0.45594000000E+02  0.51100000000E-03 0.  1.
    9900012    2    1    2    0    0  0.88260273351E+01  0.39656804629E+02  0.16138788612E+01  0.50528861828E+02  0.30000006013E+02 0.  0.
         12    1    1    2    0    0 -0.88260273351E+01 -0.39656804629E+02 -0.16138788612E+01  0.40659138172E+02  0.00000000000E+00 0. -1.
         11    1    3    3    0    0  0.50791688996E+01  0.61220192748E+01  0.13786624522E+01  0.80732761089E+01  0.51100000000E-03 0. -1.
        -11    1    3    3    0    0  0.66469439427E+01  0.31666703651E+02 -0.81680269376E+01  0.33371824167E+02  0.51100000000E-03 0.  1.
         12    1    3    3    0    0 -0.29000855072E+01  0.18680817029E+01  0.84032433466E+01  0.90837615523E+01  0.00000000000E+00 0. -1.
</event>
<event>
 7    1  0.2838209E-011  0.5052885E+02  0.7816164E-02  0.1300439E+00
        -11   -1    0    0    0    0  0.00000000000E+00  0.00000000000E+00  0.45593999997E+02  0.45594000000E+02  0.51100000000E-03 0.  1.
         11   -1    0    0    0    0 -0.00000000000E+00 -0.00000000000E+00 -0.45593999997E+02  0.45594000000E+02  0.51100000000E-03 0. -1.
    9900012    2    1    2    0    0 -0.34728015173E+00 -0.78053275963E+00  0.40650172085E+02  0.50528851885E+02  0.29999975789E+02 0.  0.
         12    1    1    2    0    0  0.34728015173E+00  0.78053275963E+00 -0.40650172085E+02  0.40659148115E+02  0.00000000000E+00 0. -1.
         11    1    3    3    0    0  0.20141855990E+01  0.57634608405E+01  0.79752173792E+01  0.10043829797E+02  0.51100000000E-03 0. -1.
        -11    1    3    3    0    0  0.95528570725E+01  0.11658215625E+01  0.14936799326E+02  0.17768629450E+02  0.51100000000E-03 0.  1.
         12    1    3    3    0    0 -0.11914322823E+02 -0.77098151626E+01  0.17738155380E+02  0.22716392638E+02  0.00000000000E+00 0. -1.
</event>
<event>
 7    1  0.2838209E-011  0.5052886E+02  0.7816164E-02  0.1300439E+00
        -11   -1    0    0    0    0  0.00000000000E+00  0.00000000000E+00  0.45593999997E+02  0.45594000000E+02  0.51100000000E-03 0. -1.
         11   -1    0    0    0    0 -0.00000000000E+00 -0.00000000000E+00 -0.45593999997E+02  0.45594000000E+02  0.51100000000E-03 0.  1.
    9900012    2    1    2    0    0  0.96434167745E+01  0.30940570533E+02 -0.24553026685E+02  0.50528861896E+02  0.30000006218E+02 0.  0.
         12    1    1    2    0    0 -0.96434167745E+01 -0.30940570533E+02  0.24553026685E+02  0.40659138104E+02  0.00000000000E+00 0. -1.
         11    1    3    3    0    0 -0.10954849988E+01 -0.12338144877E+01  0.11449088686E+01  0.20082833842E+01  0.51100000000E-03 0. -1.
        -11    1    3    3    0    0 -0.63733635078E+00  0.53600623905E+01  0.41549867311E+01  0.68117825458E+01  0.51100000000E-03 0.  1.
        -12    1    3    3    0    0  0.11376238124E+02  0.26814322630E+02 -0.29852922285E+02  0.41708795966E+02  0.00000000000E+00 0.  1.
</event>
<event>
 7    1  0.2838209E-011  0.5052886E+02  0.7816164E-02  0.1300439E+00
        -11   -1    0    0    0    0  0.00000000000E+00  0.00000000000E+00  0.45593999997E+02  0.45594000000E+02  0.51100000000E-03 0.  1.
         11   -1    0    0    0    0 -0.00000000000E+00 -0.00000000000E+00 -0.45593999997E+02  0.45594000000E+02  0.51100000000E-03 0. -1.
    9900012    2    1    2    0    0  0.19263312000E+02 -0.34726919151E+02  0.87253299465E+01  0.50528862213E+02  0.30000007182E+02 0.  0.
         12    1    1    2    0    0 -0.19263312000E+02  0.34726919151E+02 -0.87253299465E+01  0.40659137787E+02  0.00000000000E+00 0. -1.
         11    1    3    3    0    0  0.21397354872E+02 -0.30964430294E+02  0.14721026196E+02  0.40414741760E+02  0.51100000000E-03 0.  1.
        -11    1    3    3    0    0  0.20879854528E+01 -0.20295360569E+01 -0.47346057977E+00  0.29500618704E+01  0.51100000000E-03 0. -1.
        -12    1    3    3    0    0 -0.42220283248E+01 -0.17329527996E+01 -0.55222356701E+01  0.71640585828E+01  0.00000000000E+00 0.  1.
</event>
<event>
 7    1  0.2838209E-011  0.5052886E+02  0.7816164E-02  0.1300439E+00
        -11   -1    0    0    0    0  0.00000000000E+00  0.00000000000E+00  0.45593999997E+02  0.45594000000E+02  0.51100000000E-03 0. -1.
         11   -1    0    0    0    0 -0.00000000000E+00 -0.00000000000E+00 -0.45593999997E+02  0.45594000000E+02  0.51100000000E-03 0.  1.
    9900012    2    1    2    0    0 -0.27712708834E+02  0.29645343820E+02 -0.25149481671E+01  0.50528860739E+02  0.30000002704E+02 0.  0.
         12    1    1    2    0    0  0.27712708834E+02 -0.29645343820E+02  0.25149481671E+01  0.40659139261E+02  0.00000000000E+00 0. -1.
         11    1    3    3    0    0 -0.10363465613E+01 -0.17386145328E+01 -0.19011615219E+01  0.27769065670E+01  0.51100000000E-03 0.  1.
        -11    1    3    3    0    0 -0.14919647881E+02  0.88521453621E+00 -0.17362336414E+01  0.15046395089E+02  0.51100000000E-03 0. -1.
        -12    1    3    3    0    0 -0.11756714392E+02  0.30498743817E+02  0.11224469961E+01  0.32705559084E+02  0.00000000000E+00 0.  1.
</event>
<event>
 7    1  0.2838209E-011  0.5052886E+02  0.7816164E-02  0.1300439E+00
        -11   -1    0    0    0    0  0.00000000000E+00  0.00000000000E+00  0.45593999997E+02  0.45594000000E+02  0.51100000000E-03 0.  1.
         11   -1    0    0    0    0 -0.00000000000E+00 -0.00000000000E+00 -0.45593999997E+02  0.45594000000E+02  0.51100000000E-03 0. -1.
    9900012    2    1    2    0    0  0.38592240040E+01  0.39404469751E+02  0.92498549845E+01  0.50528860025E+02  0.30000000533E+02 0.  0.
         12    1    1    2    0    0 -0.38592240040E+01 -0.39404469751E+02 -0.92498549845E+01  0.40659139975E+02  0.00000000000E+00 0. -1.
         11    1    3    3    0    0  0.10160754597E+01  0.17352677299E+02  0.15455233316E+02  0.23259665860E+02  0.51100000000E-03 0. -1.
        -11    1    3    3    0    0  0.95071392198E+00  0.11590111022E+02  0.42276712043E+01  0.12373671021E+02  0.51100000000E-03 0.  1.
         12    1    3    3    0    0  0.18924346223E+01  0.10461681429E+02 -0.10433049536E+02  0.14895523144E+02  0.00000000000E+00 0. -1.
</event>
<event>
 7    1  0.2838209E-011  0.5052886E+02  0.7816164E-02  0.1300439E+00
        -11   -1    0    0    0    0  0.00000000000E+00  0.00000000000E+00  0.45593999997E+02  0.45594000000E+02  0.51100000000E-03 0.  1.
         11   -1    0    0    0    0 -0.00000000000E+00 -0.00000000000E+00 -0.45593999997E+02  0.45594000000E+02  0.51100000000E-03 0. -1.
    9900012    2    1    2    0    0 -0.65580775313E+01  0.19815593429E+02  0.34892681870E+02  0.50528863610E+02  0.30000011430E+02 0.  0.
         12    1    1    2    0    0  0.65580775313E+01 -0.19815593429E+02 -0.34892681870E+02  0.40659136390E+02  0.00000000000E+00 0. -1.
         11    1    3    3    0    0 -0.67865715360E+01  0.18251620305E+02  0.18297650222E+02  0.26720464085E+02  0.51100000000E-03 0. -1.
        -11    1    3    3    0    0 -0.35095602727E+01  0.84925257267E+01  0.85302996396E+01  0.12538182433E+02  0.51100000000E-03 0.  1.
         12    1    3    3    0    0  0.37380542775E+01 -0.69285526027E+01  0.80647320080E+01  0.11270217092E+02  0.00000000000E+00 0. -1.
</event>
<event>
 7    1  0.2838209E-011  0.5052886E+02  0.7816164E-02  0.1300439E+00
        -11   -1    0    0    0    0  0.00000000000E+00  0.00000000000E+00  0.45593999997E+02  0.45594000000E+02  0.51100000000E-03 0.  1.
         11   -1    0    0    0    0 -0.00000000000E+00 -0.00000000000E+00 -0.45593999997E+02  0.45594000000E+02  0.51100000000E-03 0. -1.
    9900012    2    1    2    0    0  0.39348560905E+02  0.92320375679E+01 -0.44301030004E+01  0.50528861106E+02  0.30000003819E+02 0.  0.
         12    1    1    2    0    0 -0.39348560905E+02 -0.92320375679E+01  0.44301030004E+01  0.40659138894E+02  0.00000000000E+00 0. -1.
         11    1    3    3    0    0  0.79413032788E+01 -0.25390583253E+01  0.58067710273E+01  0.10160202014E+02  0.51100000000E-03 0. -1.
        -11    1    3    3    0    0  0.85852011487E+01 -0.49340358429E+01  0.96390489541E+00  0.99488442229E+01  0.51100000000E-03 0.  1.
        -12    1    3    3    0    0  0.22822056478E+02  0.16705131736E+02 -0.11200778923E+02  0.30419814869E+02  0.00000000000E+00 0.  1.
</event>
<event>
 7    1  0.2838209E-011  0.5052886E+02  0.7816164E-02  0.1300439E+00
        -11   -1    0    0    0    0  0.00000000000E+00  0.00000000000E+00  0.45593999997E+02  0.45594000000E+02  0.51100000000E-03 0.  1.
         11   -1    0    0    0    0 -0.00000000000E+00 -0.00000000000E+00 -0.45593999997E+02  0.45594000000E+02  0.51100000000E-03 0. -1.
    9900012    2    1    2    0    0 -0.28615262048E+02  0.27025729211E+02  0.10195210488E+02  0.50528861072E+02  0.30000003714E+02 0.  0.
         12    1    1    2    0    0  0.28615262048E+02 -0.27025729211E+02 -0.10195210488E+02  0.40659138928E+02  0.00000000000E+00 0. -1.
         11    1    3    3    0    0 -0.77300990664E+01  0.18287024356E+02 -0.60479232676E+01  0.20754446933E+02  0.51100000000E-03 0. -1.
        -11    1    3    3    0    0 -0.46553295202E+01  0.70498924158E+01  0.38498356810E+01  0.92840891340E+01  0.51100000000E-03 0.  1.
         12    1    3    3    0    0 -0.16229833461E+02  0.16888124392E+01  0.12393298075E+02  0.20490325005E+02  0.00000000000E+00 0. -1.
</event>
<event>
 7    1  0.2838209E-011  0.5052886E+02  0.7816164E-02  0.1300439E+00
        -11   -1    0    0    0    0  0.00000000000E+00  0.00000000000E+00  0.45593999997E+02  0.45594000000E+02  0.51100000000E-03 0.  1.
         11   -1    0    0    0    0 -0.00000000000E+00 -0.00000000000E+00 -0.45593999997E+02  0.45594000000E+02  0.51100000000E-03 0. -1.
    9900012    2    1    2    0    0  0.43205572621E+01  0.82981759771E+01  0.39568152669E+02  0.50528860250E+02  0.30000001215E+02 0.  0.
         12    1    1    2    0    0 -0.43205572621E+01 -0.82981759771E+01 -0.39568152669E+02  0.40659139750E+02  0.00000000000E+00 0. -1.
         11    1    3    3    0    0  0.88464735103E-01 -0.33778953733E+01  0.21795901211E+00  0.33860758341E+01  0.51100000000E-03 0. -1.
        -11    1    3    3    0    0 -0.54906161070E+01  0.37659828676E+00  0.49437655186E+00  0.55256764238E+01  0.51100000000E-03 0.  1.
        -12    1    3    3    0    0  0.97227086341E+01  0.11299473064E+02  0.38855817105E+02  0.41617107992E+02  0.00000000000E+00 0.  1.
</event>
<event>
 7    1  0.2838209E-011  0.5052886E+02  0.7816164E-02  0.1300439E+00
        -11   -1    0    0    0    0  0.00000000000E+00  0.00000000000E+00  0.45593999997E+02  0.45594000000E+02  0.51100000000E-03 0.  1.
         11   -1    0    0    0    0 -0.00000000000E+00 -0.00000000000E+00 -0.45593999997E+02  0.45594000000E+02  0.51100000000E-03 0. -1.
    9900012    2    1    2    0    0 -0.37165108640E+01 -0.61924014633E+01  0.40012589333E+02  0.50528860880E+02  0.30000003130E+02 0.  0.
         12    1    1    2    0    0  0.37165108640E+01  0.61924014633E+01 -0.40012589333E+02  0.40659139120E+02  0.00000000000E+00 0. -1.
         11    1    3    3    0    0 -0.28932538442E+01  0.27617897671E+01  0.89964462104E+01  0.98455291987E+01  0.51100000000E-03 0.  1.
        -11    1    3    3    0    0 -0.10211412955E+02 -0.17366532631E+01  0.38535409014E+01  0.11051637744E+02  0.51100000000E-03 0. -1.
        -12    1    3    3    0    0  0.93881559350E+01 -0.72175379673E+01  0.27162602221E+02  0.29631693937E+02  0.00000000000E+00 0.  1.
</event>
<event>
 7    1  0.2838209E-011  0.5052887E+02  0.7816164E-02  0.1300439E+00
        -11   -1    0    0    0    0  0.00000000000E+00  0.00000000000E+00  0.45593999997E+02  0.45594000000E+02  0.51100000000E-03 0.  1.
         11   -1    0    0    0    0 -0.00000000000E+00 -0.00000000000E+00 -0.45593999997E+02  0.45594000000E+02  0.51100000000E-03 0. -1.
    9900012    2    1    2    0    0  0.21375437578E+02 -0.28148740493E+02  0.20097369403E+02  0.50528865972E+02  0.30000018608E+02 0.  0.
         12    1    1    2    0    0 -0.21375437578E+02  0.28148740493E+02 -0.20097369403E+02  0.40659134028E+02  0.00000000000E+00 0. -1.
         11    1    3    3    0    0 -0.99948892505E+00 -0.26718339796E+01  0.55411195308E+00  0.29059792228E+01  0.51100000000E-03 0. -1.
        -11    1    3    3    0    0  0.22375585750E+01 -0.68112968672E+01  0.18838105492E+02  0.20156255907E+02  0.51100000000E-03 0.  1.
         12    1    3    3    0    0  0.20137367928E+02 -0.18665609647E+02  0.70515195819E+00  0.27466630842E+02  0.00000000000E+00 0. -1.
</event>
<event>
 7    1  0.2838209E-011  0.5052887E+02  0.7816164E-02  0.1300439E+00
        -11   -1    0    0    0    0  0.00000000000E+00  0.00000000000E+00  0.45593999997E+02  0.45594000000E+02  0.51100000000E-03 0.  1.
         11   -1    0    0    0    0 -0.00000000000E+00 -0.00000000000E+00 -0.45593999997E+02  0.45594000000E+02  0.51100000000E-03 0. -1.
    9900012    2    1    2    0    0  0.31049315177E+01 -0.40333128705E+02 -0.40942899729E+01  0.50528867185E+02  0.30000022296E+02 0.  0.
         12    1    1    2    0    0 -0.31049315177E+01  0.40333128705E+02  0.40942899729E+01  0.40659132815E+02  0.00000000000E+00 0. -1.
         11    1    3    3    0    0  0.48570881627E+00  0.34233416899E+01  0.21390258883E+01  0.40657857042E+01  0.51100000000E-03 0. -1.
        -11    1    3    3    0    0 -0.55644426512E+01 -0.16268458784E+02 -0.41662032250E+00  0.17198818157E+02  0.51100000000E-03 0.  1.
        -12    1    3    3    0    0  0.81836653526E+01 -0.27488011611E+02 -0.58166955387E+01  0.29264263324E+02  0.00000000000E+00 0.  1.
</event>
<event>
 7    1  0.2838209E-011  0.5052886E+02  0.7816164E-02  0.1300439E+00
        -11   -1    0    0    0    0  0.00000000000E+00  0.00000000000E+00  0.45593999997E+02  0.45594000000E+02  0.51100000000E-03 0.  1.
         11   -1    0    0    0    0 -0.00000000000E+00 -0.00000000000E+00 -0.45593999997E+02  0.45594000000E+02  0.51100000000E-03 0. -1.
    9900012    2    1    2    0    0  0.16461713054E+02  0.12448334001E+01  0.37156804161E+02  0.50528859548E+02  0.29999999082E+02 0.  0.
         12    1    1    2    0    0 -0.16461713054E+02 -0.12448334001E+01 -0.37156804161E+02  0.40659140452E+02  0.00000000000E+00 0. -1.
         11    1    3    3    0    0  0.77557153167E+01 -0.91270967743E+01  0.49194437628E+01  0.12948202300E+02  0.51100000000E-03 0.  1.
        -11    1    3    3    0    0 -0.36002079054E+01  0.26074278172E+01  0.10720416723E+02  0.11605494895E+02  0.51100000000E-03 0. -1.
        -12    1    3    3    0    0  0.12306205643E+02  0.77645023572E+01  0.21516943675E+02  0.25975162353E+02  0.00000000000E+00 0.  1.
</event>
<event>
 7    1  0.2838209E-011  0.5052886E+02  0.7816164E-02  0.1300439E+00
        -11   -1    0    0    0    0  0.00000000000E+00  0.00000000000E+00  0.45593999997E+02  0.45594000000E+02  0.51100000000E-03 0.  1.
         11   -1    0    0    0    0 -0.00000000000E+00 -0.00000000000E+00 -0.45593999997E+02  0.45594000000E+02  0.51100000000E-03 0. -1.
    9900012    2    1    2    0    0  0.36888728716E+02 -0.11032687506E+02  0.13063949646E+02  0.50528864738E+02  0.30000014859E+02 0.  0.
         12    1    1    2    0    0 -0.36888728716E+02  0.11032687506E+02 -0.13063949646E+02  0.40659135262E+02  0.00000000000E+00 0. -1.
         11    1    3    3    0    0  0.70224304198E+01  0.49117145571E+01 -0.61337532056E+00  0.85916062780E+01  0.51100000000E-03 0. -1.
        -11    1    3    3    0    0  0.27505131208E+02 -0.69473619863E+01  0.42358463090E+01  0.28683452992E+02  0.51100000000E-03 0.  1.
        -12    1    3    3    0    0  0.23611670882E+01 -0.89970400764E+01  0.94414786578E+01  0.13253805469E+02  0.00000000000E+00 0.  1.
</event>
<event>
 7    1  0.2838209E-011  0.5052892E+02  0.7816164E-02  0.1300439E+00
        -11   -1    0    0    0    0  0.00000000000E+00  0.00000000000E+00  0.45593999997E+02  0.45594000000E+02  0.51100000000E-03 0. -1.
         11   -1    0    0    0    0 -0.00000000000E+00 -0.00000000000E+00 -0.45593999997E+02  0.45594000000E+02  0.51100000000E-03 0.  1.
    9900012    2    1    2    0    0 -0.17014985662E+02 -0.80981706396E+00 -0.36918770113E+02  0.50528915807E+02  0.30000170086E+02 0.  0.
         12    1    1    2    0    0  0.17014985662E+02  0.80981706396E+00  0.36918770113E+02  0.40659084193E+02  0.00000000000E+00 0. -1.
         11    1    3    3    0    0 -0.49883215350E+01 -0.87084529797E+01 -0.26154499323E+02  0.28013895483E+02  0.51100000000E-03 0. -1.
        -11    1    3    3    0    0 -0.22267415185E+01 -0.13917653174E+01 -0.84064323575E+01  0.88070138942E+01  0.51100000000E-03 0.  1.
         12    1    3    3    0    0 -0.97999226084E+01  0.92904012331E+01 -0.23578384327E+01  0.13708006430E+02  0.00000000000E+00 0. -1.
</event>
<event>
 7    1  0.2838209E-011  0.5052885E+02  0.7816164E-02  0.1300439E+00
        -11   -1    0    0    0    0  0.00000000000E+00  0.00000000000E+00  0.45593999997E+02  0.45594000000E+02  0.51100000000E-03 0.  1.
         11   -1    0    0    0    0 -0.00000000000E+00 -0.00000000000E+00 -0.45593999997E+02  0.45594000000E+02  0.51100000000E-03 0. -1.
    9900012    2    1    2    0    0 -0.36960854266E+02  0.11938385533E+02  0.12022339088E+02  0.50528850546E+02  0.29999971719E+02 0.  0.
         12    1    1    2    0    0  0.36960854266E+02 -0.11938385533E+02 -0.12022339088E+02  0.40659149454E+02  0.00000000000E+00 0. -1.
         11    1    3    3    0    0 -0.15782612178E+02 -0.48056893916E+01  0.54179843434E+01  0.17364908646E+02  0.51100000000E-03 0. -1.
        -11    1    3    3    0    0 -0.13474456800E+02  0.16233991907E+01  0.86148441625E+01  0.16075196770E+02  0.51100000000E-03 0.  1.
        -12    1    3    3    0    0 -0.77037852886E+01  0.15120675734E+02 -0.20104894180E+01  0.17088745130E+02  0.00000000000E+00 0.  1.
</event>
<event>
 7    1  0.2838209E-011  0.5052884E+02  0.7816164E-02  0.1300439E+00
        -11   -1    0    0    0    0  0.00000000000E+00  0.00000000000E+00  0.45593999997E+02  0.45594000000E+02  0.51100000000E-03 0.  1.
         11   -1    0    0    0    0 -0.00000000000E+00 -0.00000000000E+00 -0.45593999997E+02  0.45594000000E+02  0.51100000000E-03 0. -1.
    9900012    2    1    2    0    0 -0.19538841891E+02  0.13116823030E+02  0.33156446294E+02  0.50528839658E+02  0.29999938625E+02 0.  0.
         12    1    1    2    0    0  0.19538841891E+02 -0.13116823030E+02 -0.33156446294E+02  0.40659160342E+02  0.00000000000E+00 0. -1.
         11    1    3    3    0    0 -0.13109402909E+02  0.85966614589E+01  0.74295963535E+01  0.17348139241E+02  0.51100000000E-03 0. -1.
        -11    1    3    3    0    0 -0.87870652796E+01  0.70055929660E+01  0.52225112938E+01  0.12392153707E+02  0.51100000000E-03 0.  1.
         12    1    3    3    0    0  0.23576262975E+01 -0.24854313951E+01  0.20504338647E+02  0.20788546710E+02  0.00000000000E+00 0. -1.
</event>
<event>
 7    1  0.2838209E-011  0.5052886E+02  0.7816164E-02  0.1300439E+00
        -11   -1    0    0    0    0  0.00000000000E+00  0.00000000000E+00  0.45593999997E+02  0.45594000000E+02  0.51100000000E-03 0. -1.
         11   -1    0    0    0    0 -0.00000000000E+00 -0.00000000000E+00 -0.45593999997E+02  0.45594000000E+02  0.51100000000E-03 0.  1.
    9900012    2    1    2    0    0 -0.30055456595E+02 -0.10818423339E+02 -0.25155454922E+02  0.50528859982E+02  0.30000000401E+02 0.  0.
         12    1    1    2    0    0  0.30055456595E+02  0.10818423339E+02  0.25155454922E+02  0.40659140018E+02  0.00000000000E+00 0. -1.
         11    1    3    3    0    0  0.18106550376E+01 -0.47077460490E+01 -0.15038111087E+01  0.52633442448E+01  0.51100000000E-03 0. -1.
        -11    1    3    3    0    0  0.11672191912E+00 -0.65727548860E+01 -0.33216108744E+01  0.73653126112E+01  0.51100000000E-03 0.  1.
         12    1    3    3    0    0 -0.31982833552E+02  0.46207759636E+00 -0.20330032938E+02  0.37900203126E+02  0.00000000000E+00 0. -1.
</event>
<event>
 7    1  0.2838209E-011  0.5052886E+02  0.7816164E-02  0.1300439E+00
        -11   -1    0    0    0    0  0.00000000000E+00  0.00000000000E+00  0.45593999997E+02  0.45594000000E+02  0.51100000000E-03 0. -1.
         11   -1    0    0    0    0 -0.00000000000E+00 -0.00000000000E+00 -0.45593999997E+02  0.45594000000E+02  0.51100000000E-03 0.  1.
    9900012    2    1    2    0    0  0.27308169631E+02  0.21316970625E+02 -0.21284186079E+02  0.50528856597E+02  0.29999990113E+02 0.  0.
         12    1    1    2    0    0 -0.27308169631E+02 -0.21316970625E+02  0.21284186079E+02  0.40659143403E+02  0.00000000000E+00 0. -1.
         11    1    3    3    0    0  0.32224797208E+01  0.11610722249E+02 -0.12280367548E+02  0.17204670123E+02  0.51100000000E-03 0. -1.
        -11    1    3    3    0    0  0.61846973539E+01  0.12476908856E+02 -0.47894725606E+01  0.14726261699E+02  0.51100000000E-03 0.  1.
        -12    1    3    3    0    0  0.17900992556E+02 -0.27706604798E+01 -0.42143459710E+01  0.18597924775E+02  0.00000000000E+00 0.  1.
</event>
<event>
 7    1  0.2838209E-011  0.5052886E+02  0.7816164E-02  0.1300439E+00
        -11   -1    0    0    0    0  0.00000000000E+00  0.00000000000E+00  0.45593999997E+02  0.45594000000E+02  0.51100000000E-03 0.  1.
         11   -1    0    0    0    0 -0.00000000000E+00 -0.00000000000E+00 -0.45593999997E+02  0.45594000000E+02  0.51100000000E-03 0. -1.
    9900012    2    1    2    0    0 -0.30326581862E+02 -0.24296938079E+02  0.11963391826E+02  0.50528861896E+02  0.30000006218E+02 0.  0.
         12    1    1    2    0    0  0.30326581862E+02  0.24296938079E+02 -0.11963391826E+02  0.40659138104E+02  0.00000000000E+00 0. -1.
         11    1    3    3    0    0 -0.36153070080E+00 -0.52580655490E+01  0.14888052002E+00  0.52725822360E+01  0.51100000000E-03 0. -1.
        -11    1    3    3    0    0 -0.13439941430E+02 -0.22999575927E+02  0.61002266300E+01  0.27328104282E+02  0.51100000000E-03 0.  1.
        -12    1    3    3    0    0 -0.16525109731E+02  0.39607033972E+01  0.57142846757E+01  0.17928175377E+02  0.00000000000E+00 0.  1.
</event>
<event>
 7    1  0.2838209E-011  0.5052884E+02  0.7816164E-02  0.1300439E+00
        -11   -1    0    0    0    0  0.00000000000E+00  0.00000000000E+00  0.45593999997E+02  0.45594000000E+02  0.51100000000E-03 0. -1.
         11   -1    0    0    0    0 -0.00000000000E+00 -0.00000000000E+00 -0.45593999997E+02  0.45594000000E+02  0.51100000000E-03 0.  1.
    9900012    2    1    2    0    0 -0.12046487694E+02  0.37538318140E+02 -0.99460494217E+01  0.50528842438E+02  0.29999947075E+02 0.  0.
         12    1    1    2    0    0  0.12046487694E+02 -0.37538318140E+02  0.99460494217E+01  0.40659157562E+02  0.00000000000E+00 0. -1.
         11    1    3    3    0    0 -0.68073194825E+01 -0.22844097483E+00  0.42305269802E+01  0.80180510479E+01  0.51100000000E-03 0. -1.
        -11    1    3    3    0    0 -0.27401756098E+01  0.11468770973E+01 -0.28024624792E+01  0.40838322269E+01  0.51100000000E-03 0.  1.
        -12    1    3    3    0    0 -0.24989926019E+01  0.36619882018E+02 -0.11374113923E+02  0.38426959163E+02  0.00000000000E+00 0.  1.
</event>
<event>
 7    1  0.2838209E-011  0.5052887E+02  0.7816164E-02  0.1300439E+00
        -11   -1    0    0    0    0  0.00000000000E+00  0.00000000000E+00  0.45593999997E+02  0.45594000000E+02  0.51100000000E-03 0.  1.
         11   -1    0    0    0    0 -0.00000000000E+00 -0.00000000000E+00 -0.45593999997E+02  0.45594000000E+02  0.51100000000E-03 0. -1.
    9900012    2    1    2    0    0  0.11679230397E+02  0.19254643704E+02  0.33852901045E+02  0.50528872660E+02  0.30000038939E+02 0.  0.
         12    1    1    2    0    0 -0.11679230397E+02 -0.19254643704E+02 -0.33852901045E+02  0.40659127340E+02  0.00000000000E+00 0. -1.
         11    1    3    3    0    0  0.48179655040E+01  0.32804921791E+01 -0.33124695413E+01  0.67042430787E+01  0.51100000000E-03 0. -1.
        -11    1    3    3    0    0  0.76924158876E+01  0.49118470502E+00  0.12958403121E+02  0.15077623695E+02  0.51100000000E-03 0.  1.
        -12    1    3    3    0    0 -0.83115099512E+00  0.15482966820E+02  0.24206967466E+02  0.28747005886E+02  0.00000000000E+00 0.  1.
</event>
<event>
 7    1  0.2838209E-011  0.5052886E+02  0.7816164E-02  0.1300439E+00
        -11   -1    0    0    0    0  0.00000000000E+00  0.00000000000E+00  0.45593999997E+02  0.45594000000E+02  0.51100000000E-03 0. -1.
         11   -1    0    0    0    0 -0.00000000000E+00 -0.00000000000E+00 -0.45593999997E+02  0.45594000000E+02  0.51100000000E-03 0.  1.
    9900012    2    1    2    0    0  0.14234059307E+02  0.33416934695E+01 -0.37939296802E+02  0.50528860788E+02  0.30000002852E+02 0.  0.
         12    1    1    2    0    0 -0.14234059307E+02 -0.33416934695E+01  0.37939296802E+02  0.40659139212E+02  0.00000000000E+00 0. -1.
         11    1    3    3    0    0 -0.11397400813E+01 -0.42201686445E+01  0.11469886048E+01  0.45193377791E+01  0.51100000000E-03 0. -1.
        -11    1    3    3    0    0  0.60121388197E+01 -0.54230991580E+01 -0.10665116386E+02  0.13390314614E+02  0.51100000000E-03 0.  1.
        -12    1    3    3    0    0  0.93616605689E+01  0.12984961272E+02 -0.28421169021E+02  0.32619208396E+02  0.00000000000E+00 0.  1.
</event>
<event>
 7    1  0.2838209E-011  0.5052886E+02  0.7816164E-02  0.1300439E+00
        -11   -1    0    0    0    0  0.00000000000E+00  0.00000000000E+00  0.45593999997E+02  0.45594000000E+02  0.51100000000E-03 0. -1.
         11   -1    0    0    0    0 -0.00000000000E+00 -0.00000000000E+00 -0.45593999997E+02  0.45594000000E+02  0.51100000000E-03 0.  1.
    9900012    2    1    2    0    0 -0.25485534375E+02 -0.29379728503E+02 -0.11852624065E+02  0.50528860726E+02  0.30000002661E+02 0.  0.
         12    1    1    2    0    0  0.25485534375E+02  0.29379728503E+02  0.11852624065E+02  0.40659139274E+02  0.00000000000E+00 0. -1.
         11    1    3    3    0    0 -0.24231024978E+02 -0.14888230464E+02  0.44960317594E-01  0.28439479593E+02  0.51100000000E-03 0. -1.
        -11    1    3    3    0    0  0.25297841959E+01  0.35898902523E+00  0.20265387103E+00  0.25631523658E+01  0.51100000000E-03 0.  1.
        -12    1    3    3    0    0 -0.37842935926E+01 -0.14850487064E+02 -0.12100238253E+02  0.19526228766E+02  0.00000000000E+00 0.  1.
</event>
<event>
 7    1  0.2838209E-011  0.5052884E+02  0.7816164E-02  0.1300439E+00
        -11   -1    0    0    0    0  0.00000000000E+00  0.00000000000E+00  0.45593999997E+02  0.45594000000E+02  0.51100000000E-03 0.  1.
         11   -1    0    0    0    0 -0.00000000000E+00 -0.00000000000E+00 -0.45593999997E+02  0.45594000000E+02  0.51100000000E-03 0. -1.
    9900012    2    1    2    0    0  0.15508586039E+02  0.42068127406E+01  0.37349077528E+02  0.50528842279E+02  0.29999946592E+02 0.  0.
         12    1    1    2    0    0 -0.15508586039E+02 -0.42068127406E+01 -0.37349077528E+02  0.40659157721E+02  0.00000000000E+00 0. -1.
         11    1    3    3    0    0  0.57358319858E+00  0.38603644889E+01 -0.13045117194E+00  0.39049237435E+01  0.51100000000E-03 0. -1.
        -11    1    3    3    0    0  0.17018607418E+02 -0.43064320513E+01  0.13601285536E+02  0.22207506027E+02  0.51100000000E-03 0.  1.
         12    1    3    3    0    0 -0.20836045780E+01  0.46528803030E+01  0.23878243165E+02  0.24416412508E+02  0.00000000000E+00 0. -1.
</event>
<event>
 7    1  0.2838209E-011  0.5052883E+02  0.7816164E-02  0.1300439E+00
        -11   -1    0    0    0    0  0.00000000000E+00  0.00000000000E+00  0.45593999997E+02  0.45594000000E+02  0.51100000000E-03 0.  1.
         11   -1    0    0    0    0 -0.00000000000E+00 -0.00000000000E+00 -0.45593999997E+02  0.45594000000E+02  0.51100000000E-03 0. -1.
    9900012    2    1    2    0    0  0.18008973971E+02 -0.26169777195E+02  0.25376906039E+02  0.50528834464E+02  0.29999922838E+02 0.  0.
         12    1    1    2    0    0 -0.18008973971E+02  0.26169777195E+02 -0.25376906039E+02  0.40659165536E+02  0.00000000000E+00 0. -1.
         11    1    3    3    0    0  0.11054845151E+02 -0.18260069071E+02  0.28013459219E+01  0.21528754330E+02  0.51100000000E-03 0. -1.
        -11    1    3    3    0    0  0.26137182150E+01 -0.10163466195E+02  0.68509602043E+01  0.12532486744E+02  0.51100000000E-03 0.  1.
         12    1    3    3    0    0  0.43404106051E+01  0.22537580701E+01  0.15724599913E+02  0.16467593391E+02  0.00000000000E+00 0. -1.
</event>
<event>
 7    1  0.2838209E-011  0.5052886E+02  0.7816164E-02  0.1300439E+00
        -11   -1    0    0    0    0  0.00000000000E+00  0.00000000000E+00  0.45593999997E+02  0.45594000000E+02  0.51100000000E-03 0. -1.
         11   -1    0    0    0    0 -0.00000000000E+00 -0.00000000000E+00 -0.45593999997E+02  0.45594000000E+02  0.51100000000E-03 0.  1.
    9900012    2    1    2    0    0 -0.17106377393E+01  0.35346064224E+02 -0.20022365360E+02  0.50528860164E+02  0.30000000954E+02 0.  0.
         12    1    1    2    0    0  0.17106377393E+01 -0.35346064224E+02  0.20022365360E+02  0.40659139836E+02  0.00000000000E+00 0. -1.
         11    1    3    3    0    0 -0.65178972650E+01 -0.19997768042E+01  0.14233131285E+01  0.69647622032E+01  0.51100000000E-03 0. -1.
        -11    1    3    3    0    0  0.45340787214E+01  0.19167130433E+02 -0.10115178598E+02  0.22141671057E+02  0.51100000000E-03 0.  1.
        -12    1    3    3    0    0  0.27318080435E+00  0.18178710595E+02 -0.11330499891E+02  0.21422426904E+02  0.00000000000E+00 0.  1.
</event>
<event>
 7    1  0.2838209E-011  0.5052886E+02  0.7816164E-02  0.1300439E+00
        -11   -1    0    0    0    0  0.00000000000E+00  0.00000000000E+00  0.45593999997E+02  0.45594000000E+02  0.51100000000E-03 0.  1.
         11   -1    0    0    0    0 -0.00000000000E+00 -0.00000000000E+00 -0.45593999997E+02  0.45594000000E+02  0.51100000000E-03 0. -1.
    9900012    2    1    2    0    0  0.23313179971E+02 -0.32057688661E+02  0.90535077415E+01  0.50528858776E+02  0.29999996735E+02 0.  0.
         12    1    1    2    0    0 -0.23313179971E+02  0.32057688661E+02 -0.90535077415E+01  0.40659141224E+02  0.00000000000E+00 0. -1.
         11    1    3    3    0    0  0.48029430675E+00 -0.44263090182E+01  0.11921852742E+02  0.12726093950E+02  0.51100000000E-03 0.  1.
        -11    1    3    3    0    0  0.10644775088E+02 -0.47806624090E+01 -0.23290101581E+01  0.11899170489E+02  0.51100000000E-03 0. -1.
        -12    1    3    3    0    0  0.12188110577E+02 -0.22850717234E+02 -0.53933484266E+00  0.25903594338E+02  0.00000000000E+00 0.  1.
</event>
<event>
 7    1  0.2838209E-011  0.5052886E+02  0.7816164E-02  0.1300439E+00
        -11   -1    0    0    0    0  0.00000000000E+00  0.00000000000E+00  0.45593999997E+02  0.45594000000E+02  0.51100000000E-03 0. -1.
         11   -1    0    0    0    0 -0.00000000000E+00 -0.00000000000E+00 -0.45593999997E+02  0.45594000000E+02  0.51100000000E-03 0.  1.
    9900012    2    1    2    0    0  0.72789915376E+01  0.39438519551E+02  0.66921493745E+01  0.50528863198E+02  0.30000010178E+02 0.  0.
         12    1    1    2    0    0 -0.72789915376E+01 -0.39438519551E+02 -0.66921493745E+01  0.40659136802E+02  0.00000000000E+00 0. -1.
         11    1    3    3    0    0 -0.36282367261E+01  0.61713406819E+00  0.92749628887E+00  0.37954190579E+01  0.51100000000E-03 0. -1.
        -11    1    3    3    0    0  0.12178950018E+01  0.47670809064E+01 -0.74616008280E+01  0.89377746549E+01  0.51100000000E-03 0.  1.
         12    1    3    3    0    0  0.96893332619E+01  0.34054304577E+02  0.13226253914E+02  0.37795669485E+02  0.00000000000E+00 0. -1.
</event>
<event>
 7    1  0.2838209E-011  0.5052886E+02  0.7816164E-02  0.1300439E+00
        -11   -1    0    0    0    0  0.00000000000E+00  0.00000000000E+00  0.45593999997E+02  0.45594000000E+02  0.51100000000E-03 0.  1.
         11   -1    0    0    0    0 -0.00000000000E+00 -0.00000000000E+00 -0.45593999997E+02  0.45594000000E+02  0.51100000000E-03 0. -1.
    9900012    2    1    2    0    0  0.25251309273E+02 -0.61199998999E+01  0.31274317489E+02  0.50528856463E+02  0.29999989704E+02 0.  0.
         12    1    1    2    0    0 -0.25251309273E+02  0.61199998999E+01 -0.31274317489E+02  0.40659143537E+02  0.00000000000E+00 0. -1.
         11    1    3    3    0    0 -0.28925061260E+01  0.19621469521E+01 -0.16153035241E+01  0.38504308962E+01  0.51100000000E-03 0. -1.
        -11    1    3    3    0    0  0.36327003210E+00 -0.28880511522E+01 -0.47871298441E+00  0.29499103302E+01  0.51100000000E-03 0.  1.
        -12    1    3    3    0    0  0.27780545367E+02 -0.51940956999E+01  0.33368333997E+02  0.43728515236E+02  0.00000000000E+00 0.  1.
</event>
<event>
 7    1  0.2838209E-011  0.5052885E+02  0.7816164E-02  0.1300439E+00
        -11   -1    0    0    0    0  0.00000000000E+00  0.00000000000E+00  0.45593999997E+02  0.45594000000E+02  0.51100000000E-03 0. -1.
         11   -1    0    0    0    0 -0.00000000000E+00 -0.00000000000E+00 -0.45593999997E+02  0.45594000000E+02  0.51100000000E-03 0.  1.
    9900012    2    1    2    0    0 -0.14300486231E+02 -0.36399820277E+02 -0.11122749776E+02  0.50528851150E+02  0.29999973555E+02 0.  0.
         12    1    1    2    0    0  0.14300486231E+02  0.36399820277E+02  0.11122749776E+02  0.40659148850E+02  0.00000000000E+00 0. -1.
         11    1    3    3    0    0  0.14292903359E+01 -0.14330424040E+02 -0.14717041534E+02  0.20591144596E+02  0.51100000000E-03 0. -1.
        -11    1    3    3    0    0 -0.35249564123E+01 -0.14602103806E+02  0.42610639946E+01  0.15614205708E+02  0.51100000000E-03 0.  1.
        -12    1    3    3    0    0 -0.12204820154E+02 -0.74672924320E+01 -0.66677223725E+00  0.14323500846E+02  0.00000000000E+00 0.  1.
</event>
<event>
 7    1  0.2838209E-011  0.5052885E+02  0.7816164E-02  0.1300439E+00
        -11   -1    0    0    0    0  0.00000000000E+00  0.00000000000E+00  0.45593999997E+02  0.45594000000E+02  0.51100000000E-03 0. -1.
         11   -1    0    0    0    0 -0.00000000000E+00 -0.00000000000E+00 -0.45593999997E+02  0.45594000000E+02  0.51100000000E-03 0.  1.
    9900012    2    1    2    0    0  0.19940881762E+02 -0.17297689260E+02 -0.30924388156E+02  0.50528848484E+02  0.29999965452E+02 0.  0.
         12    1    1    2    0    0 -0.19940881762E+02  0.17297689260E+02  0.30924388156E+02  0.40659151516E+02  0.00000000000E+00 0. -1.
         11    1    3    3    0    0 -0.44347339042E+01  0.21990053958E+01 -0.45214332654E+00  0.49706059370E+01  0.51100000000E-03 0. -1.
        -11    1    3    3    0    0  0.13783235364E+02 -0.66013003766E+01 -0.22149094921E+02  0.26909796540E+02  0.51100000000E-03 0.  1.
        -12    1    3    3    0    0  0.10592380302E+02 -0.12895394279E+02 -0.83231499085E+01  0.18648446007E+02  0.00000000000E+00 0.  1.
</event>
<event>
 7    1  0.2838209E-011  0.5052887E+02  0.7816164E-02  0.1300439E+00
        -11   -1    0    0    0    0  0.00000000000E+00  0.00000000000E+00  0.45593999997E+02  0.45594000000E+02  0.51100000000E-03 0. -1.
         11   -1    0    0    0    0 -0.00000000000E+00 -0.00000000000E+00 -0.45593999997E+02  0.45594000000E+02  0.51100000000E-03 0.  1.
    9900012    2    1    2    0    0 -0.22598886246E+02 -0.26647207584E+02 -0.20793777308E+02  0.50528874255E+02  0.30000043786E+02 0.  0.
         12    1    1    2    0    0  0.22598886246E+02  0.26647207584E+02  0.20793777308E+02  0.40659125745E+02  0.00000000000E+00 0. -1.
         11    1    3    3    0    0 -0.15981447132E+02 -0.79045393148E+01 -0.30644220137E+01  0.18090856164E+02  0.51100000000E-03 0. -1.
        -11    1    3    3    0    0 -0.11033067049E+02 -0.40836245072E+01 -0.90197052644E+01  0.14824292258E+02  0.51100000000E-03 0.  1.
         12    1    3    3    0    0  0.44156279353E+01 -0.14659043762E+02 -0.87096500295E+01  0.17613725833E+02  0.00000000000E+00 0. -1.
</event>
<event>
 7    1  0.2838209E-011  0.5052886E+02  0.7816164E-02  0.1300439E+00
        -11   -1    0    0    0    0  0.00000000000E+00  0.00000000000E+00  0.45593999997E+02  0.45594000000E+02  0.51100000000E-03 0.  1.
         11   -1    0    0    0    0 -0.00000000000E+00 -0.00000000000E+00 -0.45593999997E+02  0.45594000000E+02  0.51100000000E-03 0. -1.
    9900012    2    1    2    0    0  0.18434277670E+02 -0.34004276791E+02 -0.12532044071E+02  0.50528861275E+02  0.30000004331E+02 0.  0.
         12    1    1    2    0    0 -0.18434277670E+02  0.34004276791E+02  0.12532044071E+02  0.40659138725E+02  0.00000000000E+00 0. -1.
         11    1    3    3    0    0  0.20366310377E+02 -0.21835425622E+02 -0.55423491440E+01  0.30369228583E+02  0.51100000000E-03 0.  1.
        -11    1    3    3    0    0 -0.10239901034E+01  0.27084022606E+01 -0.40321555099E+01  0.49640987958E+01  0.51100000000E-03 0. -1.
        -12    1    3    3    0    0 -0.90804260298E+00 -0.14877253429E+02 -0.29575394171E+01  0.15195533896E+02  0.00000000000E+00 0.  1.
</event>
<event>
 7    1  0.2838209E-011  0.5052887E+02  0.7816164E-02  0.1300439E+00
        -11   -1    0    0    0    0  0.00000000000E+00  0.00000000000E+00  0.45593999997E+02  0.45594000000E+02  0.51100000000E-03 0.  1.
         11   -1    0    0    0    0 -0.00000000000E+00 -0.00000000000E+00 -0.45593999997E+02  0.45594000000E+02  0.51100000000E-03 0. -1.
    9900012    2    1    2    0    0 -0.49962103540E+00  0.25646153812E+02 -0.31546635801E+02  0.50528867485E+02  0.30000023207E+02 0.  0.
         12    1    1    2    0    0  0.49962103540E+00 -0.25646153812E+02  0.31546635801E+02  0.40659132515E+02  0.00000000000E+00 0. -1.
         11    1    3    3    0    0 -0.65966821452E+01  0.13261992989E+01 -0.19120138573E+00  0.67313875342E+01  0.51100000000E-03 0. -1.
        -11    1    3    3    0    0  0.83540689775E+01  0.26215278193E+01 -0.94208565914E+01  0.12861392450E+02  0.51100000000E-03 0.  1.
        -12    1    3    3    0    0 -0.22570078678E+01  0.21698426694E+02 -0.21934577824E+02  0.30936087500E+02  0.00000000000E+00 0.  1.
</event>
<event>
 7    1  0.2838209E-011  0.5052887E+02  0.7816164E-02  0.1300439E+00
        -11   -1    0    0    0    0  0.00000000000E+00  0.00000000000E+00  0.45593999997E+02  0.45594000000E+02  0.51100000000E-03 0.  1.
         11   -1    0    0    0    0 -0.00000000000E+00 -0.00000000000E+00 -0.45593999997E+02  0.45594000000E+02  0.51100000000E-03 0. -1.
    9900012    2    1    2    0    0  0.18997652065E+01 -0.55119503027E+01  0.40238967421E+02  0.50528865687E+02  0.30000017743E+02 0.  0.
         12    1    1    2    0    0 -0.18997652065E+01  0.55119503027E+01 -0.40238967421E+02  0.40659134313E+02  0.00000000000E+00 0. -1.
         11    1    3    3    0    0  0.26016956181E+01  0.45107380633E+01  0.18571351184E+01  0.55285196097E+01  0.51100000000E-03 0. -1.
        -11    1    3    3    0    0  0.57531357210E+01  0.45065199228E+01  0.90050607969E+01  0.11597345069E+02  0.51100000000E-03 0.  1.
        -12    1    3    3    0    0 -0.64550661326E+01 -0.14529208289E+02  0.29376771505E+02  0.33403001008E+02  0.00000000000E+00 0.  1.
</event>
<event>
 7    1  0.2838209E-011  0.5052886E+02  0.7816164E-02  0.1300439E+00
        -11   -1    0    0    0    0  0.00000000000E+00  0.00000000000E+00  0.45593999997E+02  0.45594000000E+02  0.51100000000E-03 0.  1.
         11   -1    0    0    0    0 -0.00000000000E+00 -0.00000000000E+00 -0.45593999997E+02  0.45594000000E+02  0.51100000000E-03 0. -1.
    9900012    2    1    2    0    0 -0.20223130497E+02  0.35272356895E+02 -0.22638481151E+00  0.50528863043E+02  0.30000009704E+02 0.  0.
         12    1    1    2    0    0  0.20223130497E+02 -0.35272356895E+02  0.22638481151E+00  0.40659136957E+02  0.00000000000E+00 0. -1.
         11    1    3    3    0    0  0.31675339530E+01  0.50014855856E+01 -0.49557145779E+01  0.77205723003E+01  0.51100000000E-03 0.  1.
        -11    1    3    3    0    0  0.25456461440E+01  0.58946188213E-01  0.12562740289E+01  0.28393685285E+01  0.51100000000E-03 0. -1.
        -12    1    3    3    0    0 -0.25936310594E+02  0.30211925121E+02  0.34730557374E+01  0.39968922214E+02  0.00000000000E+00 0.  1.
</event>
<event>
 7    1  0.2838209E-011  0.5052885E+02  0.7816164E-02  0.1300439E+00
        -11   -1    0    0    0    0  0.00000000000E+00  0.00000000000E+00  0.45593999997E+02  0.45594000000E+02  0.51100000000E-03 0. -1.
         11   -1    0    0    0    0 -0.00000000000E+00 -0.00000000000E+00 -0.45593999997E+02  0.45594000000E+02  0.51100000000E-03 0.  1.
    9900012    2    1    2    0    0 -0.36484820569E+02  0.93284314935E+01 -0.15329862014E+02  0.50528850532E+02  0.29999971678E+02 0.  0.
         12    1    1    2    0    0  0.36484820569E+02 -0.93284314935E+01  0.15329862014E+02  0.40659149468E+02  0.00000000000E+00 0. -1.
         11    1    3    3    0    0  0.11432061808E+01  0.66700616773E+01 -0.54239538180E+00  0.67890232112E+01  0.51100000000E-03 0. -1.
        -11    1    3    3    0    0 -0.22055305573E+02 -0.45336526170E+01 -0.25321650580E+01  0.22658384102E+02  0.51100000000E-03 0.  1.
        -12    1    3    3    0    0 -0.15572721177E+02  0.71920224332E+01 -0.12255301574E+02  0.21081443219E+02  0.00000000000E+00 0.  1.
</event>
<event>
 7    1  0.2838209E-011  0.5052889E+02  0.7816164E-02  0.1300439E+00
        -11   -1    0    0    0    0  0.00000000000E+00  0.00000000000E+00  0.45593999997E+02  0.45594000000E+02  0.51100000000E-03 0.  1.
         11   -1    0    0    0    0 -0.00000000000E+00 -0.00000000000E+00 -0.45593999997E+02  0.45594000000E+02  0.51100000000E-03 0. -1.
    9900012    2    1    2    0    0 -0.39128544306E+02 -0.50425943351E+01  0.98332372435E+01  0.50528889191E+02  0.30000089183E+02 0.  0.
         12    1    1    2    0    0  0.39128544306E+02  0.50425943351E+01 -0.98332372435E+01  0.40659110809E+02  0.00000000000E+00 0. -1.
         11    1    3    3    0    0 -0.16561554855E+02 -0.48317494468E+01 -0.96862533500E+01  0.19785206751E+02  0.51100000000E-03 0. -1.
        -11    1    3    3    0    0 -0.18117843469E+01 -0.16004396316E+01  0.32477547427E+00  0.24391492172E+01  0.51100000000E-03 0.  1.
        -12    1    3    3    0    0 -0.20755205104E+02  0.13895947432E+01  0.19194715119E+02  0.28304533223E+02  0.00000000000E+00 0.  1.
</event>
<event>
 7    1  0.2838209E-011  0.5052886E+02  0.7816164E-02  0.1300439E+00
        -11   -1    0    0    0    0  0.00000000000E+00  0.00000000000E+00  0.45593999997E+02  0.45594000000E+02  0.51100000000E-03 0. -1.
         11   -1    0    0    0    0 -0.00000000000E+00 -0.00000000000E+00 -0.45593999997E+02  0.45594000000E+02  0.51100000000E-03 0.  1.
    9900012    2    1    2    0    0 -0.16448446016E+02  0.37137949196E+02  0.18404158158E+01  0.50528858627E+02  0.29999996282E+02 0.  0.
         12    1    1    2    0    0  0.16448446016E+02 -0.37137949196E+02 -0.18404158158E+01  0.40659141373E+02  0.00000000000E+00 0. -1.
         11    1    3    3    0    0 -0.27464916225E+01  0.10187578948E+02 -0.46658310774E+01  0.11536895638E+02  0.51100000000E-03 0. -1.
        -11    1    3    3    0    0 -0.11618032457E+02  0.14742514579E+02 -0.75735753572E+01  0.20240539969E+02  0.51100000000E-03 0.  1.
         12    1    3    3    0    0 -0.20839219364E+01  0.12207855670E+02  0.14079822250E+02  0.18751423020E+02  0.00000000000E+00 0. -1.
</event>
<event>
 7    1  0.2838209E-011  0.5052889E+02  0.7816164E-02  0.1300439E+00
        -11   -1    0    0    0    0  0.00000000000E+00  0.00000000000E+00  0.45593999997E+02  0.45594000000E+02  0.51100000000E-03 0. -1.
         11   -1    0    0    0    0 -0.00000000000E+00 -0.00000000000E+00 -0.45593999997E+02  0.45594000000E+02  0.51100000000E-03 0.  1.
    9900012    2    1    2    0    0 -0.15306787116E+02  0.11956819125E+02 -0.35719743479E+02  0.50528888726E+02  0.30000087771E+02 0.  0.
         12    1    1    2    0    0  0.15306787116E+02 -0.11956819125E+02  0.35719743479E+02  0.40659111274E+02  0.00000000000E+00 0. -1.
         11    1    3    3    0    0  0.18670668660E+01  0.21331561026E+01  0.34186731014E+00  0.28553751345E+01  0.51100000000E-03 0. -1.
        -11    1    3    3    0    0  0.55233692075E+01  0.15681943305E+01 -0.13298343030E+02  0.14484915204E+02  0.51100000000E-03 0.  1.
        -12    1    3    3    0    0 -0.22697223190E+02  0.82554686923E+01 -0.22763267759E+02  0.33188598388E+02  0.00000000000E+00 0.  1.
</event>
<event>
 7    1  0.2838209E-011  0.5052887E+02  0.7816164E-02  0.1300439E+00
        -11   -1    0    0    0    0  0.00000000000E+00  0.00000000000E+00  0.45593999997E+02  0.45594000000E+02  0.51100000000E-03 0.  1.
         11   -1    0    0    0    0 -0.00000000000E+00 -0.00000000000E+00 -0.45593999997E+02  0.45594000000E+02  0.51100000000E-03 0. -1.
    9900012    2    1    2    0    0 -0.24666806559E+02  0.21971177025E+02  0.23706140905E+02  0.50528867173E+02  0.30000022258E+02 0.  0.
         12    1    1    2    0    0  0.24666806559E+02 -0.21971177025E+02 -0.23706140905E+02  0.40659132827E+02  0.00000000000E+00 0. -1.
         11    1    3    3    0    0  0.84986940000E+00  0.49992991422E+01  0.54344467210E+01  0.74329322164E+01  0.51100000000E-03 0. -1.
        -11    1    3    3    0    0 -0.75681474153E+01 -0.97017944069E+00  0.15863954818E+02  0.17603498691E+02  0.51100000000E-03 0.  1.
         12    1    3    3    0    0 -0.17948528543E+02  0.17942057324E+02  0.24077393659E+01  0.25492436265E+02  0.00000000000E+00 0. -1.
</event>
<event>
 7    1  0.2838209E-011  0.5052887E+02  0.7816164E-02  0.1300439E+00
        -11   -1    0    0    0    0  0.00000000000E+00  0.00000000000E+00  0.45593999997E+02  0.45594000000E+02  0.51100000000E-03 0. -1.
         11   -1    0    0    0    0 -0.00000000000E+00 -0.00000000000E+00 -0.45593999997E+02  0.45594000000E+02  0.51100000000E-03 0.  1.
    9900012    2    1    2    0    0  0.28305418415E+01 -0.12744668145E+02 -0.38506190369E+02  0.50528865356E+02  0.30000016736E+02 0.  0.
         12    1    1    2    0    0 -0.28305418415E+01  0.12744668145E+02  0.38506190369E+02  0.40659134644E+02  0.00000000000E+00 0. -1.
         11    1    3    3    0    0  0.50369017786E+01 -0.10044930554E+02 -0.99234572256E+01  0.14991531374E+02  0.51100000000E-03 0. -1.
        -11    1    3    3    0    0  0.90610631376E+01 -0.77284061251E+00 -0.86016516981E+01  0.12517530108E+02  0.51100000000E-03 0.  1.
        -12    1    3    3    0    0 -0.11267423075E+02 -0.19268969791E+01 -0.19981081445E+02  0.23019803875E+02  0.00000000000E+00 0.  1.
</event>
<event>
 7    1  0.2838209E-011  0.5052886E+02  0.7816164E-02  0.1300439E+00
        -11   -1    0    0    0    0  0.00000000000E+00  0.00000000000E+00  0.45593999997E+02  0.45594000000E+02  0.51100000000E-03 0.  1.
         11   -1    0    0    0    0 -0.00000000000E+00 -0.00000000000E+00 -0.45593999997E+02  0.45594000000E+02  0.51100000000E-03 0. -1.
    9900012    2    1    2    0    0  0.38658865754E+02 -0.86851009358E+01 -0.91228609020E+01  0.50528862396E+02  0.30000007740E+02 0.  0.
         12    1    1    2    0    0 -0.38658865754E+02  0.86851009358E+01  0.91228609020E+01  0.40659137604E+02  0.00000000000E+00 0. -1.
         11    1    3    3    0    0  0.38427259853E+01 -0.79235537126E+01 -0.28446976483E+01  0.92542720625E+01  0.51100000000E-03 0. -1.
        -11    1    3    3    0    0  0.19388764087E+02 -0.93659836613E+01 -0.91174653057E+01  0.23383199025E+02  0.51100000000E-03 0.  1.
         12    1    3    3    0    0  0.15427375681E+02  0.86044364381E+01  0.28393020521E+01  0.17891391309E+02  0.00000000000E+00 0. -1.
</event>
<event>
 7    1  0.2838209E-011  0.5052885E+02  0.7816164E-02  0.1300439E+00
        -11   -1    0    0    0    0  0.00000000000E+00  0.00000000000E+00  0.45593999997E+02  0.45594000000E+02  0.51100000000E-03 0. -1.
         11   -1    0    0    0    0 -0.00000000000E+00 -0.00000000000E+00 -0.45593999997E+02  0.45594000000E+02  0.51100000000E-03 0.  1.
    9900012    2    1    2    0    0  0.25259340439E+02  0.82774573205E+00 -0.31850387560E+02  0.50528848138E+02  0.29999964401E+02 0.  0.
         12    1    1    2    0    0 -0.25259340439E+02 -0.82774573205E+00  0.31850387560E+02  0.40659151862E+02  0.00000000000E+00 0. -1.
         11    1    3    3    0    0 -0.10000014734E+01  0.60575865236E+01 -0.19576298237E+01  0.64441191970E+01  0.51100000000E-03 0. -1.
        -11    1    3    3    0    0  0.88720185948E+01  0.52432201904E+01 -0.17481610080E+02  0.20293121080E+02  0.51100000000E-03 0.  1.
         12    1    3    3    0    0  0.17387323318E+02 -0.10473060982E+02 -0.12411147656E+02  0.23791607861E+02  0.00000000000E+00 0. -1.
</event>
<event>
 7    1  0.2838209E-011  0.5052886E+02  0.7816164E-02  0.1300439E+00
        -11   -1    0    0    0    0  0.00000000000E+00  0.00000000000E+00  0.45593999997E+02  0.45594000000E+02  0.51100000000E-03 0.  1.
         11   -1    0    0    0    0 -0.00000000000E+00 -0.00000000000E+00 -0.45593999997E+02  0.45594000000E+02  0.51100000000E-03 0. -1.
    9900012    2    1    2    0    0  0.38197050059E+02 -0.10041546953E+02  0.96601291222E+01  0.50528863350E+02  0.30000010640E+02 0.  0.
         12    1    1    2    0    0 -0.38197050059E+02  0.10041546953E+02 -0.96601291222E+01  0.40659136650E+02  0.00000000000E+00 0. -1.
         11    1    3    3    0    0  0.10714177271E+02  0.69267585572E+01 -0.88913550204E-01  0.12758584740E+02  0.51100000000E-03 0. -1.
        -11    1    3    3    0    0  0.17400468790E+02 -0.50855449493E+01  0.12398665471E+02  0.21962831950E+02  0.51100000000E-03 0.  1.
         12    1    3    3    0    0  0.10082403998E+02 -0.11882760561E+02 -0.26496227987E+01  0.15807446660E+02  0.00000000000E+00 0. -1.
</event>
<event>
 7    1  0.2838209E-011  0.5052885E+02  0.7816164E-02  0.1300439E+00
        -11   -1    0    0    0    0  0.00000000000E+00  0.00000000000E+00  0.45593999997E+02  0.45594000000E+02  0.51100000000E-03 0.  1.
         11   -1    0    0    0    0 -0.00000000000E+00 -0.00000000000E+00 -0.45593999997E+02  0.45594000000E+02  0.51100000000E-03 0. -1.
    9900012    2    1    2    0    0  0.27484449695E+00  0.20027978360E+02  0.35383198018E+02  0.50528853936E+02  0.29999982025E+02 0.  0.
         12    1    1    2    0    0 -0.27484449695E+00 -0.20027978360E+02 -0.35383198018E+02  0.40659146064E+02  0.00000000000E+00 0. -1.
         11    1    3    3    0    0  0.10116691212E+01  0.33557897204E+01  0.18857986263E+02  0.19180939633E+02  0.51100000000E-03 0. -1.
        -11    1    3    3    0    0  0.43341260306E+01  0.19964228669E+02  0.11237687691E+02  0.23316103871E+02  0.51100000000E-03 0.  1.
         12    1    3    3    0    0 -0.50709506548E+01 -0.32920400297E+01  0.52875240632E+01  0.80318104322E+01  0.00000000000E+00 0. -1.
</event>
<event>
 7    1  0.2838209E-011  0.5052886E+02  0.7816164E-02  0.1300439E+00
        -11   -1    0    0    0    0  0.00000000000E+00  0.00000000000E+00  0.45593999997E+02  0.45594000000E+02  0.51100000000E-03 0.  1.
         11   -1    0    0    0    0 -0.00000000000E+00 -0.00000000000E+00 -0.45593999997E+02  0.45594000000E+02  0.51100000000E-03 0. -1.
    9900012    2    1    2    0    0  0.15798731291E+02 -0.98914060673E+01  0.36134831059E+02  0.50528857854E+02  0.29999993932E+02 0.  0.
         12    1    1    2    0    0 -0.15798731291E+02  0.98914060673E+01 -0.36134831059E+02  0.40659142146E+02  0.00000000000E+00 0. -1.
         11    1    3    3    0    0  0.46703613660E+01  0.45947062534E+01 -0.11162581401E+01  0.66460238745E+01  0.51100000000E-03 0. -1.
        -11    1    3    3    0    0  0.99871715853E+01 -0.25179593179E+01  0.11344726954E+02  0.15322746011E+02  0.51100000000E-03 0.  1.
        -12    1    3    3    0    0  0.11411983397E+01 -0.11968153003E+02  0.25906362245E+02  0.28560087968E+02  0.00000000000E+00 0.  1.
</event>
<event>
 7    1  0.2838209E-011  0.5052886E+02  0.7816164E-02  0.1300439E+00
        -11   -1    0    0    0    0  0.00000000000E+00  0.00000000000E+00  0.45593999997E+02  0.45594000000E+02  0.51100000000E-03 0.  1.
         11   -1    0    0    0    0 -0.00000000000E+00 -0.00000000000E+00 -0.45593999997E+02  0.45594000000E+02  0.51100000000E-03 0. -1.
    9900012    2    1    2    0    0 -0.60631687317E+01 -0.36953622364E+02  0.15837722401E+02  0.50528859923E+02  0.30000000223E+02 0.  0.
         12    1    1    2    0    0  0.60631687317E+01  0.36953622364E+02 -0.15837722401E+02  0.40659140077E+02  0.00000000000E+00 0. -1.
         11    1    3    3    0    0 -0.48541635408E+01 -0.73159757964E+01  0.22623152521E+01  0.90666684121E+01  0.51100000000E-03 0. -1.
        -11    1    3    3    0    0 -0.89099694908E+01 -0.25519493367E+02  0.17165522049E+02  0.32020106894E+02  0.51100000000E-03 0.  1.
         12    1    3    3    0    0  0.77009642999E+01 -0.41181532010E+01 -0.35901148993E+01  0.94420846175E+01  0.00000000000E+00 0. -1.
</event>
<event>
 7    1  0.2838209E-011  0.5052887E+02  0.7816164E-02  0.1300439E+00
        -11   -1    0    0    0    0  0.00000000000E+00  0.00000000000E+00  0.45593999997E+02  0.45594000000E+02  0.51100000000E-03 0.  1.
         11   -1    0    0    0    0 -0.00000000000E+00 -0.00000000000E+00 -0.45593999997E+02  0.45594000000E+02  0.51100000000E-03 0. -1.
    9900012    2    1    2    0    0  0.10228256632E+01  0.29816433489E+02  0.27624244571E+02  0.50528871056E+02  0.30000034063E+02 0.  0.
         12    1    1    2    0    0 -0.10228256632E+01 -0.29816433489E+02 -0.27624244571E+02  0.40659128944E+02  0.00000000000E+00 0. -1.
         11    1    3    3    0    0 -0.53934808924E+01  0.98058494100E+01  0.21909291498E+02  0.24602060340E+02  0.51100000000E-03 0. -1.
        -11    1    3    3    0    0 -0.13572451630E+01  0.25145770104E+01  0.61448919814E+01  0.67767919917E+01  0.51100000000E-03 0.  1.
         12    1    3    3    0    0  0.77735517187E+01  0.17496007069E+02 -0.42993890844E+00  0.19150018724E+02  0.00000000000E+00 0. -1.
</event>
<event>
 7    1  0.2838209E-011  0.5052886E+02  0.7816164E-02  0.1300439E+00
        -11   -1    0    0    0    0  0.00000000000E+00  0.00000000000E+00  0.45593999997E+02  0.45594000000E+02  0.51100000000E-03 0.  1.
         11   -1    0    0    0    0 -0.00000000000E+00 -0.00000000000E+00 -0.45593999997E+02  0.45594000000E+02  0.51100000000E-03 0. -1.
    9900012    2    1    2    0    0  0.34322602642E+02  0.71969376366E+01  0.20574946784E+02  0.50528863283E+02  0.30000010434E+02 0.  0.
         12    1    1    2    0    0 -0.34322602642E+02 -0.71969376366E+01 -0.20574946784E+02  0.40659136717E+02  0.00000000000E+00 0. -1.
         11    1    3    3    0    0  0.10402794895E+02 -0.23484279386E+01 -0.20790295188E+01  0.10865340280E+02  0.51100000000E-03 0. -1.
        -11    1    3    3    0    0  0.13608429884E+02 -0.38263827959E+01  0.44181632887E+01  0.14810494128E+02  0.51100000000E-03 0.  1.
         12    1    3    3    0    0  0.10311377862E+02  0.13371748371E+02  0.18235813014E+02  0.24853028874E+02  0.00000000000E+00 0. -1.
</event>
<event>
 7    1  0.2838209E-011  0.5052886E+02  0.7816164E-02  0.1300439E+00
        -11   -1    0    0    0    0  0.00000000000E+00  0.00000000000E+00  0.45593999997E+02  0.45594000000E+02  0.51100000000E-03 0.  1.
         11   -1    0    0    0    0 -0.00000000000E+00 -0.00000000000E+00 -0.45593999997E+02  0.45594000000E+02  0.51100000000E-03 0. -1.
    9900012    2    1    2    0    0 -0.37638062630E+02 -0.85428823383E+01  0.12789095750E+02  0.50528861209E+02  0.30000004130E+02 0.  0.
         12    1    1    2    0    0  0.37638062630E+02  0.85428823383E+01 -0.12789095750E+02  0.40659138791E+02  0.00000000000E+00 0. -1.
         11    1    3    3    0    0  0.26151866639E+01  0.69391268851E+00  0.15887948906E+01  0.31376719988E+01  0.51100000000E-03 0. -1.
        -11    1    3    3    0    0 -0.18429258113E+02 -0.19043270180E+01  0.15272848977E+02  0.24010912772E+02  0.51100000000E-03 0.  1.
        -12    1    3    3    0    0 -0.21823991181E+02 -0.73324680088E+01 -0.40725481181E+01  0.23380276438E+02  0.00000000000E+00 0.  1.
</event>
<event>
 7    1  0.2838209E-011  0.5052881E+02  0.7816164E-02  0.1300439E+00
        -11   -1    0    0    0    0  0.00000000000E+00  0.00000000000E+00  0.45593999997E+02  0.45594000000E+02  0.51100000000E-03 0.  1.
         11   -1    0    0    0    0 -0.00000000000E+00 -0.00000000000E+00 -0.45593999997E+02  0.45594000000E+02  0.51100000000E-03 0. -1.
    9900012    2    1    2    0    0  0.26794044226E+02 -0.27424848276E+02  0.13532422819E+02  0.50528811908E+02  0.29999854276E+02 0.  0.
         12    1    1    2    0    0 -0.26794044226E+02  0.27424848276E+02 -0.13532422819E+02  0.40659188092E+02  0.00000000000E+00 0. -1.
         11    1    3    3    0    0  0.17886757028E+01  0.34014210387E+01  0.65522188944E+00  0.38985050773E+01  0.51100000000E-03 0. -1.
        -11    1    3    3    0    0  0.18322400518E+02 -0.95579830435E+01  0.12853484191E+02  0.24336751154E+02  0.51100000000E-03 0.  1.
         12    1    3    3    0    0  0.66829680051E+01 -0.21268286271E+02  0.23716738456E-01  0.22293555678E+02  0.00000000000E+00 0. -1.
</event>
<event>
 7    1  0.2838209E-011  0.5052887E+02  0.7816164E-02  0.1300439E+00
        -11   -1    0    0    0    0  0.00000000000E+00  0.00000000000E+00  0.45593999997E+02  0.45594000000E+02  0.51100000000E-03 0.  1.
         11   -1    0    0    0    0 -0.00000000000E+00 -0.00000000000E+00 -0.45593999997E+02  0.45594000000E+02  0.51100000000E-03 0. -1.
    9900012    2    1    2    0    0  0.26370884529E+02  0.16697788230E+02  0.26056195756E+02  0.50528867940E+02  0.30000024591E+02 0.  0.
         12    1    1    2    0    0 -0.26370884529E+02 -0.16697788230E+02 -0.26056195756E+02  0.40659132060E+02  0.00000000000E+00 0. -1.
         11    1    3    3    0    0  0.91622588866E+00 -0.10559856626E+01 -0.75259106478E+00  0.15877560173E+01  0.51100000000E-03 0.  1.
        -11    1    3    3    0    0  0.73465579856E+00  0.12352432391E+02  0.42014911080E+00  0.12381390498E+02  0.51100000000E-03 0. -1.
         12    1    3    3    0    0  0.24720002842E+02  0.54013415009E+01  0.26388637710E+02  0.36559721425E+02  0.00000000000E+00 0. -1.
</event>
<event>
 7    1  0.2838209E-011  0.5052886E+02  0.7816164E-02  0.1300439E+00
        -11   -1    0    0    0    0  0.00000000000E+00  0.00000000000E+00  0.45593999997E+02  0.45594000000E+02  0.51100000000E-03 0.  1.
         11   -1    0    0    0    0 -0.00000000000E+00 -0.00000000000E+00 -0.45593999997E+02  0.45594000000E+02  0.51100000000E-03 0. -1.
    9900012    2    1    2    0    0 -0.16788437652E+02 -0.54626203748E+01  0.36626139967E+02  0.50528856021E+02  0.29999988363E+02 0.  0.
         12    1    1    2    0    0  0.16788437652E+02  0.54626203748E+01 -0.36626139967E+02  0.40659143979E+02  0.00000000000E+00 0. -1.
         11    1    3    3    0    0 -0.15862278825E+02  0.54233866654E+01  0.14582694844E+02  0.22218910901E+02  0.51100000000E-03 0. -1.
        -11    1    3    3    0    0 -0.52260833945E+01  0.46056312754E+00  0.41451570563E+01  0.66862839697E+01  0.51100000000E-03 0.  1.
         12    1    3    3    0    0  0.42999245669E+01 -0.11346570168E+02  0.17898288067E+02  0.21623661151E+02  0.00000000000E+00 0. -1.
</event>
<event>
 7    1  0.2838209E-011  0.5052886E+02  0.7816164E-02  0.1300439E+00
        -11   -1    0    0    0    0  0.00000000000E+00  0.00000000000E+00  0.45593999997E+02  0.45594000000E+02  0.51100000000E-03 0. -1.
         11   -1    0    0    0    0 -0.00000000000E+00 -0.00000000000E+00 -0.45593999997E+02  0.45594000000E+02  0.51100000000E-03 0.  1.
    9900012    2    1    2    0    0 -0.33507019755E+02  0.17648939971E+02 -0.14797306358E+02  0.50528859202E+02  0.29999998032E+02 0.  0.
         12    1    1    2    0    0  0.33507019755E+02 -0.17648939971E+02  0.14797306358E+02  0.40659140798E+02  0.00000000000E+00 0. -1.
         11    1    3    3    0    0 -0.18846238259E+02  0.17547975605E+01 -0.12399644263E+02  0.22627664243E+02  0.51100000000E-03 0. -1.
        -11    1    3    3    0    0 -0.43284221319E+01  0.75302877189E+00 -0.76597222470E+01  0.88302681525E+01  0.51100000000E-03 0.  1.
        -12    1    3    3    0    0 -0.10332359364E+02  0.15141113639E+02  0.52620601515E+01  0.19070926807E+02  0.00000000000E+00 0.  1.
</event>
<event>
 7    1  0.2838209E-011  0.5052886E+02  0.7816164E-02  0.1300439E+00
        -11   -1    0    0    0    0  0.00000000000E+00  0.00000000000E+00  0.45593999997E+02  0.45594000000E+02  0.51100000000E-03 0.  1.
         11   -1    0    0    0    0 -0.00000000000E+00 -0.00000000000E+00 -0.45593999997E+02  0.45594000000E+02  0.51100000000E-03 0. -1.
    9900012    2    1    2    0    0  0.21945586988E+02 -0.10160620333E+02  0.32685144588E+02  0.50528859939E+02  0.30000000269E+02 0.  0.
         12    1    1    2    0    0 -0.21945586988E+02  0.10160620333E+02 -0.32685144588E+02  0.40659140061E+02  0.00000000000E+00 0. -1.
         11    1    3    3    0    0  0.12164098458E+02 -0.68937000900E+01  0.11392031189E+01  0.14028049624E+02  0.51100000000E-03 0. -1.
        -11    1    3    3    0    0  0.53583463496E+01 -0.37488815800E+00  0.95368063185E+00  0.54554489954E+01  0.51100000000E-03 0.  1.
        -12    1    3    3    0    0  0.44231421799E+01 -0.28920320846E+01  0.30592260837E+02  0.31045361320E+02  0.00000000000E+00 0.  1.
</event>
<event>
 7    1  0.2838209E-011  0.5052887E+02  0.7816164E-02  0.1300439E+00
        -11   -1    0    0    0    0  0.00000000000E+00  0.00000000000E+00  0.45593999997E+02  0.45594000000E+02  0.51100000000E-03 0.  1.
         11   -1    0    0    0    0 -0.00000000000E+00 -0.00000000000E+00 -0.45593999997E+02  0.45594000000E+02  0.51100000000E-03 0. -1.
    9900012    2    1    2    0    0  0.31722548593E+02 -0.93086897287E+01  0.23668401451E+02  0.50528867926E+02  0.30000024549E+02 0.  0.
         12    1    1    2    0    0 -0.31722548593E+02  0.93086897287E+01 -0.23668401451E+02  0.40659132074E+02  0.00000000000E+00 0. -1.
         11    1    3    3    0    0 -0.19680344421E+00  0.39737318023E+01  0.60408438081E+01  0.72333305059E+01  0.51100000000E-03 0. -1.
        -11    1    3    3    0    0  0.57694616979E+01  0.27050149438E+01  0.97532748420E+01  0.11650328945E+02  0.51100000000E-03 0.  1.
         12    1    3    3    0    0  0.26149890340E+02 -0.15987436475E+02  0.78742828010E+01  0.31645208475E+02  0.00000000000E+00 0. -1.
</event>
<event>
 7    1  0.2838209E-011  0.5052886E+02  0.7816164E-02  0.1300439E+00
        -11   -1    0    0    0    0  0.00000000000E+00  0.00000000000E+00  0.45593999997E+02  0.45594000000E+02  0.51100000000E-03 0.  1.
         11   -1    0    0    0    0 -0.00000000000E+00 -0.00000000000E+00 -0.45593999997E+02  0.45594000000E+02  0.51100000000E-03 0. -1.
    9900012    2    1    2    0    0  0.18708404977E+02  0.70643482226E+01  0.35401361260E+02  0.50528858203E+02  0.29999994995E+02 0.  0.
         12    1    1    2    0    0 -0.18708404977E+02 -0.70643482226E+01 -0.35401361260E+02  0.40659141797E+02  0.00000000000E+00 0. -1.
         11    1    3    3    0    0  0.66390327007E+01 -0.26507541247E+01  0.62456731597E+01  0.94927175303E+01  0.51100000000E-03 0. -1.
        -11    1    3    3    0    0  0.16097513073E+02  0.21495862238E+00  0.91285331614E+01  0.18506924441E+02  0.51100000000E-03 0.  1.
         12    1    3    3    0    0 -0.40281407962E+01  0.95001437250E+01  0.20027154939E+02  0.22529216231E+02  0.00000000000E+00 0. -1.
</event>
<event>
 7    1  0.2838209E-011  0.5052885E+02  0.7816164E-02  0.1300439E+00
        -11   -1    0    0    0    0  0.00000000000E+00  0.00000000000E+00  0.45593999997E+02  0.45594000000E+02  0.51100000000E-03 0. -1.
         11   -1    0    0    0    0 -0.00000000000E+00 -0.00000000000E+00 -0.45593999997E+02  0.45594000000E+02  0.51100000000E-03 0.  1.
    9900012    2    1    2    0    0 -0.12162743312E+02  0.75944769562E+01 -0.38046791171E+02  0.50528846990E+02  0.29999960910E+02 0.  0.
         12    1    1    2    0    0  0.12162743312E+02 -0.75944769562E+01  0.38046791171E+02  0.40659153010E+02  0.00000000000E+00 0. -1.
         11    1    3    3    0    0 -0.40424080337E+01  0.82368087462E+01 -0.72952140370E+01  0.11722040315E+02  0.51100000000E-03 0. -1.
        -11    1    3    3    0    0 -0.13737336713E+02 -0.45224251392E+01 -0.27865228984E+02  0.31394867984E+02  0.51100000000E-03 0.  1.
         12    1    3    3    0    0  0.56170014349E+01  0.38800933492E+01 -0.28863481495E+01  0.74119386909E+01  0.00000000000E+00 0. -1.
</event>
<event>
 7    1  0.2838209E-011  0.5052886E+02  0.7816164E-02  0.1300439E+00
        -11   -1    0    0    0    0  0.00000000000E+00  0.00000000000E+00  0.45593999997E+02  0.45594000000E+02  0.51100000000E-03 0.  1.
         11   -1    0    0    0    0 -0.00000000000E+00 -0.00000000000E+00 -0.45593999997E+02  0.45594000000E+02  0.51100000000E-03 0. -1.
    9900012    2    1    2    0    0  0.24963231605E+02 -0.28753501954E+02  0.14256189408E+02  0.50528859045E+02  0.29999997552E+02 0.  0.
         12    1    1    2    0    0 -0.24963231605E+02  0.28753501954E+02 -0.14256189408E+02  0.40659140955E+02  0.00000000000E+00 0. -1.
         11    1    3    3    0    0 -0.50818852963E+00  0.17600707923E+01  0.41341399003E+00  0.18780351871E+01  0.51100000000E-03 0. -1.
        -11    1    3    3    0    0 -0.23785114148E+01  0.42539062027E+00  0.57596274902E+01  0.62459252971E+01  0.51100000000E-03 0.  1.
        -12    1    3    3    0    0  0.27849931549E+02 -0.30938963367E+02  0.80831479276E+01  0.42404898561E+02  0.00000000000E+00 0.  1.
</event>
<event>
 7    1  0.2838209E-011  0.5052886E+02  0.7816164E-02  0.1300439E+00
        -11   -1    0    0    0    0  0.00000000000E+00  0.00000000000E+00  0.45593999997E+02  0.45594000000E+02  0.51100000000E-03 0.  1.
         11   -1    0    0    0    0 -0.00000000000E+00 -0.00000000000E+00 -0.45593999997E+02  0.45594000000E+02  0.51100000000E-03 0. -1.
    9900012    2    1    2    0    0  0.18688810137E+02  0.34502292061E+02  0.10652981691E+02  0.50528858338E+02  0.29999995405E+02 0.  0.
         12    1    1    2    0    0 -0.18688810137E+02 -0.34502292061E+02 -0.10652981691E+02  0.40659141662E+02  0.00000000000E+00 0. -1.
         11    1    3    3    0    0 -0.11646342927E+01  0.13002603665E+02  0.43188008608E+01  0.13750495127E+02  0.51100000000E-03 0. -1.
        -11    1    3    3    0    0 -0.26463432969E+01  0.78983647115E+01  0.63709545949E+01  0.10486961460E+02  0.51100000000E-03 0.  1.
        -12    1    3    3    0    0  0.22499787727E+02  0.13601323684E+02 -0.36773764936E-01  0.26291401751E+02  0.00000000000E+00 0.  1.
</event>
<event>
 7    1  0.2838209E-011  0.5052885E+02  0.7816164E-02  0.1300439E+00
        -11   -1    0    0    0    0  0.00000000000E+00  0.00000000000E+00  0.45593999997E+02  0.45594000000E+02  0.51100000000E-03 0.  1.
         11   -1    0    0    0    0 -0.00000000000E+00 -0.00000000000E+00 -0.45593999997E+02  0.45594000000E+02  0.51100000000E-03 0. -1.
    9900012    2    1    2    0    0 -0.36788175820E+02 -0.11923327947E+02 -0.12555102385E+02  0.50528853115E+02  0.29999979529E+02 0.  0.
         12    1    1    2    0    0  0.36788175820E+02  0.11923327947E+02  0.12555102385E+02  0.40659146885E+02  0.00000000000E+00 0. -1.
         11    1    3    3    0    0  0.22978523361E+00  0.35414213039E+00 -0.13609805461E+01  0.14249513009E+01  0.51100000000E-03 0. -1.
        -11    1    3    3    0    0 -0.28974979346E+01 -0.13095807025E+02 -0.84516258893E+00  0.13439120357E+02  0.51100000000E-03 0.  1.
        -12    1    3    3    0    0 -0.34120463119E+02  0.81833694751E+00 -0.10348959250E+02  0.35664781457E+02  0.00000000000E+00 0.  1.
</event>
<event>
 7    1  0.2838209E-011  0.5052886E+02  0.7816164E-02  0.1300439E+00
        -11   -1    0    0    0    0  0.00000000000E+00  0.00000000000E+00  0.45593999997E+02  0.45594000000E+02  0.51100000000E-03 0.  1.
         11   -1    0    0    0    0 -0.00000000000E+00 -0.00000000000E+00 -0.45593999997E+02  0.45594000000E+02  0.51100000000E-03 0. -1.
    9900012    2    1    2    0    0  0.39841821594E+01 -0.14792078463E+02  0.37662797507E+02  0.50528860698E+02  0.30000002576E+02 0.  0.
         12    1    1    2    0    0 -0.39841821594E+01  0.14792078463E+02 -0.37662797507E+02  0.40659139302E+02  0.00000000000E+00 0. -1.
         11    1    3    3    0    0 -0.70133363730E+01 -0.40923022509E+01  0.23435140593E+00  0.81233457169E+01  0.51100000000E-03 0. -1.
        -11    1    3    3    0    0  0.70855829923E+01 -0.93622138432E+00  0.62283703464E+01  0.94802212134E+01  0.51100000000E-03 0.  1.
        -12    1    3    3    0    0  0.39119355401E+01 -0.97635548279E+01  0.31200075755E+02  0.32925293767E+02  0.00000000000E+00 0.  1.
</event>
<event>
 7    1  0.2838209E-011  0.5052887E+02  0.7816164E-02  0.1300439E+00
        -11   -1    0    0    0    0  0.00000000000E+00  0.00000000000E+00  0.45593999997E+02  0.45594000000E+02  0.51100000000E-03 0. -1.
         11   -1    0    0    0    0 -0.00000000000E+00 -0.00000000000E+00 -0.45593999997E+02  0.45594000000E+02  0.51100000000E-03 0.  1.
    9900012    2    1    2    0    0  0.37276445211E+02 -0.56645452393E+01 -0.15216578667E+02  0.50528871792E+02  0.30000036298E+02 0.  0.
         12    1    1    2    0    0 -0.37276445211E+02  0.56645452393E+01  0.15216578667E+02  0.40659128208E+02  0.00000000000E+00 0. -1.
         11    1    3    3    0    0 -0.21688132375E+00  0.11629440587E+00  0.36937058951E+01  0.37018948388E+01  0.51100000000E-03 0. -1.
        -11    1    3    3    0    0  0.99395765091E+01  0.36109231919E+01  0.22833554326E+01  0.10818856676E+02  0.51100000000E-03 0.  1.
        -12    1    3    3    0    0  0.27553750025E+02 -0.93917628371E+01 -0.21193639995E+02  0.36008120277E+02  0.00000000000E+00 0.  1.
</event>
<event>
 7    1  0.2838209E-011  0.5052884E+02  0.7816164E-02  0.1300439E+00
        -11   -1    0    0    0    0  0.00000000000E+00  0.00000000000E+00  0.45593999997E+02  0.45594000000E+02  0.51100000000E-03 0. -1.
         11   -1    0    0    0    0 -0.00000000000E+00 -0.00000000000E+00 -0.45593999997E+02  0.45594000000E+02  0.51100000000E-03 0.  1.
    9900012    2    1    2    0    0 -0.31936331728E+02 -0.22874444282E+02  0.10487983043E+02  0.50528840223E+02  0.29999940343E+02 0.  0.
         12    1    1    2    0    0  0.31936331728E+02  0.22874444282E+02 -0.10487983043E+02  0.40659159777E+02  0.00000000000E+00 0. -1.
         11    1    3    3    0    0 -0.63491115125E+01  0.25547785741E+01  0.33195188036E+01  0.76063996680E+01  0.51100000000E-03 0. -1.
        -11    1    3    3    0    0 -0.17036774886E+02 -0.77118261480E+01 -0.55371734829E+01  0.19503442042E+02  0.51100000000E-03 0.  1.
         12    1    3    3    0    0 -0.85504453299E+01 -0.17717396708E+02  0.12705637722E+02  0.23418998513E+02  0.00000000000E+00 0. -1.
</event>
<event>
 7    1  0.2838209E-011  0.5052890E+02  0.7816164E-02  0.1300439E+00
        -11   -1    0    0    0    0  0.00000000000E+00  0.00000000000E+00  0.45593999997E+02  0.45594000000E+02  0.51100000000E-03 0.  1.
         11   -1    0    0    0    0 -0.00000000000E+00 -0.00000000000E+00 -0.45593999997E+02  0.45594000000E+02  0.51100000000E-03 0. -1.
    9900012    2    1    2    0    0 -0.13393602404E+02  0.31100626009E+02  0.22506106134E+02  0.50528900935E+02  0.30000124881E+02 0.  0.
         12    1    1    2    0    0  0.13393602404E+02 -0.31100626009E+02 -0.22506106134E+02  0.40659099065E+02  0.00000000000E+00 0. -1.
         11    1    3    3    0    0 -0.11068159811E+02  0.26787061929E+02  0.15603526982E+02  0.32916878694E+02  0.51100000000E-03 0. -1.
        -11    1    3    3    0    0  0.44793925133E+01  0.72782100386E+01  0.21988232378E+01  0.88245182614E+01  0.51100000000E-03 0.  1.
         12    1    3    3    0    0 -0.68048351060E+01 -0.29646459592E+01  0.47037559143E+01  0.87875039792E+01  0.00000000000E+00 0. -1.
</event>
<event>
 7    1  0.2838209E-011  0.5052880E+02  0.7816164E-02  0.1300439E+00
        -11   -1    0    0    0    0  0.00000000000E+00  0.00000000000E+00  0.45593999997E+02  0.45594000000E+02  0.51100000000E-03 0. -1.
         11   -1    0    0    0    0 -0.00000000000E+00 -0.00000000000E+00 -0.45593999997E+02  0.45594000000E+02  0.51100000000E-03 0.  1.
    9900012    2    1    2    0    0  0.49220464330E+01 -0.33210253649E+02 -0.22935197022E+02  0.50528797463E+02  0.29999810367E+02 0.  0.
         12    1    1    2    0    0 -0.49220464330E+01  0.33210253649E+02  0.22935197022E+02  0.40659202537E+02  0.00000000000E+00 0. -1.
         11    1    3    3    0    0 -0.51322095158E+01 -0.13840336587E+02 -0.94297730405E+01  0.17516138593E+02  0.51100000000E-03 0. -1.
        -11    1    3    3    0    0  0.31449750530E+01  0.39893807121E+01 -0.52164803563E+01  0.72813250249E+01  0.51100000000E-03 0.  1.
         12    1    3    3    0    0  0.69092808958E+01 -0.23359297775E+02 -0.82889436249E+01  0.25731333845E+02  0.00000000000E+00 0. -1.
</event>
<event>
 7    1  0.2838209E-011  0.5052886E+02  0.7816164E-02  0.1300439E+00
        -11   -1    0    0    0    0  0.00000000000E+00  0.00000000000E+00  0.45593999997E+02  0.45594000000E+02  0.51100000000E-03 0. -1.
         11   -1    0    0    0    0 -0.00000000000E+00 -0.00000000000E+00 -0.45593999997E+02  0.45594000000E+02  0.51100000000E-03 0.  1.
    9900012    2    1    2    0    0  0.55628551685E+01 -0.30956342310E+02 -0.25766750865E+02  0.50528856662E+02  0.29999990311E+02 0.  0.
         12    1    1    2    0    0 -0.55628551685E+01  0.30956342310E+02  0.25766750865E+02  0.40659143338E+02  0.00000000000E+00 0. -1.
         11    1    3    3    0    0  0.43141572209E+01  0.23811636522E+00 -0.35392371600E+01  0.55852351666E+01  0.51100000000E-03 0. -1.
        -11    1    3    3    0    0  0.10248461281E+02 -0.87208938410E+01 -0.13889950411E+02  0.19339484758E+02  0.51100000000E-03 0.  1.
         12    1    3    3    0    0 -0.89997633337E+01 -0.22473564834E+02 -0.83375632936E+01  0.25604136738E+02  0.00000000000E+00 0. -1.
</event>
<event>
 7    1  0.2838209E-011  0.5052885E+02  0.7816164E-02  0.1300439E+00
        -11   -1    0    0    0    0  0.00000000000E+00  0.00000000000E+00  0.45593999997E+02  0.45594000000E+02  0.51100000000E-03 0.  1.
         11   -1    0    0    0    0 -0.00000000000E+00 -0.00000000000E+00 -0.45593999997E+02  0.45594000000E+02  0.51100000000E-03 0. -1.
    9900012    2    1    2    0    0 -0.31604931731E+02  0.17734299986E+02  0.18433377406E+02  0.50528849637E+02  0.29999968955E+02 0.  0.
         12    1    1    2    0    0  0.31604931731E+02 -0.17734299986E+02 -0.18433377406E+02  0.40659150363E+02  0.00000000000E+00 0. -1.
         11    1    3    3    0    0  0.57390716508E+00  0.25348339055E+01 -0.42644376504E+01  0.49940145272E+01  0.51100000000E-03 0. -1.
        -11    1    3    3    0    0 -0.87274050667E+01  0.30328233606E+00 -0.12925821720E+01  0.88278167349E+01  0.51100000000E-03 0.  1.
        -12    1    3    3    0    0 -0.23451433829E+02  0.14896183744E+02  0.23990397228E+02  0.36707018374E+02  0.00000000000E+00 0.  1.
</event>
<event>
 7    1  0.2838209E-011  0.5052886E+02  0.7816164E-02  0.1300439E+00
        -11   -1    0    0    0    0  0.00000000000E+00  0.00000000000E+00  0.45593999997E+02  0.45594000000E+02  0.51100000000E-03 0.  1.
         11   -1    0    0    0    0 -0.00000000000E+00 -0.00000000000E+00 -0.45593999997E+02  0.45594000000E+02  0.51100000000E-03 0. -1.
    9900012    2    1    2    0    0 -0.18414813132E+02  0.26466066811E+02  0.24771105777E+02  0.50528859373E+02  0.29999998549E+02 0.  0.
         12    1    1    2    0    0  0.18414813132E+02 -0.26466066811E+02 -0.24771105777E+02  0.40659140627E+02  0.00000000000E+00 0. -1.
         11    1    3    3    0    0 -0.42451733049E+00  0.13036048760E+01 -0.36611125735E+01  0.39093920466E+01  0.51100000000E-03 0. -1.
        -11    1    3    3    0    0 -0.10162081902E+02  0.47213375116E+01  0.61402771346E+00  0.11222119532E+02  0.51100000000E-03 0.  1.
        -12    1    3    3    0    0 -0.78282138991E+01  0.20441124423E+02  0.27818190638E+02  0.35397347794E+02  0.00000000000E+00 0.  1.
</event>
<event>
 7    1  0.2838209E-011  0.5052886E+02  0.7816164E-02  0.1300439E+00
        -11   -1    0    0    0    0  0.00000000000E+00  0.00000000000E+00  0.45593999997E+02  0.45594000000E+02  0.51100000000E-03 0. -1.
         11   -1    0    0    0    0 -0.00000000000E+00 -0.00000000000E+00 -0.45593999997E+02  0.45594000000E+02  0.51100000000E-03 0.  1.
    9900012    2    1    2    0    0  0.39443888424E+02 -0.71433282630E+01  0.68057214470E+01  0.50528864285E+02  0.30000013481E+02 0.  0.
         12    1    1    2    0    0 -0.39443888424E+02  0.71433282630E+01 -0.68057214470E+01  0.40659135715E+02  0.00000000000E+00 0. -1.
         11    1    3    3    0    0  0.72503240083E+01 -0.12558115558E+01  0.11935582327E+01  0.74544511807E+01  0.51100000000E-03 0. -1.
        -11    1    3    3    0    0  0.32429343673E+02  0.20831285185E+01 -0.12989764183E+01  0.32522132394E+02  0.51100000000E-03 0.  1.
         12    1    3    3    0    0 -0.23577925697E+00 -0.79706452257E+01  0.69111396325E+01  0.10552280710E+02  0.00000000000E+00 0. -1.
</event>
<event>
 7    1  0.2838209E-011  0.5052886E+02  0.7816164E-02  0.1300439E+00
        -11   -1    0    0    0    0  0.00000000000E+00  0.00000000000E+00  0.45593999997E+02  0.45594000000E+02  0.51100000000E-03 0.  1.
         11   -1    0    0    0    0 -0.00000000000E+00 -0.00000000000E+00 -0.45593999997E+02  0.45594000000E+02  0.51100000000E-03 0. -1.
    9900012    2    1    2    0    0 -0.13803836162E+02 -0.30699286032E+02  0.22807309412E+02  0.50528863041E+02  0.30000009699E+02 0.  0.
         12    1    1    2    0    0  0.13803836162E+02  0.30699286032E+02 -0.22807309412E+02  0.40659136959E+02  0.00000000000E+00 0. -1.
         11    1    3    3    0    0  0.13674646924E+01  0.43241406678E+01  0.11741171303E+01  0.46847308883E+01  0.51100000000E-03 0. -1.
        -11    1    3    3    0    0 -0.34629824147E+01 -0.16099641064E+02  0.28269015663E+01  0.16708742093E+02  0.51100000000E-03 0.  1.
        -12    1    3    3    0    0 -0.11708318439E+02 -0.18923785635E+02  0.18806290716E+02  0.29135390060E+02  0.00000000000E+00 0.  1.
</event>
<event>
 7    1  0.2838209E-011  0.5052886E+02  0.7816164E-02  0.1300439E+00
        -11   -1    0    0    0    0  0.00000000000E+00  0.00000000000E+00  0.45593999997E+02  0.45594000000E+02  0.51100000000E-03 0. -1.
         11   -1    0    0    0    0 -0.00000000000E+00 -0.00000000000E+00 -0.45593999997E+02  0.45594000000E+02  0.51100000000E-03 0.  1.
    9900012    2    1    2    0    0 -0.15975997959E+01  0.31768295258E+02 -0.25325648183E+02  0.50528863701E+02  0.30000011705E+02 0.  0.
         12    1    1    2    0    0  0.15975997959E+01 -0.31768295258E+02  0.25325648183E+02  0.40659136299E+02  0.00000000000E+00 0. -1.
         11    1    3    3    0    0  0.11306267964E+01  0.15076668682E+02 -0.73680454743E+01  0.16818809407E+02  0.51100000000E-03 0. -1.
        -11    1    3    3    0    0  0.77227667043E+01  0.16290062716E+02 -0.10474643971E+02  0.20850070395E+02  0.51100000000E-03 0.  1.
         12    1    3    3    0    0 -0.10450993297E+02  0.40156385935E+00 -0.74829587377E+01  0.12859983899E+02  0.00000000000E+00 0. -1.
</event>
<event>
 7    1  0.2838209E-011  0.5052883E+02  0.7816164E-02  0.1300439E+00
        -11   -1    0    0    0    0  0.00000000000E+00  0.00000000000E+00  0.45593999997E+02  0.45594000000E+02  0.51100000000E-03 0.  1.
         11   -1    0    0    0    0 -0.00000000000E+00 -0.00000000000E+00 -0.45593999997E+02  0.45594000000E+02  0.51100000000E-03 0. -1.
    9900012    2    1    2    0    0  0.92202839557E+01  0.34171959025E+02  0.20010784035E+02  0.50528832552E+02  0.29999917026E+02 0.  0.
         12    1    1    2    0    0 -0.92202839557E+01 -0.34171959025E+02 -0.20010784035E+02  0.40659167448E+02  0.00000000000E+00 0. -1.
         11    1    3    3    0    0 -0.14968624233E+01  0.37186562898E+01  0.61143449605E-01  0.40090822514E+01  0.51100000000E-03 0. -1.
        -11    1    3    3    0    0 -0.17911577322E+01  0.15803876952E+02  0.22000793411E+02  0.27147848602E+02  0.51100000000E-03 0.  1.
         12    1    3    3    0    0  0.12508304111E+02  0.14649425783E+02 -0.20511528259E+01  0.19371901699E+02  0.00000000000E+00 0. -1.
</event>
<event>
 7    1  0.2838209E-011  0.5052886E+02  0.7816164E-02  0.1300439E+00
        -11   -1    0    0    0    0  0.00000000000E+00  0.00000000000E+00  0.45593999997E+02  0.45594000000E+02  0.51100000000E-03 0.  1.
         11   -1    0    0    0    0 -0.00000000000E+00 -0.00000000000E+00 -0.45593999997E+02  0.45594000000E+02  0.51100000000E-03 0. -1.
    9900012    2    1    2    0    0  0.24569363725E+02 -0.31555485211E+02 -0.73323340344E+01  0.50528863227E+02  0.30000010264E+02 0.  0.
         12    1    1    2    0    0 -0.24569363725E+02  0.31555485211E+02  0.73323340344E+01  0.40659136773E+02  0.00000000000E+00 0. -1.
         11    1    3    3    0    0  0.12812028104E+02 -0.47550053575E+01 -0.10136922194E+02  0.17015150071E+02  0.51100000000E-03 0. -1.
        -11    1    3    3    0    0  0.11643854879E+01  0.92639965674E+00  0.35221558393E+01  0.38235574935E+01  0.51100000000E-03 0.  1.
         12    1    3    3    0    0  0.10592950133E+02 -0.27726879510E+02 -0.71756767990E+00  0.29690155663E+02  0.00000000000E+00 0. -1.
</event>
<event>
 7    1  0.2838209E-011  0.5052886E+02  0.7816164E-02  0.1300439E+00
        -11   -1    0    0    0    0  0.00000000000E+00  0.00000000000E+00  0.45593999997E+02  0.45594000000E+02  0.51100000000E-03 0.  1.
         11   -1    0    0    0    0 -0.00000000000E+00 -0.00000000000E+00 -0.45593999997E+02  0.45594000000E+02  0.51100000000E-03 0. -1.
    9900012    2    1    2    0    0 -0.25303002938E+02 -0.94303686287E+01  0.30397230788E+02  0.50528862654E+02  0.30000008522E+02 0.  0.
         12    1    1    2    0    0  0.25303002938E+02  0.94303686287E+01 -0.30397230788E+02  0.40659137346E+02  0.00000000000E+00 0. -1.
         11    1    3    3    0    0 -0.14495947834E+02  0.10600012754E+01  0.25537404075E+01  0.14757292998E+02  0.51100000000E-03 0. -1.
        -11    1    3    3    0    0 -0.11642017393E+02  0.10725772002E+00  0.12257409488E+02  0.16905388514E+02  0.51100000000E-03 0.  1.
        -12    1    3    3    0    0  0.83496228818E+00 -0.10597627624E+02  0.15586080892E+02  0.18866181141E+02  0.00000000000E+00 0.  1.
</event>
<event>
 7    1  0.2838209E-011  0.5052887E+02  0.7816164E-02  0.1300439E+00
        -11   -1    0    0    0    0  0.00000000000E+00  0.00000000000E+00  0.45593999997E+02  0.45594000000E+02  0.51100000000E-03 0.  1.
         11   -1    0    0    0    0 -0.00000000000E+00 -0.00000000000E+00 -0.45593999997E+02  0.45594000000E+02  0.51100000000E-03 0. -1.
    9900012    2    1    2    0    0 -0.19599922794E+02 -0.19732588294E+02 -0.29658607199E+02  0.50528868242E+02  0.30000025509E+02 0.  0.
         12    1    1    2    0    0  0.19599922794E+02  0.19732588294E+02  0.29658607199E+02  0.40659131758E+02  0.00000000000E+00 0. -1.
         11    1    3    3    0    0 -0.14788467059E+01 -0.46879538513E+01 -0.66116857431E+01  0.82388280428E+01  0.51100000000E-03 0. -1.
        -11    1    3    3    0    0 -0.10456224300E+02 -0.22460146444E+02 -0.16734084637E+02  0.29896829160E+02  0.51100000000E-03 0.  1.
         12    1    3    3    0    0 -0.76648517883E+01  0.74155120010E+01 -0.63128368189E+01  0.12393211040E+02  0.00000000000E+00 0. -1.
</event>
<event>
 7    1  0.4163968E-011  0.5052886E+02  0.7816164E-02  0.1300439E+00
        -11   -1    0    0    0    0  0.00000000000E+00  0.00000000000E+00  0.45593999997E+02  0.45594000000E+02  0.51100000000E-03 0. -1.
         11   -1    0    0    0    0 -0.00000000000E+00 -0.00000000000E+00 -0.45593999997E+02  0.45594000000E+02  0.51100000000E-03 0.  1.
    9900012    2    1    2    0    0 -0.35461521925E+02 -0.13767761978E+02 -0.14356009108E+02  0.50528858290E+02  0.29999995257E+02 0.  0.
         12    1    1    2    0    0  0.35461521925E+02  0.13767761978E+02  0.14356009108E+02  0.40659141710E+02  0.00000000000E+00 0. -1.
         11    1    3    3    0    0  0.23269012694E+01 -0.39487328010E+01 -0.36792084164E+01  0.58773748462E+01  0.51100000000E-03 0. -1.
        -11    1    3    3    0    0 -0.15711097094E+01  0.42003547664E+01 -0.16642084541E+01  0.47834042190E+01  0.51100000000E-03 0.  1.
        -12    1    3    3    0    0 -0.36217313485E+02 -0.14019383943E+02 -0.90125922379E+01  0.39868079224E+02  0.00000000000E+00 0.  1.
</event>
<event>
 7    1  0.2838209E-011  0.5052884E+02  0.7816164E-02  0.1300439E+00
        -11   -1    0    0    0    0  0.00000000000E+00  0.00000000000E+00  0.45593999997E+02  0.45594000000E+02  0.51100000000E-03 0.  1.
         11   -1    0    0    0    0 -0.00000000000E+00 -0.00000000000E+00 -0.45593999997E+02  0.45594000000E+02  0.51100000000E-03 0. -1.
    9900012    2    1    2    0    0  0.27724869722E+02  0.18798099605E+02  0.23046257806E+02  0.50528844220E+02  0.29999952492E+02 0.  0.
         12    1    1    2    0    0 -0.27724869722E+02 -0.18798099605E+02 -0.23046257806E+02  0.40659155780E+02  0.00000000000E+00 0. -1.
         11    1    3    3    0    0  0.36899548292E+01  0.12991617129E+02  0.38547599500E+01  0.14044823131E+02  0.51100000000E-03 0. -1.
        -11    1    3    3    0    0  0.80741929741E+01  0.10898419713E+02  0.12496162961E+02  0.18442403136E+02  0.51100000000E-03 0.  1.
         12    1    3    3    0    0  0.15960721919E+02 -0.50919372370E+01  0.66953348944E+01  0.18041617953E+02  0.00000000000E+00 0. -1.
</event>
<event>
 7    1  0.2838209E-011  0.5052884E+02  0.7816164E-02  0.1300439E+00
        -11   -1    0    0    0    0  0.00000000000E+00  0.00000000000E+00  0.45593999997E+02  0.45594000000E+02  0.51100000000E-03 0.  1.
         11   -1    0    0    0    0 -0.00000000000E+00 -0.00000000000E+00 -0.45593999997E+02  0.45594000000E+02  0.51100000000E-03 0. -1.
    9900012    2    1    2    0    0  0.32923427986E+02  0.21194957230E+02  0.10953952838E+02  0.50528838608E+02  0.29999935432E+02 0.  0.
         12    1    1    2    0    0 -0.32923427986E+02 -0.21194957230E+02 -0.10953952838E+02  0.40659161392E+02  0.00000000000E+00 0. -1.
         11    1    3    3    0    0  0.96003017084E+01  0.13439535664E+02 -0.29105730843E+00  0.16518826422E+02  0.51100000000E-03 0. -1.
        -11    1    3    3    0    0  0.22107065277E+02  0.13688175547E+02  0.84521481886E+01  0.27340945379E+02  0.51100000000E-03 0.  1.
         12    1    3    3    0    0  0.12160610006E+01 -0.59327539807E+01  0.27928619579E+01  0.66690668064E+01  0.00000000000E+00 0. -1.
</event>
<event>
 7    1  0.2838209E-011  0.5052886E+02  0.7816164E-02  0.1300439E+00
        -11   -1    0    0    0    0  0.00000000000E+00  0.00000000000E+00  0.45593999997E+02  0.45594000000E+02  0.51100000000E-03 0.  1.
         11   -1    0    0    0    0 -0.00000000000E+00 -0.00000000000E+00 -0.45593999997E+02  0.45594000000E+02  0.51100000000E-03 0. -1.
    9900012    2    1    2    0    0 -0.17844592433E+02 -0.14450158156E+02  0.33554870138E+02  0.50528857612E+02  0.29999993196E+02 0.  0.
         12    1    1    2    0    0  0.17844592433E+02  0.14450158156E+02 -0.33554870138E+02  0.40659142388E+02  0.00000000000E+00 0. -1.
         11    1    3    3    0    0 -0.52668080977E+01 -0.14193561539E+02  0.13687598904E+01  0.15200985514E+02  0.51100000000E-03 0. -1.
        -11    1    3    3    0    0 -0.25092324735E+00  0.13661571117E+01  0.88282348012E+00  0.16458205516E+01  0.51100000000E-03 0.  1.
        -12    1    3    3    0    0 -0.12326861088E+02 -0.16227537288E+01  0.31303286767E+02  0.33682051546E+02  0.00000000000E+00 0.  1.
</event>
<event>
 7    1  0.2838209E-011  0.5052876E+02  0.7816164E-02  0.1300439E+00
        -11   -1    0    0    0    0  0.00000000000E+00  0.00000000000E+00  0.45593999997E+02  0.45594000000E+02  0.51100000000E-03 0.  1.
         11   -1    0    0    0    0 -0.00000000000E+00 -0.00000000000E+00 -0.45593999997E+02  0.45594000000E+02  0.51100000000E-03 0. -1.
    9900012    2    1    2    0    0 -0.39588576504E+02  0.79738604711E+01  0.47261022935E+01  0.50528758943E+02  0.29999693281E+02 0.  0.
         12    1    1    2    0    0  0.39588576504E+02 -0.79738604711E+01 -0.47261022935E+01  0.40659241057E+02  0.00000000000E+00 0. -1.
         11    1    3    3    0    0  0.77512163054E-01  0.20754630303E+01  0.14459529484E+01  0.25306787856E+01  0.51100000000E-03 0. -1.
        -11    1    3    3    0    0 -0.85570209510E+01  0.74491280405E+01  0.11112420497E+02  0.15880743235E+02  0.51100000000E-03 0.  1.
         12    1    3    3    0    0 -0.31109067716E+02 -0.15507305997E+01 -0.78322711524E+01  0.32117336922E+02  0.00000000000E+00 0. -1.
</event>
<event>
 7    1  0.2838209E-011  0.5052886E+02  0.7816164E-02  0.1300439E+00
        -11   -1    0    0    0    0  0.00000000000E+00  0.00000000000E+00  0.45593999997E+02  0.45594000000E+02  0.51100000000E-03 0.  1.
         11   -1    0    0    0    0 -0.00000000000E+00 -0.00000000000E+00 -0.45593999997E+02  0.45594000000E+02  0.51100000000E-03 0. -1.
    9900012    2    1    2    0    0 -0.34913674450E+02  0.23334561064E+01  0.20706426606E+02  0.50528858546E+02  0.29999996037E+02 0.  0.
         12    1    1    2    0    0  0.34913674450E+02 -0.23334561064E+01 -0.20706426606E+02  0.40659141454E+02  0.00000000000E+00 0. -1.
         11    1    3    3    0    0 -0.26934940499E-01 -0.60486464561E+00  0.28805441187E+01  0.29434879670E+01  0.51100000000E-03 0. -1.
        -11    1    3    3    0    0 -0.25720105125E+01  0.76857222077E+01  0.11888876345E+02  0.14388569941E+02  0.51100000000E-03 0.  1.
         12    1    3    3    0    0 -0.32314728997E+02 -0.47474014557E+01  0.59370061419E+01  0.33196800639E+02  0.00000000000E+00 0. -1.
</event>
<event>
 7    1  0.2838209E-011  0.5052886E+02  0.7816164E-02  0.1300439E+00
        -11   -1    0    0    0    0  0.00000000000E+00  0.00000000000E+00  0.45593999997E+02  0.45594000000E+02  0.51100000000E-03 0. -1.
         11   -1    0    0    0    0 -0.00000000000E+00 -0.00000000000E+00 -0.45593999997E+02  0.45594000000E+02  0.51100000000E-03 0.  1.
    9900012    2    1    2    0    0 -0.38841657782E+02 -0.98125406967E+01 -0.69429787672E+01  0.50528864639E+02  0.30000014556E+02 0.  0.
         12    1    1    2    0    0  0.38841657782E+02  0.98125406967E+01  0.69429787672E+01  0.40659135361E+02  0.00000000000E+00 0. -1.
         11    1    3    3    0    0 -0.61129551231E+00 -0.37601214060E+01  0.58912357122E+01  0.70156149887E+01  0.51100000000E-03 0. -1.
        -11    1    3    3    0    0 -0.70780279582E+01 -0.26588392633E+01  0.33201292759E+01  0.82577941773E+01  0.51100000000E-03 0.  1.
        -12    1    3    3    0    0 -0.31152334311E+02 -0.33935800274E+01 -0.16154343755E+02  0.35255455473E+02  0.00000000000E+00 0.  1.
</event>
<event>
 7    1  0.2838209E-011  0.5052886E+02  0.7816164E-02  0.1300439E+00
        -11   -1    0    0    0    0  0.00000000000E+00  0.00000000000E+00  0.45593999997E+02  0.45594000000E+02  0.51100000000E-03 0. -1.
         11   -1    0    0    0    0 -0.00000000000E+00 -0.00000000000E+00 -0.45593999997E+02  0.45594000000E+02  0.51100000000E-03 0.  1.
    9900012    2    1    2    0    0  0.38542635256E+02  0.93645441693E+01 -0.89406846451E+01  0.50528864964E+02  0.30000015544E+02 0.  0.
         12    1    1    2    0    0 -0.38542635256E+02 -0.93645441693E+01  0.89406846451E+01  0.40659135036E+02  0.00000000000E+00 0. -1.
         11    1    3    3    0    0  0.31208363523E+01 -0.29726039051E+01  0.38616755081E+01  0.57869276396E+01  0.51100000000E-03 0. -1.
        -11    1    3    3    0    0  0.93376884422E+01  0.53924305391E+01  0.55242876343E+01  0.12115629851E+02  0.51100000000E-03 0.  1.
        -12    1    3    3    0    0  0.26084110461E+02  0.69447175352E+01 -0.18326647788E+02  0.32626307473E+02  0.00000000000E+00 0.  1.
</event>
<event>
 7    1  0.2838209E-011  0.5052885E+02  0.7816164E-02  0.1300439E+00
        -11   -1    0    0    0    0  0.00000000000E+00  0.00000000000E+00  0.45593999997E+02  0.45594000000E+02  0.51100000000E-03 0.  1.
         11   -1    0    0    0    0 -0.00000000000E+00 -0.00000000000E+00 -0.45593999997E+02  0.45594000000E+02  0.51100000000E-03 0. -1.
    9900012    2    1    2    0    0  0.21963206814E+01 -0.94557209162E+01  0.39483308048E+02  0.50528854694E+02  0.29999984328E+02 0.  0.
         12    1    1    2    0    0 -0.21963206814E+01  0.94557209162E+01 -0.39483308048E+02  0.40659145306E+02  0.00000000000E+00 0. -1.
         11    1    3    3    0    0  0.53308060156E+01 -0.87316460314E+01  0.11791020048E+02  0.15610486515E+02  0.51100000000E-03 0. -1.
        -11    1    3    3    0    0  0.61661062806E+01 -0.72460737126E+01  0.16009802076E+02  0.18623646627E+02  0.51100000000E-03 0.  1.
         12    1    3    3    0    0 -0.93005916149E+01  0.65219988277E+01  0.11682485924E+02  0.16294721552E+02  0.00000000000E+00 0. -1.
</event>
<event>
 7    1  0.2838209E-011  0.5052886E+02  0.7816164E-02  0.1300439E+00
        -11   -1    0    0    0    0  0.00000000000E+00  0.00000000000E+00  0.45593999997E+02  0.45594000000E+02  0.51100000000E-03 0. -1.
         11   -1    0    0    0    0 -0.00000000000E+00 -0.00000000000E+00 -0.45593999997E+02  0.45594000000E+02  0.51100000000E-03 0.  1.
    9900012    2    1    2    0    0 -0.40570788289E+02  0.30201506119E+00 -0.26619157420E+01  0.50528857475E+02  0.29999992780E+02 0.  0.
         12    1    1    2    0    0  0.40570788289E+02 -0.30201506119E+00  0.26619157420E+01  0.40659142525E+02  0.00000000000E+00 0. -1.
         11    1    3    3    0    0 -0.87508462661E+01  0.10084751094E+02 -0.84128218125E+01  0.15781479212E+02  0.51100000000E-03 0. -1.
        -11    1    3    3    0    0 -0.19863720399E+01 -0.43293987856E+00 -0.16507639459E+01  0.26188036745E+01  0.51100000000E-03 0.  1.
        -12    1    3    3    0    0 -0.29833569983E+02 -0.93497961543E+01  0.74016700164E+01  0.32128574588E+02  0.00000000000E+00 0.  1.
</event>
<event>
 7    1  0.2838209E-011  0.5052886E+02  0.7816164E-02  0.1300439E+00
        -11   -1    0    0    0    0  0.00000000000E+00  0.00000000000E+00  0.45593999997E+02  0.45594000000E+02  0.51100000000E-03 0.  1.
         11   -1    0    0    0    0 -0.00000000000E+00 -0.00000000000E+00 -0.45593999997E+02  0.45594000000E+02  0.51100000000E-03 0. -1.
    9900012    2    1    2    0    0  0.20290309074E+02  0.38195144618E+01  0.35026852241E+02  0.50528859442E+02  0.29999998759E+02 0.  0.
         12    1    1    2    0    0 -0.20290309074E+02 -0.38195144618E+01 -0.35026852241E+02  0.40659140558E+02  0.00000000000E+00 0. -1.
         11    1    3    3    0    0  0.92759577068E+01 -0.99083776267E+01  0.19335892526E+02  0.23624057200E+02  0.51100000000E-03 0. -1.
        -11    1    3    3    0    0 -0.79830449453E+00 -0.19849943858E+01  0.21594968018E+01  0.30398880696E+01  0.51100000000E-03 0.  1.
        -12    1    3    3    0    0  0.11812655862E+02  0.15712886474E+02  0.13531462913E+02  0.23864914172E+02  0.00000000000E+00 0.  1.
</event>
<event>
 7    1  0.2838209E-011  0.5052886E+02  0.7816164E-02  0.1300439E+00
        -11   -1    0    0    0    0  0.00000000000E+00  0.00000000000E+00  0.45593999997E+02  0.45594000000E+02  0.51100000000E-03 0.  1.
         11   -1    0    0    0    0 -0.00000000000E+00 -0.00000000000E+00 -0.45593999997E+02  0.45594000000E+02  0.51100000000E-03 0. -1.
    9900012    2    1    2    0    0  0.37457919051E+02 -0.14990340681E+02  0.50358410401E+01  0.50528859474E+02  0.29999998857E+02 0.  0.
         12    1    1    2    0    0 -0.37457919051E+02  0.14990340681E+02 -0.50358410401E+01  0.40659140526E+02  0.00000000000E+00 0. -1.
         11    1    3    3    0    0  0.72221002437E+01  0.18048497441E+01 -0.79433669468E+01  0.10886381090E+02  0.51100000000E-03 0. -1.
        -11    1    3    3    0    0  0.11378335203E+01 -0.31885340432E+01 -0.22785149456E+01  0.40808142671E+01  0.51100000000E-03 0.  1.
        -12    1    3    3    0    0  0.29097985287E+02 -0.13606656382E+02  0.15257722932E+02  0.35561664117E+02  0.00000000000E+00 0.  1.
</event>
<event>
 7    1  0.2838209E-011  0.5052885E+02  0.7816164E-02  0.1300439E+00
        -11   -1    0    0    0    0  0.00000000000E+00  0.00000000000E+00  0.45593999997E+02  0.45594000000E+02  0.51100000000E-03 0. -1.
         11   -1    0    0    0    0 -0.00000000000E+00 -0.00000000000E+00 -0.45593999997E+02  0.45594000000E+02  0.51100000000E-03 0.  1.
    9900012    2    1    2    0    0  0.21542093855E+02  0.17740844432E+02 -0.29569692925E+02  0.50528854553E+02  0.29999983900E+02 0.  0.
         12    1    1    2    0    0 -0.21542093855E+02 -0.17740844432E+02  0.29569692925E+02  0.40659145447E+02  0.00000000000E+00 0. -1.
         11    1    3    3    0    0  0.18909398559E+01  0.16314526505E+01  0.33558601652E+01  0.41831912458E+01  0.51100000000E-03 0. -1.
        -11    1    3    3    0    0  0.11986298726E+02 -0.13759125882E+01 -0.63807747878E+01  0.13648398432E+02  0.51100000000E-03 0.  1.
        -12    1    3    3    0    0  0.76648552728E+01  0.17485304369E+02 -0.26544778302E+02  0.32697264876E+02  0.00000000000E+00 0.  1.
</event>
<event>
 7    1  0.2838209E-011  0.5052887E+02  0.7816164E-02  0.1300439E+00
        -11   -1    0    0    0    0  0.00000000000E+00  0.00000000000E+00  0.45593999997E+02  0.45594000000E+02  0.51100000000E-03 0.  1.
         11   -1    0    0    0    0 -0.00000000000E+00 -0.00000000000E+00 -0.45593999997E+02  0.45594000000E+02  0.51100000000E-03 0. -1.
    9900012    2    1    2    0    0 -0.35366468710E+02 -0.20043491283E+02  0.79743163949E+00  0.50528873730E+02  0.30000042189E+02 0.  0.
         12    1    1    2    0    0  0.35366468710E+02  0.20043491283E+02 -0.79743163949E+00  0.40659126270E+02  0.00000000000E+00 0. -1.
         11    1    3    3    0    0 -0.31117990446E+01 -0.11407368906E+00  0.26655059702E+01  0.40989301579E+01  0.51100000000E-03 0. -1.
        -11    1    3    3    0    0 -0.17883965579E+02 -0.12220110595E+02  0.12228610054E+02  0.24873806140E+02  0.51100000000E-03 0.  1.
         12    1    3    3    0    0 -0.14370704086E+02 -0.77093069989E+01 -0.14096684384E+02  0.21556137432E+02  0.00000000000E+00 0. -1.
</event>
<event>
 7    1  0.2838209E-011  0.5052886E+02  0.7816164E-02  0.1300439E+00
        -11   -1    0    0    0    0  0.00000000000E+00  0.00000000000E+00  0.45593999997E+02  0.45594000000E+02  0.51100000000E-03 0.  1.
         11   -1    0    0    0    0 -0.00000000000E+00 -0.00000000000E+00 -0.45593999997E+02  0.45594000000E+02  0.51100000000E-03 0. -1.
    9900012    2    1    2    0    0 -0.16244773766E+02 -0.37243813336E+02  0.14736837930E+01  0.50528855267E+02  0.29999986070E+02 0.  0.
         12    1    1    2    0    0  0.16244773766E+02  0.37243813336E+02 -0.14736837930E+01  0.40659144733E+02  0.00000000000E+00 0. -1.
         11    1    3    3    0    0 -0.66284865493E+01 -0.20888723159E+01 -0.61124615549E+01  0.92553988573E+01  0.51100000000E-03 0. -1.
        -11    1    3    3    0    0 -0.14891700204E+02 -0.24381651456E+02  0.50461045488E+01  0.29011908487E+02  0.51100000000E-03 0.  1.
         12    1    3    3    0    0  0.52754129865E+01 -0.10773289564E+02  0.25400407991E+01  0.12261547923E+02  0.00000000000E+00 0. -1.
</event>
<event>
 7    1  0.2838209E-011  0.5052886E+02  0.7816164E-02  0.1300439E+00
        -11   -1    0    0    0    0  0.00000000000E+00  0.00000000000E+00  0.45593999997E+02  0.45594000000E+02  0.51100000000E-03 0.  1.
         11   -1    0    0    0    0 -0.00000000000E+00 -0.00000000000E+00 -0.45593999997E+02  0.45594000000E+02  0.51100000000E-03 0. -1.
    9900012    2    1    2    0    0 -0.29692279693E+02  0.21071234822E+01  0.27696460133E+02  0.50528863922E+02  0.30000012377E+02 0.  0.
         12    1    1    2    0    0  0.29692279693E+02 -0.21071234822E+01 -0.27696460133E+02  0.40659136078E+02  0.00000000000E+00 0. -1.
         11    1    3    3    0    0  0.42758724278E+01  0.37428773870E+01  0.19818504629E+01  0.60183010618E+01  0.51100000000E-03 0. -1.
        -11    1    3    3    0    0  0.70559525293E+00  0.60078067861E+00 -0.43535312233E+00  0.10238821646E+01  0.51100000000E-03 0.  1.
        -12    1    3    3    0    0 -0.34673747374E+02 -0.22365345834E+01  0.26149962792E+02  0.43486680695E+02  0.00000000000E+00 0.  1.
</event>
<event>
 7    1  0.2838209E-011  0.5052886E+02  0.7816164E-02  0.1300439E+00
        -11   -1    0    0    0    0  0.00000000000E+00  0.00000000000E+00  0.45593999997E+02  0.45594000000E+02  0.51100000000E-03 0.  1.
         11   -1    0    0    0    0 -0.00000000000E+00 -0.00000000000E+00 -0.45593999997E+02  0.45594000000E+02  0.51100000000E-03 0. -1.
    9900012    2    1    2    0    0  0.46256860955E+01 -0.28036146788E+02  0.29081660570E+02  0.50528862281E+02  0.30000007388E+02 0.  0.
         12    1    1    2    0    0 -0.46256860955E+01  0.28036146788E+02 -0.29081660570E+02  0.40659137719E+02  0.00000000000E+00 0. -1.
         11    1    3    3    0    0 -0.11768577718E+01 -0.26682469133E+01 -0.32386972214E+01  0.43581757375E+01  0.51100000000E-03 0. -1.
        -11    1    3    3    0    0 -0.44859272879E+01 -0.21438759870E+02  0.22750506948E+02  0.31580524616E+02  0.51100000000E-03 0.  1.
         12    1    3    3    0    0  0.10288471155E+02 -0.39291400052E+01  0.95698508429E+01  0.14590161927E+02  0.00000000000E+00 0. -1.
</event>
<event>
 7    1  0.2838209E-011  0.5052886E+02  0.7816164E-02  0.1300439E+00
        -11   -1    0    0    0    0  0.00000000000E+00  0.00000000000E+00  0.45593999997E+02  0.45594000000E+02  0.51100000000E-03 0. -1.
         11   -1    0    0    0    0 -0.00000000000E+00 -0.00000000000E+00 -0.45593999997E+02  0.45594000000E+02  0.51100000000E-03 0.  1.
    9900012    2    1    2    0    0 -0.29415083594E+02 -0.28042632018E+02  0.12365554036E+01  0.50528862988E+02  0.30000009537E+02 0.  0.
         12    1    1    2    0    0  0.29415083594E+02  0.28042632018E+02 -0.12365554036E+01  0.40659137012E+02  0.00000000000E+00 0. -1.
         11    1    3    3    0    0 -0.22114168977E+02 -0.19176810090E+02  0.13319388926E+02  0.32158865595E+02  0.51100000000E-03 0. -1.
        -11    1    3    3    0    0 -0.27572344303E+01 -0.29445545589E+01  0.15366798509E+00  0.40368747026E+01  0.51100000000E-03 0.  1.
        -12    1    3    3    0    0 -0.45436801873E+01 -0.59212673688E+01 -0.12236501507E+02  0.14333122690E+02  0.00000000000E+00 0.  1.
</event>
<event>
 7    1  0.2838209E-011  0.5052886E+02  0.7816164E-02  0.1300439E+00
        -11   -1    0    0    0    0  0.00000000000E+00  0.00000000000E+00  0.45593999997E+02  0.45594000000E+02  0.51100000000E-03 0. -1.
         11   -1    0    0    0    0 -0.00000000000E+00 -0.00000000000E+00 -0.45593999997E+02  0.45594000000E+02  0.51100000000E-03 0.  1.
    9900012    2    1    2    0    0 -0.31178669820E+02  0.25110058209E+02 -0.71092499752E+01  0.50528856991E+02  0.29999991309E+02 0.  0.
         12    1    1    2    0    0  0.31178669820E+02 -0.25110058209E+02  0.71092499752E+01  0.40659143009E+02  0.00000000000E+00 0. -1.
         11    1    3    3    0    0  0.65935680520E+00 -0.63629256075E+00  0.15762291328E+01  0.18232164325E+01  0.51100000000E-03 0. -1.
        -11    1    3    3    0    0 -0.11651483398E+02  0.15215287484E+02  0.77011035160E+01  0.20653547739E+02  0.51100000000E-03 0.  1.
         12    1    3    3    0    0 -0.20186543228E+02  0.10531063286E+02 -0.16386582624E+02  0.28052092819E+02  0.00000000000E+00 0. -1.
</event>
<event>
 7    1  0.2838209E-011  0.5052886E+02  0.7816164E-02  0.1300439E+00
        -11   -1    0    0    0    0  0.00000000000E+00  0.00000000000E+00  0.45593999997E+02  0.45594000000E+02  0.51100000000E-03 0. -1.
         11   -1    0    0    0    0 -0.00000000000E+00 -0.00000000000E+00 -0.45593999997E+02  0.45594000000E+02  0.51100000000E-03 0.  1.
    9900012    2    1    2    0    0  0.11270257514E+02 -0.99711196838E+01 -0.37771994639E+02  0.50528861898E+02  0.30000006227E+02 0.  0.
         12    1    1    2    0    0 -0.11270257514E+02  0.99711196838E+01  0.37771994639E+02  0.40659138102E+02  0.00000000000E+00 0. -1.
         11    1    3    3    0    0  0.52122107284E+00 -0.24653207606E+01  0.49382752278E+00  0.25677507166E+01  0.51100000000E-03 0. -1.
        -11    1    3    3    0    0  0.90073521342E+01  0.86133440016E+01 -0.13628502978E+02  0.18467760585E+02  0.51100000000E-03 0.  1.
         12    1    3    3    0    0  0.17416843070E+01 -0.16119142925E+02 -0.24637319183E+02  0.29493350596E+02  0.00000000000E+00 0. -1.
</event>
<event>
 7    1  0.2838209E-011  0.5052886E+02  0.7816164E-02  0.1300439E+00
        -11   -1    0    0    0    0  0.00000000000E+00  0.00000000000E+00  0.45593999997E+02  0.45594000000E+02  0.51100000000E-03 0.  1.
         11   -1    0    0    0    0 -0.00000000000E+00 -0.00000000000E+00 -0.45593999997E+02  0.45594000000E+02  0.51100000000E-03 0. -1.
    9900012    2    1    2    0    0  0.12518690028E+02 -0.16765015958E+02  0.34862332163E+02  0.50528861249E+02  0.30000004253E+02 0.  0.
         12    1    1    2    0    0 -0.12518690028E+02  0.16765015958E+02 -0.34862332163E+02  0.40659138751E+02  0.00000000000E+00 0. -1.
         11    1    3    3    0    0 -0.28005990315E+00 -0.45125288527E+01 -0.15651642680E+01  0.47844633599E+01  0.51100000000E-03 0. -1.
        -11    1    3    3    0    0  0.30175424829E+01 -0.24690473891E+01 -0.23641408640E+01  0.45597061234E+01  0.51100000000E-03 0.  1.
        -12    1    3    3    0    0  0.97812074488E+01 -0.97834397164E+01  0.38791637295E+02  0.41184691766E+02  0.00000000000E+00 0.  1.
</event>
<event>
 7    1  0.2838209E-011  0.5052886E+02  0.7816164E-02  0.1300439E+00
        -11   -1    0    0    0    0  0.00000000000E+00  0.00000000000E+00  0.45593999997E+02  0.45594000000E+02  0.51100000000E-03 0. -1.
         11   -1    0    0    0    0 -0.00000000000E+00 -0.00000000000E+00 -0.45593999997E+02  0.45594000000E+02  0.51100000000E-03 0.  1.
    9900012    2    1    2    0    0 -0.35552557508E+02  0.19365733104E+02 -0.37615987459E+01  0.50528860939E+02  0.30000003311E+02 0.  0.
         12    1    1    2    0    0  0.35552557508E+02 -0.19365733104E+02  0.37615987459E+01  0.40659139061E+02  0.00000000000E+00 0. -1.
         11    1    3    3    0    0  0.49618132230E+00 -0.31166452376E+01 -0.27129075052E+00  0.31675341157E+01  0.51100000000E-03 0. -1.
        -11    1    3    3    0    0 -0.35097533669E+01 -0.24880807729E+01 -0.46421698499E+01  0.63291907702E+01  0.51100000000E-03 0.  1.
        -12    1    3    3    0    0 -0.32538985464E+02  0.24970459114E+02  0.11518618545E+01  0.41032136053E+02  0.00000000000E+00 0.  1.
</event>
<event>
 7    1  0.2838209E-011  0.5052885E+02  0.7816164E-02  0.1300439E+00
        -11   -1    0    0    0    0  0.00000000000E+00  0.00000000000E+00  0.45593999997E+02  0.45594000000E+02  0.51100000000E-03 0. -1.
         11   -1    0    0    0    0 -0.00000000000E+00 -0.00000000000E+00 -0.45593999997E+02  0.45594000000E+02  0.51100000000E-03 0.  1.
    9900012    2    1    2    0    0 -0.20604106095E+01  0.40604879614E+02 -0.40598744930E+00  0.50528851385E+02  0.29999974268E+02 0.  0.
         12    1    1    2    0    0  0.20604106095E+01 -0.40604879614E+02  0.40598744930E+00  0.40659148615E+02  0.00000000000E+00 0. -1.
         11    1    3    3    0    0  0.91911396275E+00  0.28098865978E+01  0.82769351897E+01  0.87890778564E+01  0.51100000000E-03 0. -1.
        -11    1    3    3    0    0  0.30326202568E+00 -0.14021832454E+01 -0.72913070391E+00  0.16092599399E+01  0.51100000000E-03 0.  1.
        -12    1    3    3    0    0 -0.32827865979E+01  0.39197176261E+02 -0.79537919351E+01  0.40130513588E+02  0.00000000000E+00 0.  1.
</event>
<event>
 7    1  0.2838209E-011  0.5052886E+02  0.7816164E-02  0.1300439E+00
        -11   -1    0    0    0    0  0.00000000000E+00  0.00000000000E+00  0.45593999997E+02  0.45594000000E+02  0.51100000000E-03 0.  1.
         11   -1    0    0    0    0 -0.00000000000E+00 -0.00000000000E+00 -0.45593999997E+02  0.45594000000E+02  0.51100000000E-03 0. -1.
    9900012    2    1    2    0    0 -0.25546215150E+02  0.28106391331E+02  0.14511625510E+02  0.50528860596E+02  0.30000002267E+02 0.  0.
         12    1    1    2    0    0  0.25546215150E+02 -0.28106391331E+02 -0.14511625510E+02  0.40659139404E+02  0.00000000000E+00 0. -1.
         11    1    3    3    0    0 -0.19599612966E+01  0.51869176116E+01 -0.11343026000E+01  0.56597001019E+01  0.51100000000E-03 0. -1.
        -11    1    3    3    0    0  0.40856013853E+01 -0.19339731307E+01  0.58744360001E-02  0.45202240564E+01  0.51100000000E-03 0.  1.
        -12    1    3    3    0    0 -0.27671855239E+02  0.24853446850E+02  0.15640053674E+02  0.40348936437E+02  0.00000000000E+00 0.  1.
</event>
<event>
 7    1  0.2838209E-011  0.5052887E+02  0.7816164E-02  0.1300439E+00
        -11   -1    0    0    0    0  0.00000000000E+00  0.00000000000E+00  0.45593999997E+02  0.45594000000E+02  0.51100000000E-03 0.  1.
         11   -1    0    0    0    0 -0.00000000000E+00 -0.00000000000E+00 -0.45593999997E+02  0.45594000000E+02  0.51100000000E-03 0. -1.
    9900012    2    1    2    0    0  0.72258829105E+01 -0.36352904631E+02  0.16715806457E+02  0.50528865178E+02  0.30000016195E+02 0.  0.
         12    1    1    2    0    0 -0.72258829105E+01  0.36352904631E+02 -0.16715806457E+02  0.40659134822E+02  0.00000000000E+00 0. -1.
         11    1    3    3    0    0  0.34215954118E+01 -0.12361760083E+02  0.44092249048E+01  0.13563247842E+02  0.51100000000E-03 0. -1.
        -11    1    3    3    0    0  0.71398663267E+01 -0.28423264859E+02  0.10540408573E+02  0.31144179064E+02  0.51100000000E-03 0.  1.
         12    1    3    3    0    0 -0.33355788280E+01  0.44321203105E+01  0.17661729793E+01  0.58214382722E+01  0.00000000000E+00 0. -1.
</event>
<event>
 7    1  0.2838209E-011  0.5052886E+02  0.7816164E-02  0.1300439E+00
        -11   -1    0    0    0    0  0.00000000000E+00  0.00000000000E+00  0.45593999997E+02  0.45594000000E+02  0.51100000000E-03 0.  1.
         11   -1    0    0    0    0 -0.00000000000E+00 -0.00000000000E+00 -0.45593999997E+02  0.45594000000E+02  0.51100000000E-03 0. -1.
    9900012    2    1    2    0    0 -0.27177445507E+02  0.46875932042E+01  0.29876053677E+02  0.50528860097E+02  0.30000000750E+02 0.  0.
         12    1    1    2    0    0  0.27177445507E+02 -0.46875932042E+01 -0.29876053677E+02  0.40659139903E+02  0.00000000000E+00 0. -1.
         11    1    3    3    0    0  0.10756774390E+01  0.10693905676E+01  0.65235628011E+01  0.66975779219E+01  0.51100000000E-03 0. -1.
        -11    1    3    3    0    0 -0.56321026353E+00  0.42614380860E+01  0.13925099378E+02  0.14573450289E+02  0.51100000000E-03 0.  1.
         12    1    3    3    0    0 -0.27689912683E+02 -0.64323544942E+00  0.94273914979E+01  0.29257831886E+02  0.00000000000E+00 0. -1.
</event>
<event>
 7    1  0.2838209E-011  0.5052886E+02  0.7816164E-02  0.1300439E+00
        -11   -1    0    0    0    0  0.00000000000E+00  0.00000000000E+00  0.45593999997E+02  0.45594000000E+02  0.51100000000E-03 0.  1.
         11   -1    0    0    0    0 -0.00000000000E+00 -0.00000000000E+00 -0.45593999997E+02  0.45594000000E+02  0.51100000000E-03 0. -1.
    9900012    2    1    2    0    0 -0.62025509761E+01  0.24927823615E+02  0.31516627071E+02  0.50528858215E+02  0.29999995031E+02 0.  0.
         12    1    1    2    0    0  0.62025509761E+01 -0.24927823615E+02 -0.31516627071E+02  0.40659141785E+02  0.00000000000E+00 0. -1.
         11    1    3    3    0    0  0.20069569898E+01  0.22543600115E+01  0.14980431641E+02  0.15281470735E+02  0.51100000000E-03 0. -1.
        -11    1    3    3    0    0 -0.51216118827E+01  0.93305707221E-01  0.10481894483E+02  0.11666607324E+02  0.51100000000E-03 0.  1.
        -12    1    3    3    0    0 -0.30878960832E+01  0.22580157896E+02  0.60543009470E+01  0.23580780156E+02  0.00000000000E+00 0.  1.
</event>
<event>
 7    1  0.2838209E-011  0.5052887E+02  0.7816164E-02  0.1300439E+00
        -11   -1    0    0    0    0  0.00000000000E+00  0.00000000000E+00  0.45593999997E+02  0.45594000000E+02  0.51100000000E-03 0. -1.
         11   -1    0    0    0    0 -0.00000000000E+00 -0.00000000000E+00 -0.45593999997E+02  0.45594000000E+02  0.51100000000E-03 0.  1.
    9900012    2    1    2    0    0 -0.19091319949E+02  0.21300681842E+02 -0.28895802591E+02  0.50528868778E+02  0.30000027138E+02 0.  0.
         12    1    1    2    0    0  0.19091319949E+02 -0.21300681842E+02  0.28895802591E+02  0.40659131222E+02  0.00000000000E+00 0. -1.
         11    1    3    3    0    0 -0.28834584016E+00  0.60533818185E+01 -0.43734968840E+01  0.74735567181E+01  0.51100000000E-03 0. -1.
        -11    1    3    3    0    0  0.95910724373E+00  0.15540244334E+02 -0.96142800970E+01  0.18299001686E+02  0.51100000000E-03 0.  1.
        -12    1    3    3    0    0 -0.19762081353E+02 -0.29294431007E+00 -0.14908025610E+02  0.24756310374E+02  0.00000000000E+00 0.  1.
</event>
<event>
 7    1  0.2838209E-011  0.5052886E+02  0.7816164E-02  0.1300439E+00
        -11   -1    0    0    0    0  0.00000000000E+00  0.00000000000E+00  0.45593999997E+02  0.45594000000E+02  0.51100000000E-03 0.  1.
         11   -1    0    0    0    0 -0.00000000000E+00 -0.00000000000E+00 -0.45593999997E+02  0.45594000000E+02  0.51100000000E-03 0. -1.
    9900012    2    1    2    0    0  0.24046026799E-01 -0.32267933130E+02  0.24737533618E+02  0.50528860115E+02  0.30000000805E+02 0.  0.
         12    1    1    2    0    0 -0.24046026799E-01  0.32267933130E+02 -0.24737533618E+02  0.40659139885E+02  0.00000000000E+00 0. -1.
         11    1    3    3    0    0 -0.13861549753E+02 -0.16550346299E+02  0.11841131450E+02  0.24622528676E+02  0.51100000000E-03 0. -1.
        -11    1    3    3    0    0  0.64668435637E+00 -0.55180685294E+00  0.36597156786E+01  0.37571545841E+01  0.51100000000E-03 0.  1.
         12    1    3    3    0    0  0.13238911423E+02 -0.15165779978E+02  0.92366864902E+01  0.22149176854E+02  0.00000000000E+00 0. -1.
</event>
<event>
 7    1  0.2838209E-011  0.5052886E+02  0.7816164E-02  0.1300439E+00
        -11   -1    0    0    0    0  0.00000000000E+00  0.00000000000E+00  0.45593999997E+02  0.45594000000E+02  0.51100000000E-03 0. -1.
         11   -1    0    0    0    0 -0.00000000000E+00 -0.00000000000E+00 -0.45593999997E+02  0.45594000000E+02  0.51100000000E-03 0.  1.
    9900012    2    1    2    0    0 -0.39906240009E+02 -0.65313136668E+01  0.42426186720E+01  0.50528857571E+02  0.29999993072E+02 0.  0.
         12    1    1    2    0    0  0.39906240009E+02  0.65313136668E+01 -0.42426186720E+01  0.40659142429E+02  0.00000000000E+00 0. -1.
         11    1    3    3    0    0 -0.66281063561E+01 -0.18602984091E+01 -0.80645290356E+00  0.69312964578E+01  0.51100000000E-03 0. -1.
        -11    1    3    3    0    0 -0.37129596750E+02 -0.58196811226E+01  0.82282128834E+01  0.38473096193E+02  0.51100000000E-03 0.  1.
         12    1    3    3    0    0  0.38514630969E+01  0.11486658649E+01 -0.31791413079E+01  0.51244649195E+01  0.00000000000E+00 0. -1.
</event>
<event>
 7    1  0.2838209E-011  0.5052894E+02  0.7816164E-02  0.1300439E+00
        -11   -1    0    0    0    0  0.00000000000E+00  0.00000000000E+00  0.45593999997E+02  0.45594000000E+02  0.51100000000E-03 0.  1.
         11   -1    0    0    0    0 -0.00000000000E+00 -0.00000000000E+00 -0.45593999997E+02  0.45594000000E+02  0.51100000000E-03 0. -1.
    9900012    2    1    2    0    0  0.31622279653E+02  0.84022339824E+01  0.24136969964E+02  0.50528936738E+02  0.30000233707E+02 0.  0.
         12    1    1    2    0    0 -0.31622279653E+02 -0.84022339824E+01 -0.24136969964E+02  0.40659063262E+02  0.00000000000E+00 0. -1.
         11    1    3    3    0    0  0.32216073735E+02  0.13968032086E+02  0.17374660053E+02  0.39177291120E+02  0.51100000000E-03 0. -1.
        -11    1    3    3    0    0  0.19347295409E+01 -0.47119064403E+01  0.12765951938E+01  0.52511842710E+01  0.51100000000E-03 0.  1.
        -12    1    3    3    0    0 -0.25285236236E+01 -0.85389166341E+00  0.54857147169E+01  0.61004613467E+01  0.00000000000E+00 0.  1.
</event>
<event>
 7    1  0.2838209E-011  0.5052886E+02  0.7816164E-02  0.1300439E+00
        -11   -1    0    0    0    0  0.00000000000E+00  0.00000000000E+00  0.45593999997E+02  0.45594000000E+02  0.51100000000E-03 0.  1.
         11   -1    0    0    0    0 -0.00000000000E+00 -0.00000000000E+00 -0.45593999997E+02  0.45594000000E+02  0.51100000000E-03 0. -1.
    9900012    2    1    2    0    0  0.40442343863E+02  0.39642938152E+01 -0.13664452675E+01  0.50528856191E+02  0.29999988879E+02 0.  0.
         12    1    1    2    0    0 -0.40442343863E+02 -0.39642938152E+01  0.13664452675E+01  0.40659143809E+02  0.00000000000E+00 0. -1.
         11    1    3    3    0    0  0.24198318902E+01 -0.34547104885E+01  0.66428493556E+00  0.42698812247E+01  0.51100000000E-03 0. -1.
        -11    1    3    3    0    0  0.25528126742E+02 -0.54869859106E+01  0.56619196341E+01  0.26717964061E+02  0.51100000000E-03 0.  1.
         12    1    3    3    0    0  0.12494385231E+02  0.12905990214E+02 -0.76926498372E+01  0.19541010906E+02  0.00000000000E+00 0. -1.
</event>
<event>
 7    1  0.2838209E-011  0.5052886E+02  0.7816164E-02  0.1300439E+00
        -11   -1    0    0    0    0  0.00000000000E+00  0.00000000000E+00  0.45593999997E+02  0.45594000000E+02  0.51100000000E-03 0. -1.
         11   -1    0    0    0    0 -0.00000000000E+00 -0.00000000000E+00 -0.45593999997E+02  0.45594000000E+02  0.51100000000E-03 0.  1.
    9900012    2    1    2    0    0 -0.31420689941E+02 -0.25702025088E+02 -0.23047751758E+01  0.50528857872E+02  0.29999993986E+02 0.  0.
         12    1    1    2    0    0  0.31420689941E+02  0.25702025088E+02  0.23047751758E+01  0.40659142128E+02  0.00000000000E+00 0. -1.
         11    1    3    3    0    0 -0.13696819316E+02 -0.83621962357E+00 -0.58922274247E+01  0.14933869790E+02  0.51100000000E-03 0. -1.
        -11    1    3    3    0    0 -0.17781957366E+02 -0.11786684978E+02 -0.18855905406E+01  0.21416801874E+02  0.51100000000E-03 0.  1.
         12    1    3    3    0    0  0.58086740775E-01 -0.13079120486E+02  0.54730427895E+01  0.14178186208E+02  0.00000000000E+00 0. -1.
</event>
<event>
 7    1  0.2838209E-011  0.5052887E+02  0.7816164E-02  0.1300439E+00
        -11   -1    0    0    0    0  0.00000000000E+00  0.00000000000E+00  0.45593999997E+02  0.45594000000E+02  0.51100000000E-03 0. -1.
         11   -1    0    0    0    0 -0.00000000000E+00 -0.00000000000E+00 -0.45593999997E+02  0.45594000000E+02  0.51100000000E-03 0.  1.
    9900012    2    1    2    0    0 -0.38460486739E+02 -0.30207900670E+01 -0.12838647512E+02  0.50528867166E+02  0.30000022239E+02 0.  0.
         12    1    1    2    0    0  0.38460486739E+02  0.30207900670E+01  0.12838647512E+02  0.40659132834E+02  0.00000000000E+00 0. -1.
         11    1    3    3    0    0  0.99709539546E+00  0.26810771138E+01 -0.34610232061E+00  0.28813470452E+01  0.51100000000E-03 0. -1.
        -11    1    3    3    0    0 -0.10183975810E+02  0.79155378553E+01  0.34497923885E+00  0.12903027311E+02  0.51100000000E-03 0.  1.
         12    1    3    3    0    0 -0.29273606325E+02 -0.13617405036E+02 -0.12837524430E+02  0.34744492811E+02  0.00000000000E+00 0. -1.
</event>
<event>
 7    1  0.2838209E-011  0.5052887E+02  0.7816164E-02  0.1300439E+00
        -11   -1    0    0    0    0  0.00000000000E+00  0.00000000000E+00  0.45593999997E+02  0.45594000000E+02  0.51100000000E-03 0. -1.
         11   -1    0    0    0    0 -0.00000000000E+00 -0.00000000000E+00 -0.45593999997E+02  0.45594000000E+02  0.51100000000E-03 0.  1.
    9900012    2    1    2    0    0 -0.40263660427E+02  0.53130264172E+01 -0.19427177735E+01  0.50528871221E+02  0.30000034564E+02 0.  0.
         12    1    1    2    0    0  0.40263660427E+02 -0.53130264172E+01  0.19427177735E+01  0.40659128779E+02  0.00000000000E+00 0. -1.
         11    1    3    3    0    0 -0.12761192844E+01 -0.14822731445E+00 -0.96203540138E+00  0.16049810402E+01  0.51100000000E-03 0. -1.
        -11    1    3    3    0    0 -0.39949786403E+02 -0.24546716202E+01  0.27513506628E+01  0.40119580970E+02  0.51100000000E-03 0.  1.
         12    1    3    3    0    0  0.96224526067E+00  0.79159253518E+01 -0.37320330349E+01  0.88043092114E+01  0.00000000000E+00 0. -1.
</event>
<event>
 7    1  0.2838209E-011  0.5052886E+02  0.7816164E-02  0.1300439E+00
        -11   -1    0    0    0    0  0.00000000000E+00  0.00000000000E+00  0.45593999997E+02  0.45594000000E+02  0.51100000000E-03 0.  1.
         11   -1    0    0    0    0 -0.00000000000E+00 -0.00000000000E+00 -0.45593999997E+02  0.45594000000E+02  0.51100000000E-03 0. -1.
    9900012    2    1    2    0    0  0.29570697326E+02  0.19048514770E+02  0.20393470162E+02  0.50528859815E+02  0.29999999895E+02 0.  0.
         12    1    1    2    0    0 -0.29570697326E+02 -0.19048514770E+02 -0.20393470162E+02  0.40659140185E+02  0.00000000000E+00 0. -1.
         11    1    3    3    0    0  0.14266601139E+02  0.11580089518E+02  0.11131072169E+02  0.21483369130E+02  0.51100000000E-03 0. -1.
        -11    1    3    3    0    0  0.15895002530E+02  0.37578454791E+01  0.15007365925E+02  0.22180927400E+02  0.51100000000E-03 0.  1.
         12    1    3    3    0    0 -0.59090634243E+00  0.37105797729E+01 -0.57449679319E+01  0.68645632851E+01  0.00000000000E+00 0. -1.
</event>
<event>
 7    1  0.2838209E-011  0.5052886E+02  0.7816164E-02  0.1300439E+00
        -11   -1    0    0    0    0  0.00000000000E+00  0.00000000000E+00  0.45593999997E+02  0.45594000000E+02  0.51100000000E-03 0.  1.
         11   -1    0    0    0    0 -0.00000000000E+00 -0.00000000000E+00 -0.45593999997E+02  0.45594000000E+02  0.51100000000E-03 0. -1.
    9900012    2    1    2    0    0  0.27961153961E+02 -0.84601526325E+01  0.28280129432E+02  0.50528855468E+02  0.29999986680E+02 0.  0.
         12    1    1    2    0    0 -0.27961153961E+02  0.84601526325E+01 -0.28280129432E+02  0.40659144532E+02  0.00000000000E+00 0. -1.
         11    1    3    3    0    0  0.25458385774E+02 -0.12703633978E+02  0.12707159925E+02  0.31160610329E+02  0.51100000000E-03 0.  1.
        -11    1    3    3    0    0 -0.76521471896E+00  0.66130077256E+00 -0.13938677497E+01  0.17221323534E+01  0.51100000000E-03 0. -1.
        -12    1    3    3    0    0  0.32679829058E+01  0.35821805726E+01  0.16966837257E+02  0.17646112785E+02  0.00000000000E+00 0.  1.
</event>
<event>
 7    1  0.2838209E-011  0.5052887E+02  0.7816164E-02  0.1300439E+00
        -11   -1    0    0    0    0  0.00000000000E+00  0.00000000000E+00  0.45593999997E+02  0.45594000000E+02  0.51100000000E-03 0. -1.
         11   -1    0    0    0    0 -0.00000000000E+00 -0.00000000000E+00 -0.45593999997E+02  0.45594000000E+02  0.51100000000E-03 0.  1.
    9900012    2    1    2    0    0  0.12462548195E+02 -0.11355866929E+02 -0.36998572523E+02  0.50528865849E+02  0.30000018234E+02 0.  0.
         12    1    1    2    0    0 -0.12462548195E+02  0.11355866929E+02  0.36998572523E+02  0.40659134151E+02  0.00000000000E+00 0. -1.
         11    1    3    3    0    0  0.80282479047E+01 -0.96101162537E+01 -0.10696655956E+02  0.16468926733E+02  0.51100000000E-03 0. -1.
        -11    1    3    3    0    0  0.96294572349E+00 -0.11303988367E+02 -0.15693503602E+02  0.19364748205E+02  0.51100000000E-03 0.  1.
        -12    1    3    3    0    0  0.34713545669E+01  0.95582376915E+01 -0.10608412965E+02  0.14695190911E+02  0.00000000000E+00 0.  1.
</event>
<event>
 7    1  0.2838209E-011  0.5052885E+02  0.7816164E-02  0.1300439E+00
        -11   -1    0    0    0    0  0.00000000000E+00  0.00000000000E+00  0.45593999997E+02  0.45594000000E+02  0.51100000000E-03 0. -1.
         11   -1    0    0    0    0 -0.00000000000E+00 -0.00000000000E+00 -0.45593999997E+02  0.45594000000E+02  0.51100000000E-03 0.  1.
    9900012    2    1    2    0    0 -0.82994987569E+01 -0.99697519039E+01 -0.38534255547E+02  0.50528849945E+02  0.29999969893E+02 0.  0.
         12    1    1    2    0    0  0.82994987569E+01  0.99697519039E+01  0.38534255547E+02  0.40659150055E+02  0.00000000000E+00 0. -1.
         11    1    3    3    0    0 -0.18044950810E+01 -0.78609890138E+01  0.11453912813E+01  0.81463655835E+01  0.51100000000E-03 0. -1.
        -11    1    3    3    0    0  0.16366696017E+01 -0.12298479915E+01 -0.19149594357E+00  0.20561820019E+01  0.51100000000E-03 0.  1.
        -12    1    3    3    0    0 -0.81316732777E+01 -0.87891489861E+00 -0.39488150885E+02  0.40326302360E+02  0.00000000000E+00 0.  1.
</event>
<event>
 7    1  0.2838209E-011  0.5052887E+02  0.7816164E-02  0.1300439E+00
        -11   -1    0    0    0    0  0.00000000000E+00  0.00000000000E+00  0.45593999997E+02  0.45594000000E+02  0.51100000000E-03 0. -1.
         11   -1    0    0    0    0 -0.00000000000E+00 -0.00000000000E+00 -0.45593999997E+02  0.45594000000E+02  0.51100000000E-03 0.  1.
    9900012    2    1    2    0    0 -0.18935796459E+02  0.35787141254E+02 -0.37256656854E+01  0.50528874929E+02  0.30000045836E+02 0.  0.
         12    1    1    2    0    0  0.18935796459E+02 -0.35787141254E+02  0.37256656854E+01  0.40659125071E+02  0.00000000000E+00 0. -1.
         11    1    3    3    0    0 -0.11171828180E+02  0.15131020086E+02 -0.67180172433E-01  0.18808562602E+02  0.51100000000E-03 0. -1.
        -11    1    3    3    0    0 -0.12238699798E+02  0.21550943678E+02  0.15050524194E+01  0.24829299813E+02  0.51100000000E-03 0.  1.
         12    1    3    3    0    0  0.44747315189E+01 -0.89482250976E+00 -0.51635379323E+01  0.68910125141E+01  0.00000000000E+00 0. -1.
</event>
<event>
 7    1  0.2838209E-011  0.5052888E+02  0.7816164E-02  0.1300439E+00
        -11   -1    0    0    0    0  0.00000000000E+00  0.00000000000E+00  0.45593999997E+02  0.45594000000E+02  0.51100000000E-03 0.  1.
         11   -1    0    0    0    0 -0.00000000000E+00 -0.00000000000E+00 -0.45593999997E+02  0.45594000000E+02  0.51100000000E-03 0. -1.
    9900012    2    1    2    0    0 -0.16306745551E+02 -0.71348257521E+01  0.36556098342E+02  0.50528880298E+02  0.30000062154E+02 0.  0.
         12    1    1    2    0    0  0.16306745551E+02  0.71348257521E+01 -0.36556098342E+02  0.40659119702E+02  0.00000000000E+00 0. -1.
         11    1    3    3    0    0 -0.70705181637E+01 -0.17120068200E+02  0.15057339833E+02  0.23870744551E+02  0.51100000000E-03 0. -1.
        -11    1    3    3    0    0 -0.76149329083E+01  0.57133404874E+01  0.80928725588E+01  0.12494960954E+02  0.51100000000E-03 0.  1.
        -12    1    3    3    0    0 -0.16212944790E+01  0.42719019607E+01  0.13405885949E+02  0.14163174794E+02  0.00000000000E+00 0.  1.
</event>
<event>
 7    1  0.2838209E-011  0.5052887E+02  0.7816164E-02  0.1300439E+00
        -11   -1    0    0    0    0  0.00000000000E+00  0.00000000000E+00  0.45593999997E+02  0.45594000000E+02  0.51100000000E-03 0.  1.
         11   -1    0    0    0    0 -0.00000000000E+00 -0.00000000000E+00 -0.45593999997E+02  0.45594000000E+02  0.51100000000E-03 0. -1.
    9900012    2    1    2    0    0  0.13482586339E+02 -0.32008152346E+02  0.21139138353E+02  0.50528866693E+02  0.30000020799E+02 0.  0.
         12    1    1    2    0    0 -0.13482586339E+02  0.32008152346E+02 -0.21139138353E+02  0.40659133307E+02  0.00000000000E+00 0. -1.
         11    1    3    3    0    0  0.37618770810E+00  0.29211118385E+01  0.10066303282E+01  0.31125096696E+01  0.51100000000E-03 0. -1.
        -11    1    3    3    0    0 -0.24358991708E+01 -0.18541690771E+01 -0.29016955572E+01  0.42179835353E+01  0.51100000000E-03 0.  1.
        -12    1    3    3    0    0  0.15542297802E+02 -0.33075095108E+02  0.23034203582E+02  0.43198373488E+02  0.00000000000E+00 0.  1.
</event>
<event>
 7    1  0.2838209E-011  0.5052886E+02  0.7816164E-02  0.1300439E+00
        -11   -1    0    0    0    0  0.00000000000E+00  0.00000000000E+00  0.45593999997E+02  0.45594000000E+02  0.51100000000E-03 0.  1.
         11   -1    0    0    0    0 -0.00000000000E+00 -0.00000000000E+00 -0.45593999997E+02  0.45594000000E+02  0.51100000000E-03 0. -1.
    9900012    2    1    2    0    0  0.77157504746E+01  0.49518905213E+00  0.39917259604E+02  0.50528860414E+02  0.30000001715E+02 0.  0.
         12    1    1    2    0    0 -0.77157504746E+01 -0.49518905213E+00 -0.39917259604E+02  0.40659139586E+02  0.00000000000E+00 0. -1.
         11    1    3    3    0    0 -0.21439372777E+01  0.43134041039E+01  0.20406147709E+01  0.52312551953E+01  0.51100000000E-03 0. -1.
        -11    1    3    3    0    0 -0.65631588820E+00 -0.46653226101E+00  0.33363667102E+02  0.33373382892E+02  0.51100000000E-03 0.  1.
        -12    1    3    3    0    0  0.10516003640E+02 -0.33516827908E+01  0.45129777308E+01  0.11924222327E+02  0.00000000000E+00 0.  1.
</event>
<event>
 7    1  0.2838209E-011  0.5052887E+02  0.7816164E-02  0.1300439E+00
        -11   -1    0    0    0    0  0.00000000000E+00  0.00000000000E+00  0.45593999997E+02  0.45594000000E+02  0.51100000000E-03 0. -1.
         11   -1    0    0    0    0 -0.00000000000E+00 -0.00000000000E+00 -0.45593999997E+02  0.45594000000E+02  0.51100000000E-03 0.  1.
    9900012    2    1    2    0    0 -0.30004638916E+01  0.15770874422E+02 -0.37355614203E+02  0.50528866018E+02  0.30000018750E+02 0.  0.
         12    1    1    2    0    0  0.30004638916E+01 -0.15770874422E+02  0.37355614203E+02  0.40659133982E+02  0.00000000000E+00 0. -1.
         11    1    3    3    0    0 -0.18050503506E+01  0.32362296439E+01  0.34504191735E+01  0.50632777733E+01  0.51100000000E-03 0. -1.
        -11    1    3    3    0    0 -0.33076262219E+01 -0.21817666954E+01 -0.34283707956E+01  0.52396778250E+01  0.51100000000E-03 0.  1.
        -12    1    3    3    0    0  0.21122126808E+01  0.14716411474E+02 -0.37377662581E+02  0.40225910420E+02  0.00000000000E+00 0.  1.
</event>
<event>
 7    1  0.2838209E-011  0.5052886E+02  0.7816164E-02  0.1300439E+00
        -11   -1    0    0    0    0  0.00000000000E+00  0.00000000000E+00  0.45593999997E+02  0.45594000000E+02  0.51100000000E-03 0.  1.
         11   -1    0    0    0    0 -0.00000000000E+00 -0.00000000000E+00 -0.45593999997E+02  0.45594000000E+02  0.51100000000E-03 0. -1.
    9900012    2    1    2    0    0  0.64631979014E+01  0.35328282667E+02  0.19060562914E+02  0.50528861520E+02  0.30000005077E+02 0.  0.
         12    1    1    2    0    0 -0.64631979014E+01 -0.35328282667E+02 -0.19060562914E+02  0.40659138480E+02  0.00000000000E+00 0. -1.
         11    1    3    3    0    0 -0.17464624857E+01 -0.19336868821E+01  0.60106018207E+01  0.65510770626E+01  0.51100000000E-03 0. -1.
        -11    1    3    3    0    0 -0.44281919952E+01  0.32104259612E+01  0.32321918672E+01  0.63531711552E+01  0.51100000000E-03 0.  1.
        -12    1    3    3    0    0  0.12637852382E+02  0.34051543588E+02  0.98177692256E+01  0.37624613302E+02  0.00000000000E+00 0.  1.
</event>
<event>
 7    1  0.2838209E-011  0.5052887E+02  0.7816164E-02  0.1300439E+00
        -11   -1    0    0    0    0  0.00000000000E+00  0.00000000000E+00  0.45593999997E+02  0.45594000000E+02  0.51100000000E-03 0.  1.
         11   -1    0    0    0    0 -0.00000000000E+00 -0.00000000000E+00 -0.45593999997E+02  0.45594000000E+02  0.51100000000E-03 0. -1.
    9900012    2    1    2    0    0 -0.63462420655E+01 -0.12504271455E+02  0.38164558973E+02  0.50528866283E+02  0.30000019554E+02 0.  0.
         12    1    1    2    0    0  0.63462420655E+01  0.12504271455E+02 -0.38164558973E+02  0.40659133717E+02  0.00000000000E+00 0. -1.
         11    1    3    3    0    0 -0.68902358273E+00 -0.34123825948E+00 -0.69281119506E+00  0.10349805121E+01  0.51100000000E-03 0. -1.
        -11    1    3    3    0    0  0.63314675682E+01 -0.16637402646E+02  0.24089252028E+02  0.29953008395E+02  0.51100000000E-03 0.  1.
        -12    1    3    3    0    0 -0.11988686051E+02  0.44743694502E+01  0.14768118141E+02  0.19540877376E+02  0.00000000000E+00 0.  1.
</event>
<event>
 7    1  0.2838209E-011  0.5052882E+02  0.7816164E-02  0.1300439E+00
        -11   -1    0    0    0    0  0.00000000000E+00  0.00000000000E+00  0.45593999997E+02  0.45594000000E+02  0.51100000000E-03 0. -1.
         11   -1    0    0    0    0 -0.00000000000E+00 -0.00000000000E+00 -0.45593999997E+02  0.45594000000E+02  0.51100000000E-03 0.  1.
    9900012    2    1    2    0    0 -0.24344292113E+02 -0.31159740016E+02 -0.94654679600E+01  0.50528818503E+02  0.29999874321E+02 0.  0.
         12    1    1    2    0    0  0.24344292113E+02  0.31159740016E+02  0.94654679600E+01  0.40659181497E+02  0.00000000000E+00 0. -1.
         11    1    3    3    0    0 -0.44373431080E+01 -0.13472941111E+02  0.61856861871E+01  0.15474910982E+02  0.51100000000E-03 0.  1.
        -11    1    3    3    0    0 -0.10309721324E+01 -0.47563508091E+01  0.28409002853E+01  0.56352898106E+01  0.51100000000E-03 0. -1.
        -12    1    3    3    0    0 -0.18875976872E+02 -0.12930448095E+02 -0.18492054432E+02  0.29418617710E+02  0.00000000000E+00 0.  1.
</event>
<event>
 7    1  0.2838209E-011  0.5052887E+02  0.7816164E-02  0.1300439E+00
        -11   -1    0    0    0    0  0.00000000000E+00  0.00000000000E+00  0.45593999997E+02  0.45594000000E+02  0.51100000000E-03 0.  1.
         11   -1    0    0    0    0 -0.00000000000E+00 -0.00000000000E+00 -0.45593999997E+02  0.45594000000E+02  0.51100000000E-03 0. -1.
    9900012    2    1    2    0    0  0.18387843278E+02 -0.71514048778E+01  0.35551506157E+02  0.50528868649E+02  0.30000026746E+02 0.  0.
         12    1    1    2    0    0 -0.18387843278E+02  0.71514048778E+01 -0.35551506157E+02  0.40659131351E+02  0.00000000000E+00 0. -1.
         11    1    3    3    0    0  0.34538942490E+01  0.14769526905E+01  0.50478861301E+00  0.37901961081E+01  0.51100000000E-03 0. -1.
        -11    1    3    3    0    0  0.15052588916E+02 -0.56316465319E+01  0.54205287287E+01  0.16961073306E+02  0.51100000000E-03 0.  1.
        -12    1    3    3    0    0 -0.11863988679E+00 -0.29967110365E+01  0.29626188816E+02  0.29777599235E+02  0.00000000000E+00 0.  1.
</event>
<event>
 7    1  0.2838209E-011  0.5052886E+02  0.7816164E-02  0.1300439E+00
        -11   -1    0    0    0    0  0.00000000000E+00  0.00000000000E+00  0.45593999997E+02  0.45594000000E+02  0.51100000000E-03 0.  1.
         11   -1    0    0    0    0 -0.00000000000E+00 -0.00000000000E+00 -0.45593999997E+02  0.45594000000E+02  0.51100000000E-03 0. -1.
    9900012    2    1    2    0    0  0.42378876140E+01 -0.34167230002E+01  0.40293075301E+02  0.50528860748E+02  0.30000002729E+02 0.  0.
         12    1    1    2    0    0 -0.42378876140E+01  0.34167230002E+01 -0.40293075301E+02  0.40659139252E+02  0.00000000000E+00 0. -1.
         11    1    3    3    0    0 -0.45402943457E+01  0.77671845680E+01  0.12284255915E+02  0.15226502307E+02  0.51100000000E-03 0. -1.
        -11    1    3    3    0    0  0.12338868734E+00  0.39036015334E+01  0.71123165711E+01  0.81140850974E+01  0.51100000000E-03 0.  1.
        -12    1    3    3    0    0  0.86547932724E+01 -0.15087509102E+02  0.20896502815E+02  0.27188273343E+02  0.00000000000E+00 0.  1.
</event>
<event>
 7    1  0.2838209E-011  0.5052881E+02  0.7816164E-02  0.1300439E+00
        -11   -1    0    0    0    0  0.00000000000E+00  0.00000000000E+00  0.45593999997E+02  0.45594000000E+02  0.51100000000E-03 0.  1.
         11   -1    0    0    0    0 -0.00000000000E+00 -0.00000000000E+00 -0.45593999997E+02  0.45594000000E+02  0.51100000000E-03 0. -1.
    9900012    2    1    2    0    0  0.87734651236E+01  0.35696940682E+02  0.17375975960E+02  0.50528809097E+02  0.29999845730E+02 0.  0.
         12    1    1    2    0    0 -0.87734651236E+01 -0.35696940682E+02 -0.17375975960E+02  0.40659190903E+02  0.00000000000E+00 0. -1.
         11    1    3    3    0    0  0.13753110920E+01  0.18534908213E+01  0.50042395359E+01  0.55108368165E+01  0.51100000000E-03 0. -1.
        -11    1    3    3    0    0  0.22777500416E+01  0.30189702626E+02  0.19108182735E+02  0.35801242124E+02  0.51100000000E-03 0.  1.
         12    1    3    3    0    0  0.51204039899E+01  0.36537472347E+01 -0.67364463108E+01  0.92167301563E+01  0.00000000000E+00 0. -1.
</event>
<event>
 7    1  0.2838209E-011  0.5052886E+02  0.7816164E-02  0.1300439E+00
        -11   -1    0    0    0    0  0.00000000000E+00  0.00000000000E+00  0.45593999997E+02  0.45594000000E+02  0.51100000000E-03 0. -1.
         11   -1    0    0    0    0 -0.00000000000E+00 -0.00000000000E+00 -0.45593999997E+02  0.45594000000E+02  0.51100000000E-03 0.  1.
    9900012    2    1    2    0    0  0.37782192291E+02  0.98226296008E+01 -0.11366081823E+02  0.50528856839E+02  0.29999990848E+02 0.  0.
         12    1    1    2    0    0 -0.37782192291E+02 -0.98226296008E+01  0.11366081823E+02  0.40659143161E+02  0.00000000000E+00 0. -1.
         11    1    3    3    0    0  0.12462316197E+02  0.34008452795E+01  0.42766492313E+01  0.13607527421E+02  0.51100000000E-03 0.  1.
        -11    1    3    3    0    0  0.43390544571E+01  0.83745299099E+01  0.17573901787E+01  0.95941943536E+01  0.51100000000E-03 0. -1.
        -12    1    3    3    0    0  0.20980821637E+02 -0.19527455887E+01 -0.17400121233E+02  0.27327135064E+02  0.00000000000E+00 0.  1.
</event>
<event>
 7    1  0.2838209E-011  0.5052885E+02  0.7816164E-02  0.1300439E+00
        -11   -1    0    0    0    0  0.00000000000E+00  0.00000000000E+00  0.45593999997E+02  0.45594000000E+02  0.51100000000E-03 0. -1.
         11   -1    0    0    0    0 -0.00000000000E+00 -0.00000000000E+00 -0.45593999997E+02  0.45594000000E+02  0.51100000000E-03 0.  1.
    9900012    2    1    2    0    0  0.26030323964E+01 -0.11649438979E+01 -0.40559011538E+02  0.50528852335E+02  0.29999977157E+02 0.  0.
         12    1    1    2    0    0 -0.26030323964E+01  0.11649438979E+01  0.40559011538E+02  0.40659147665E+02  0.00000000000E+00 0. -1.
         11    1    3    3    0    0  0.16708868823E+01 -0.83324648833E+01 -0.12166509339E+02  0.14840680030E+02  0.51100000000E-03 0. -1.
        -11    1    3    3    0    0  0.76177186527E+01  0.23993827999E+01 -0.25904636697E+02  0.27107874833E+02  0.51100000000E-03 0.  1.
         12    1    3    3    0    0 -0.66855731386E+01  0.47681381855E+01 -0.24878655017E+01  0.85802974717E+01  0.00000000000E+00 0. -1.
</event>
<event>
 7    1  0.2838209E-011  0.5052881E+02  0.7816164E-02  0.1300439E+00
        -11   -1    0    0    0    0  0.00000000000E+00  0.00000000000E+00  0.45593999997E+02  0.45594000000E+02  0.51100000000E-03 0. -1.
         11   -1    0    0    0    0 -0.00000000000E+00 -0.00000000000E+00 -0.45593999997E+02  0.45594000000E+02  0.51100000000E-03 0.  1.
    9900012    2    1    2    0    0 -0.21748997796E+02 -0.41008418238E+01 -0.34107686099E+02  0.50528805962E+02  0.29999836201E+02 0.  0.
         12    1    1    2    0    0  0.21748997796E+02  0.41008418238E+01  0.34107686099E+02  0.40659194038E+02  0.00000000000E+00 0. -1.
         11    1    3    3    0    0  0.33630433758E+01 -0.78627563774E+01 -0.46306504067E+01  0.97250152724E+01  0.51100000000E-03 0. -1.
        -11    1    3    3    0    0 -0.61597004228E+01  0.13589453083E+01 -0.16618586977E+02  0.17775434594E+02  0.51100000000E-03 0.  1.
        -12    1    3    3    0    0 -0.18952340749E+02  0.24029692453E+01 -0.12858448716E+02  0.23028356095E+02  0.00000000000E+00 0.  1.
</event>
<event>
 7    1  0.2838209E-011  0.5052885E+02  0.7816164E-02  0.1300439E+00
        -11   -1    0    0    0    0  0.00000000000E+00  0.00000000000E+00  0.45593999997E+02  0.45594000000E+02  0.51100000000E-03 0.  1.
         11   -1    0    0    0    0 -0.00000000000E+00 -0.00000000000E+00 -0.45593999997E+02  0.45594000000E+02  0.51100000000E-03 0. -1.
    9900012    2    1    2    0    0  0.20124885275E+02 -0.15729245651E+02  0.31634573696E+02  0.50528850612E+02  0.29999971919E+02 0.  0.
         12    1    1    2    0    0 -0.20124885275E+02  0.15729245651E+02 -0.31634573696E+02  0.40659149388E+02  0.00000000000E+00 0. -1.
         11    1    3    3    0    0  0.29585571278E+01 -0.79936686466E+01  0.19201148451E+02  0.21007996116E+02  0.51100000000E-03 0.  1.
        -11    1    3    3    0    0  0.16757090857E+02 -0.12847756282E+02  0.12200965177E+02  0.24387055726E+02  0.51100000000E-03 0. -1.
         12    1    3    3    0    0  0.40923728924E+00  0.51121792771E+01  0.23246006764E+00  0.51337987693E+01  0.00000000000E+00 0. -1.
</event>
<event>
 7    1  0.2838209E-011  0.5052886E+02  0.7816164E-02  0.1300439E+00
        -11   -1    0    0    0    0  0.00000000000E+00  0.00000000000E+00  0.45593999997E+02  0.45594000000E+02  0.51100000000E-03 0. -1.
         11   -1    0    0    0    0 -0.00000000000E+00 -0.00000000000E+00 -0.45593999997E+02  0.45594000000E+02  0.51100000000E-03 0.  1.
    9900012    2    1    2    0    0  0.30935740853E+02 -0.24961727272E+02  0.85474047214E+01  0.50528855666E+02  0.29999987281E+02 0.  0.
         12    1    1    2    0    0 -0.30935740853E+02  0.24961727272E+02 -0.85474047214E+01  0.40659144334E+02  0.00000000000E+00 0. -1.
         11    1    3    3    0    0  0.14151142038E+02 -0.19296378546E+02 -0.20166264687E-01  0.23929175768E+02  0.51100000000E-03 0. -1.
        -11    1    3    3    0    0  0.30484480305E+01  0.75389422425E+00 -0.52293779246E+01  0.60998184920E+01  0.51100000000E-03 0.  1.
        -12    1    3    3    0    0  0.13736150784E+02 -0.64192429502E+01  0.13796948911E+02  0.20499861406E+02  0.00000000000E+00 0.  1.
</event>
<event>
 7    1  0.2838209E-011  0.5052884E+02  0.7816164E-02  0.1300439E+00
        -11   -1    0    0    0    0  0.00000000000E+00  0.00000000000E+00  0.45593999997E+02  0.45594000000E+02  0.51100000000E-03 0.  1.
         11   -1    0    0    0    0 -0.00000000000E+00 -0.00000000000E+00 -0.45593999997E+02  0.45594000000E+02  0.51100000000E-03 0. -1.
    9900012    2    1    2    0    0 -0.38123463131E+02  0.51304507379E+01 -0.13169950097E+02  0.50528836809E+02  0.29999929964E+02 0.  0.
         12    1    1    2    0    0  0.38123463131E+02 -0.51304507379E+01  0.13169950097E+02  0.40659163191E+02  0.00000000000E+00 0. -1.
         11    1    3    3    0    0 -0.11559023082E+02 -0.35902114005E+01 -0.74577108347E+01  0.14216823966E+02  0.51100000000E-03 0. -1.
        -11    1    3    3    0    0 -0.24225116441E+02 -0.20759255376E+01 -0.67019198338E+01  0.25220655486E+02  0.51100000000E-03 0.  1.
        -12    1    3    3    0    0 -0.23393236074E+01  0.10796587676E+02  0.98968057177E+00  0.11091357357E+02  0.00000000000E+00 0.  1.
</event>
<event>
 7    1  0.2838209E-011  0.5052886E+02  0.7816164E-02  0.1300439E+00
        -11   -1    0    0    0    0  0.00000000000E+00  0.00000000000E+00  0.45593999997E+02  0.45594000000E+02  0.51100000000E-03 0.  1.
         11   -1    0    0    0    0 -0.00000000000E+00 -0.00000000000E+00 -0.45593999997E+02  0.45594000000E+02  0.51100000000E-03 0. -1.
    9900012    2    1    2    0    0  0.32433872058E+02  0.12298859191E+02  0.21211961514E+02  0.50528864429E+02  0.30000013919E+02 0.  0.
         12    1    1    2    0    0 -0.32433872058E+02 -0.12298859191E+02 -0.21211961514E+02  0.40659135571E+02  0.00000000000E+00 0. -1.
         11    1    3    3    0    0  0.51694357905E+00  0.62566780172E+01  0.81359474369E+01  0.10276521368E+02  0.51100000000E-03 0. -1.
        -11    1    3    3    0    0  0.11652076001E+01  0.32391898868E+01  0.83264806975E+01  0.90100133707E+01  0.51100000000E-03 0.  1.
        -12    1    3    3    0    0  0.30751720879E+02  0.28029912875E+01  0.47495333801E+01  0.31242329690E+02  0.00000000000E+00 0.  1.
</event>
<event>
 7    1  0.2838209E-011  0.5052885E+02  0.7816164E-02  0.1300439E+00
        -11   -1    0    0    0    0  0.00000000000E+00  0.00000000000E+00  0.45593999997E+02  0.45594000000E+02  0.51100000000E-03 0.  1.
         11   -1    0    0    0    0 -0.00000000000E+00 -0.00000000000E+00 -0.45593999997E+02  0.45594000000E+02  0.51100000000E-03 0. -1.
    9900012    2    1    2    0    0  0.15658034448E+02  0.69147222633E+01  0.36880600411E+02  0.50528854492E+02  0.29999983715E+02 0.  0.
         12    1    1    2    0    0 -0.15658034448E+02 -0.69147222633E+01 -0.36880600411E+02  0.40659145508E+02  0.00000000000E+00 0. -1.
         11    1    3    3    0    0 -0.48677828871E+00 -0.19802177913E+01 -0.30771427389E+01  0.36914798252E+01  0.51100000000E-03 0. -1.
        -11    1    3    3    0    0 -0.53021980086E+00 -0.96507534076E-01 -0.13167475617E+01  0.14227688301E+01  0.51100000000E-03 0.  1.
        -12    1    3    3    0    0  0.16675032537E+02  0.89914475887E+01  0.41274490711E+02  0.45414605837E+02  0.00000000000E+00 0.  1.
</event>
<event>
 7    1  0.2838209E-011  0.5052886E+02  0.7816164E-02  0.1300439E+00
        -11   -1    0    0    0    0  0.00000000000E+00  0.00000000000E+00  0.45593999997E+02  0.45594000000E+02  0.51100000000E-03 0. -1.
         11   -1    0    0    0    0 -0.00000000000E+00 -0.00000000000E+00 -0.45593999997E+02  0.45594000000E+02  0.51100000000E-03 0.  1.
    9900012    2    1    2    0    0  0.12438506692E+02 -0.33643411610E+02  0.19146019869E+02  0.50528859941E+02  0.30000000278E+02 0.  0.
         12    1    1    2    0    0 -0.12438506692E+02  0.33643411610E+02 -0.19146019869E+02  0.40659140059E+02  0.00000000000E+00 0. -1.
         11    1    3    3    0    0  0.13844771491E+02 -0.14456653246E+02  0.18547331627E+02  0.27288752839E+02  0.51100000000E-03 0.  1.
        -11    1    3    3    0    0  0.49568772480E+01 -0.49333130082E+01 -0.23040311373E+01  0.73632037206E+01  0.51100000000E-03 0. -1.
        -12    1    3    3    0    0 -0.63631420475E+01 -0.14253445355E+02  0.29027193793E+01  0.15876903382E+02  0.00000000000E+00 0.  1.
</event>
<event>
 7    1  0.2838209E-011  0.5052888E+02  0.7816164E-02  0.1300439E+00
        -11   -1    0    0    0    0  0.00000000000E+00  0.00000000000E+00  0.45593999997E+02  0.45594000000E+02  0.51100000000E-03 0. -1.
         11   -1    0    0    0    0 -0.00000000000E+00 -0.00000000000E+00 -0.45593999997E+02  0.45594000000E+02  0.51100000000E-03 0.  1.
    9900012    2    1    2    0    0  0.16315502903E+02  0.34804999489E+02 -0.13250684751E+02  0.50528877152E+02  0.30000052590E+02 0.  0.
         12    1    1    2    0    0 -0.16315502903E+02 -0.34804999489E+02  0.13250684751E+02  0.40659122848E+02  0.00000000000E+00 0. -1.
         11    1    3    3    0    0  0.12172896277E+01  0.32878017606E+01  0.26112224048E+01  0.43714891242E+01  0.51100000000E-03 0. -1.
        -11    1    3    3    0    0  0.20859021348E+02  0.16868488968E+02 -0.57108910019E+01  0.27427339791E+02  0.51100000000E-03 0.  1.
        -12    1    3    3    0    0 -0.57608080733E+01  0.14648708760E+02 -0.10151016154E+02  0.18730048237E+02  0.00000000000E+00 0.  1.
</event>
<event>
 7    1  0.2838209E-011  0.5052886E+02  0.7816164E-02  0.1300439E+00
        -11   -1    0    0    0    0  0.00000000000E+00  0.00000000000E+00  0.45593999997E+02  0.45594000000E+02  0.51100000000E-03 0.  1.
         11   -1    0    0    0    0 -0.00000000000E+00 -0.00000000000E+00 -0.45593999997E+02  0.45594000000E+02  0.51100000000E-03 0. -1.
    9900012    2    1    2    0    0 -0.89618357068E+01 -0.35998956757E+02  0.16641092998E+02  0.50528863721E+02  0.30000011765E+02 0.  0.
         12    1    1    2    0    0  0.89618357068E+01  0.35998956757E+02 -0.16641092998E+02  0.40659136279E+02  0.00000000000E+00 0. -1.
         11    1    3    3    0    0  0.37907421269E+00 -0.20449924803E+02  0.11696414920E+02  0.23561605293E+02  0.51100000000E-03 0. -1.
        -11    1    3    3    0    0 -0.71273518280E+01 -0.20097972066E+02  0.50221110293E+01  0.21907743487E+02  0.51100000000E-03 0.  1.
         12    1    3    3    0    0 -0.22135580914E+01  0.45489401126E+01 -0.77432951529E-01  0.50595149406E+01  0.00000000000E+00 0. -1.
</event>
<event>
 7    1  0.2838209E-011  0.5052886E+02  0.7816164E-02  0.1300439E+00
        -11   -1    0    0    0    0  0.00000000000E+00  0.00000000000E+00  0.45593999997E+02  0.45594000000E+02  0.51100000000E-03 0.  1.
         11   -1    0    0    0    0 -0.00000000000E+00 -0.00000000000E+00 -0.45593999997E+02  0.45594000000E+02  0.51100000000E-03 0. -1.
    9900012    2    1    2    0    0  0.25879521822E+02 -0.76994370240E+01  0.30399577671E+02  0.50528864461E+02  0.30000014015E+02 0.  0.
         12    1    1    2    0    0 -0.25879521822E+02  0.76994370240E+01 -0.30399577671E+02  0.40659135539E+02  0.00000000000E+00 0. -1.
         11    1    3    3    0    0  0.11041842611E+01 -0.86673491722E+01  0.17374474282E+02  0.19447738207E+02  0.51100000000E-03 0.  1.
        -11    1    3    3    0    0 -0.31298803378E+00  0.26288671456E+01  0.30310486593E+01  0.40244453301E+01  0.51100000000E-03 0. -1.
        -12    1    3    3    0    0  0.25088325595E+02 -0.16609549974E+01  0.99940547304E+01  0.27056680923E+02  0.00000000000E+00 0.  1.
</event>
<event>
 7    1  0.2838209E-011  0.5052889E+02  0.7816164E-02  0.1300439E+00
        -11   -1    0    0    0    0  0.00000000000E+00  0.00000000000E+00  0.45593999997E+02  0.45594000000E+02  0.51100000000E-03 0.  1.
         11   -1    0    0    0    0 -0.00000000000E+00 -0.00000000000E+00 -0.45593999997E+02  0.45594000000E+02  0.51100000000E-03 0. -1.
    9900012    2    1    2    0    0 -0.75286253258E+01 -0.39583106403E+02  0.54461456417E+01  0.50528892605E+02  0.30000099561E+02 0.  0.
         12    1    1    2    0    0  0.75286253258E+01  0.39583106403E+02 -0.54461456417E+01  0.40659107395E+02  0.00000000000E+00 0. -1.
         11    1    3    3    0    0  0.48018969901E+01 -0.28375317714E+02  0.76844787039E+00  0.28789014962E+02  0.51100000000E-03 0. -1.
        -11    1    3    3    0    0 -0.74955650332E+01 -0.13196967481E+02  0.74068893900E+00  0.15195132978E+02  0.51100000000E-03 0.  1.
         12    1    3    3    0    0 -0.48349572827E+01  0.19891787911E+01  0.39370088323E+01  0.65447446654E+01  0.00000000000E+00 0. -1.
</event>
<event>
 7    1  0.2838209E-011  0.5052885E+02  0.7816164E-02  0.1300439E+00
        -11   -1    0    0    0    0  0.00000000000E+00  0.00000000000E+00  0.45593999997E+02  0.45594000000E+02  0.51100000000E-03 0.  1.
         11   -1    0    0    0    0 -0.00000000000E+00 -0.00000000000E+00 -0.45593999997E+02  0.45594000000E+02  0.51100000000E-03 0. -1.
    9900012    2    1    2    0    0  0.33294137252E+02  0.22732206004E+02  0.52833238292E+01  0.50528852495E+02  0.29999977642E+02 0.  0.
         12    1    1    2    0    0 -0.33294137252E+02 -0.22732206004E+02 -0.52833238292E+01  0.40659147505E+02  0.00000000000E+00 0. -1.
         11    1    3    3    0    0  0.11034406600E+02  0.11993520393E+02  0.12090487765E+00  0.16297769132E+02  0.51100000000E-03 0. -1.
        -11    1    3    3    0    0  0.26030465263E+02  0.13346226066E+02  0.43175883811E+01  0.29569383519E+02  0.51100000000E-03 0.  1.
        -12    1    3    3    0    0 -0.37707346108E+01 -0.26075404556E+01  0.84483057041E+00  0.46616998429E+01  0.00000000000E+00 0.  1.
</event>
<event>
 7    1  0.2838209E-011  0.5052886E+02  0.7816164E-02  0.1300439E+00
        -11   -1    0    0    0    0  0.00000000000E+00  0.00000000000E+00  0.45593999997E+02  0.45594000000E+02  0.51100000000E-03 0.  1.
         11   -1    0    0    0    0 -0.00000000000E+00 -0.00000000000E+00 -0.45593999997E+02  0.45594000000E+02  0.51100000000E-03 0. -1.
    9900012    2    1    2    0    0 -0.26802910996E+02  0.16252339113E+02  0.25896548532E+02  0.50528858464E+02  0.29999995788E+02 0.  0.
         12    1    1    2    0    0  0.26802910996E+02 -0.16252339113E+02 -0.25896548532E+02  0.40659141536E+02  0.00000000000E+00 0. -1.
         11    1    3    3    0    0 -0.34817096889E+01 -0.24078737820E+01  0.27071294394E+00  0.42418680162E+01  0.51100000000E-03 0. -1.
        -11    1    3    3    0    0 -0.16909291441E+02 -0.17080322538E+01  0.13694196701E+02  0.21825960111E+02  0.51100000000E-03 0.  1.
        -12    1    3    3    0    0 -0.64119098663E+01  0.20368245149E+02  0.11931638887E+02  0.24461030337E+02  0.00000000000E+00 0.  1.
</event>
<event>
 7    1  0.2838209E-011  0.5052886E+02  0.7816164E-02  0.1300439E+00
        -11   -1    0    0    0    0  0.00000000000E+00  0.00000000000E+00  0.45593999997E+02  0.45594000000E+02  0.51100000000E-03 0.  1.
         11   -1    0    0    0    0 -0.00000000000E+00 -0.00000000000E+00 -0.45593999997E+02  0.45594000000E+02  0.51100000000E-03 0. -1.
    9900012    2    1    2    0    0  0.24817120162E+02  0.24050738938E+02  0.21420508530E+02  0.50528859794E+02  0.29999999830E+02 0.  0.
         12    1    1    2    0    0 -0.24817120162E+02 -0.24050738938E+02 -0.21420508530E+02  0.40659140206E+02  0.00000000000E+00 0. -1.
         11    1    3    3    0    0  0.35157322337E+01  0.69730168191E+01  0.40518500069E+01  0.87977738911E+01  0.51100000000E-03 0.  1.
        -11    1    3    3    0    0  0.17071047262E+02  0.17391119555E+02  0.53939710193E+00  0.24375451657E+02  0.51100000000E-03 0. -1.
         12    1    3    3    0    0  0.42303406667E+01 -0.31339743623E+00  0.16829261421E+02  0.17355634246E+02  0.00000000000E+00 0. -1.
</event>
<event>
 7    1  0.2838209E-011  0.5052884E+02  0.7816164E-02  0.1300439E+00
        -11   -1    0    0    0    0  0.00000000000E+00  0.00000000000E+00  0.45593999997E+02  0.45594000000E+02  0.51100000000E-03 0. -1.
         11   -1    0    0    0    0 -0.00000000000E+00 -0.00000000000E+00 -0.45593999997E+02  0.45594000000E+02  0.51100000000E-03 0.  1.
    9900012    2    1    2    0    0 -0.30293314054E+02  0.12371861999E+01 -0.27091549667E+02  0.50528836587E+02  0.29999929290E+02 0.  0.
         12    1    1    2    0    0  0.30293314054E+02 -0.12371861999E+01  0.27091549667E+02  0.40659163413E+02  0.00000000000E+00 0. -1.
         11    1    3    3    0    0 -0.15883461740E+01  0.72365582944E+01 -0.10810268921E+02  0.13105439097E+02  0.51100000000E-03 0. -1.
        -11    1    3    3    0    0 -0.25848950989E+01  0.44101588621E+01 -0.39276096391E+00  0.51269333229E+01  0.51100000000E-03 0.  1.
        -12    1    3    3    0    0 -0.26120072781E+02 -0.10409530957E+02 -0.15888519783E+02  0.32296464167E+02  0.00000000000E+00 0.  1.
</event>
<event>
 7    1  0.2838209E-011  0.5052886E+02  0.7816164E-02  0.1300439E+00
        -11   -1    0    0    0    0  0.00000000000E+00  0.00000000000E+00  0.45593999997E+02  0.45594000000E+02  0.51100000000E-03 0.  1.
         11   -1    0    0    0    0 -0.00000000000E+00 -0.00000000000E+00 -0.45593999997E+02  0.45594000000E+02  0.51100000000E-03 0. -1.
    9900012    2    1    2    0    0 -0.16515630357E+02 -0.31233022315E+02 -0.20122077642E+02  0.50528859113E+02  0.29999997761E+02 0.  0.
         12    1    1    2    0    0  0.16515630357E+02  0.31233022315E+02  0.20122077642E+02  0.40659140887E+02  0.00000000000E+00 0. -1.
         11    1    3    3    0    0 -0.65404087083E+01 -0.13177561344E+02 -0.98099551097E+01  0.17682202594E+02  0.51100000000E-03 0. -1.
        -11    1    3    3    0    0 -0.12731894624E+02 -0.15149094586E+02 -0.16303296250E+02  0.25639689475E+02  0.51100000000E-03 0.  1.
         12    1    3    3    0    0  0.27566729753E+01 -0.29063663851E+01  0.59911737186E+01  0.72069670447E+01  0.00000000000E+00 0. -1.
</event>
<event>
 7    1  0.2838209E-011  0.5052886E+02  0.7816164E-02  0.1300439E+00
        -11   -1    0    0    0    0  0.00000000000E+00  0.00000000000E+00  0.45593999997E+02  0.45594000000E+02  0.51100000000E-03 0.  1.
         11   -1    0    0    0    0 -0.00000000000E+00 -0.00000000000E+00 -0.45593999997E+02  0.45594000000E+02  0.51100000000E-03 0. -1.
    9900012    2    1    2    0    0  0.34796833744E+02  0.17671211842E+02  0.11405008040E+02  0.50528861114E+02  0.30000003843E+02 0.  0.
         12    1    1    2    0    0 -0.34796833744E+02 -0.17671211842E+02 -0.11405008040E+02  0.40659138886E+02  0.00000000000E+00 0. -1.
         11    1    3    3    0    0  0.12605553381E+01  0.71213796651E+01 -0.49993730967E+01  0.87918587180E+01  0.51100000000E-03 0. -1.
        -11    1    3    3    0    0  0.29181222388E+01  0.83573571218E+00 -0.29515361443E+01  0.42338466498E+01  0.51100000000E-03 0.  1.
        -12    1    3    3    0    0  0.30618156167E+02  0.97140964648E+01  0.19355917281E+02  0.37503155746E+02  0.00000000000E+00 0.  1.
</event>
<event>
 7    1  0.2838209E-011  0.5052888E+02  0.7816164E-02  0.1300439E+00
        -11   -1    0    0    0    0  0.00000000000E+00  0.00000000000E+00  0.45593999997E+02  0.45594000000E+02  0.51100000000E-03 0. -1.
         11   -1    0    0    0    0 -0.00000000000E+00 -0.00000000000E+00 -0.45593999997E+02  0.45594000000E+02  0.51100000000E-03 0.  1.
    9900012    2    1    2    0    0  0.47016941805E+01  0.20605452123E+02 -0.34734327209E+02  0.50528879596E+02  0.30000060020E+02 0.  0.
         12    1    1    2    0    0 -0.47016941805E+01 -0.20605452123E+02  0.34734327209E+02  0.40659120404E+02  0.00000000000E+00 0. -1.
         11    1    3    3    0    0 -0.54932581262E+01  0.13918317881E+02 -0.90152210711E+01  0.17469106122E+02  0.51100000000E-03 0. -1.
        -11    1    3    3    0    0 -0.44931156273E+01 -0.21732559495E+00 -0.64964038393E+01  0.79018087524E+01  0.51100000000E-03 0.  1.
         12    1    3    3    0    0  0.14688067934E+02  0.69044598367E+01 -0.19222702299E+02  0.25157964722E+02  0.00000000000E+00 0. -1.
</event>
<event>
 7    1  0.2838209E-011  0.5052885E+02  0.7816164E-02  0.1300439E+00
        -11   -1    0    0    0    0  0.00000000000E+00  0.00000000000E+00  0.45593999997E+02  0.45594000000E+02  0.51100000000E-03 0.  1.
         11   -1    0    0    0    0 -0.00000000000E+00 -0.00000000000E+00 -0.45593999997E+02  0.45594000000E+02  0.51100000000E-03 0. -1.
    9900012    2    1    2    0    0 -0.87316106892E+00  0.19237949710E+01  0.40604228801E+02  0.50528846125E+02  0.29999958280E+02 0.  0.
         12    1    1    2    0    0  0.87316106892E+00 -0.19237949710E+01 -0.40604228801E+02  0.40659153875E+02  0.00000000000E+00 0. -1.
         11    1    3    3    0    0 -0.39895980177E+01  0.72594930525E+01  0.51369892568E+01  0.97470913922E+01  0.51100000000E-03 0. -1.
        -11    1    3    3    0    0 -0.41379740224E+01  0.19850956509E+01  0.85601998635E+00  0.46686405122E+01  0.51100000000E-03 0.  1.
         12    1    3    3    0    0  0.72544109712E+01 -0.73207937324E+01  0.34611219558E+02  0.36113114220E+02  0.00000000000E+00 0. -1.
</event>
<event>
 7    1  0.2838209E-011  0.5052886E+02  0.7816164E-02  0.1300439E+00
        -11   -1    0    0    0    0  0.00000000000E+00  0.00000000000E+00  0.45593999997E+02  0.45594000000E+02  0.51100000000E-03 0. -1.
         11   -1    0    0    0    0 -0.00000000000E+00 -0.00000000000E+00 -0.45593999997E+02  0.45594000000E+02  0.51100000000E-03 0.  1.
    9900012    2    1    2    0    0  0.30235652103E+02  0.16846631550E+02 -0.21334520139E+02  0.50528863238E+02  0.30000010298E+02 0.  0.
         12    1    1    2    0    0 -0.30235652103E+02 -0.16846631550E+02  0.21334520139E+02  0.40659136762E+02  0.00000000000E+00 0. -1.
         11    1    3    3    0    0  0.90496021259E+00  0.79222424498E+01 -0.27175808648E+01  0.84241393886E+01  0.51100000000E-03 0. -1.
        -11    1    3    3    0    0  0.95694210994E+01  0.59100650519E+01 -0.19036040113E+02  0.22110484222E+02  0.51100000000E-03 0.  1.
        -12    1    3    3    0    0  0.19761270791E+02  0.30143240482E+01  0.41910083871E+00  0.19994239627E+02  0.00000000000E+00 0.  1.
</event>
<event>
 7    1  0.2838209E-011  0.5052886E+02  0.7816164E-02  0.1300439E+00
        -11   -1    0    0    0    0  0.00000000000E+00  0.00000000000E+00  0.45593999997E+02  0.45594000000E+02  0.51100000000E-03 0. -1.
         11   -1    0    0    0    0 -0.00000000000E+00 -0.00000000000E+00 -0.45593999997E+02  0.45594000000E+02  0.51100000000E-03 0.  1.
    9900012    2    1    2    0    0 -0.84601587023E+01  0.25590216811E+02 -0.30442274038E+02  0.50528861663E+02  0.30000005510E+02 0.  0.
         12    1    1    2    0    0  0.84601587023E+01 -0.25590216811E+02  0.30442274038E+02  0.40659138337E+02  0.00000000000E+00 0. -1.
         11    1    3    3    0    0 -0.10689874890E+02  0.76142088959E+01 -0.13271777904E+00  0.13125060630E+02  0.51100000000E-03 0. -1.
        -11    1    3    3    0    0  0.56684756082E+00 -0.74740270739E+00  0.68030229794E+00  0.11587659133E+01  0.51100000000E-03 0.  1.
        -12    1    3    3    0    0  0.16628686270E+01  0.18723410623E+02 -0.30989858557E+02  0.36245035119E+02  0.00000000000E+00 0.  1.
</event>
<event>
 7    1  0.2838209E-011  0.5052886E+02  0.7816164E-02  0.1300439E+00
        -11   -1    0    0    0    0  0.00000000000E+00  0.00000000000E+00  0.45593999997E+02  0.45594000000E+02  0.51100000000E-03 0. -1.
         11   -1    0    0    0    0 -0.00000000000E+00 -0.00000000000E+00 -0.45593999997E+02  0.45594000000E+02  0.51100000000E-03 0.  1.
    9900012    2    1    2    0    0  0.13560509620E+02  0.37059781921E+02 -0.97903387614E+01  0.50528860926E+02  0.30000003270E+02 0.  0.
         12    1    1    2    0    0 -0.13560509620E+02 -0.37059781921E+02  0.97903387614E+01  0.40659139074E+02  0.00000000000E+00 0. -1.
         11    1    3    3    0    0  0.14004233565E+02  0.21300537395E+02  0.46127161008E+01  0.25905763859E+02  0.51100000000E-03 0. -1.
        -11    1    3    3    0    0  0.28343783074E+01  0.31028450560E+01  0.10990778345E+01  0.43438830761E+01  0.51100000000E-03 0.  1.
        -12    1    3    3    0    0 -0.32781022522E+01  0.12656399471E+02 -0.15502132697E+02  0.20279213991E+02  0.00000000000E+00 0.  1.
</event>
<event>
 7    1  0.2838209E-011  0.5052886E+02  0.7816164E-02  0.1300439E+00
        -11   -1    0    0    0    0  0.00000000000E+00  0.00000000000E+00  0.45593999997E+02  0.45594000000E+02  0.51100000000E-03 0.  1.
         11   -1    0    0    0    0 -0.00000000000E+00 -0.00000000000E+00 -0.45593999997E+02  0.45594000000E+02  0.51100000000E-03 0. -1.
    9900012    2    1    2    0    0 -0.14846018099E+02  0.29179550908E+02  0.24110485185E+02  0.50528856619E+02  0.29999990178E+02 0.  0.
         12    1    1    2    0    0  0.14846018099E+02 -0.29179550908E+02 -0.24110485185E+02  0.40659143381E+02  0.00000000000E+00 0. -1.
         11    1    3    3    0    0  0.47193401495E+01  0.10099402527E+01  0.25757066715E+01  0.54705041705E+01  0.51100000000E-03 0. -1.
        -11    1    3    3    0    0  0.14877127979E+01  0.13653886030E+02  0.50520794924E+01  0.14634391021E+02  0.51100000000E-03 0.  1.
        -12    1    3    3    0    0 -0.21053071047E+02  0.14515724626E+02  0.16482699021E+02  0.30423961428E+02  0.00000000000E+00 0.  1.
</event>
<event>
 7    1  0.2838209E-011  0.5052886E+02  0.7816164E-02  0.1300439E+00
        -11   -1    0    0    0    0  0.00000000000E+00  0.00000000000E+00  0.45593999997E+02  0.45594000000E+02  0.51100000000E-03 0. -1.
         11   -1    0    0    0    0 -0.00000000000E+00 -0.00000000000E+00 -0.45593999997E+02  0.45594000000E+02  0.51100000000E-03 0.  1.
    9900012    2    1    2    0    0  0.10839507661E+02  0.37308436842E+02  0.11989634949E+02  0.50528859181E+02  0.29999997965E+02 0.  0.
         12    1    1    2    0    0 -0.10839507661E+02 -0.37308436842E+02 -0.11989634949E+02  0.40659140819E+02  0.00000000000E+00 0. -1.
         11    1    3    3    0    0  0.17823789306E+01  0.92129555852E+01  0.47381423387E+01  0.10512155742E+02  0.51100000000E-03 0. -1.
        -11    1    3    3    0    0  0.71024731790E+00  0.30577525272E+02  0.47177732791E+01  0.30947485972E+02  0.51100000000E-03 0.  1.
         12    1    3    3    0    0  0.83468814123E+01 -0.24820440148E+01  0.25337193312E+01  0.90692174663E+01  0.00000000000E+00 0. -1.
</event>
<event>
 7    1  0.2838209E-011  0.5052886E+02  0.7816164E-02  0.1300439E+00
        -11   -1    0    0    0    0  0.00000000000E+00  0.00000000000E+00  0.45593999997E+02  0.45594000000E+02  0.51100000000E-03 0.  1.
         11   -1    0    0    0    0 -0.00000000000E+00 -0.00000000000E+00 -0.45593999997E+02  0.45594000000E+02  0.51100000000E-03 0. -1.
    9900012    2    1    2    0    0  0.54320162824E+00  0.15286747914E+02  0.37672086388E+02  0.50528858069E+02  0.29999994586E+02 0.  0.
         12    1    1    2    0    0 -0.54320162824E+00 -0.15286747914E+02 -0.37672086388E+02  0.40659141931E+02  0.00000000000E+00 0. -1.
         11    1    3    3    0    0  0.88867675883E+01  0.87316080561E+01  0.11585272034E+02  0.17012764201E+02  0.51100000000E-03 0. -1.
        -11    1    3    3    0    0 -0.48823302799E+00  0.11662100213E+02  0.14646268170E+02  0.18728484307E+02  0.51100000000E-03 0.  1.
         12    1    3    3    0    0 -0.78553329320E+01 -0.51069603547E+01  0.11440546184E+02  0.14787609561E+02  0.00000000000E+00 0. -1.
</event>
<event>
 7    1  0.2838209E-011  0.5052886E+02  0.7816164E-02  0.1300439E+00
        -11   -1    0    0    0    0  0.00000000000E+00  0.00000000000E+00  0.45593999997E+02  0.45594000000E+02  0.51100000000E-03 0.  1.
         11   -1    0    0    0    0 -0.00000000000E+00 -0.00000000000E+00 -0.45593999997E+02  0.45594000000E+02  0.51100000000E-03 0. -1.
    9900012    2    1    2    0    0 -0.19208922305E+02 -0.11824487837E+02  0.33828460934E+02  0.50528856159E+02  0.29999988782E+02 0.  0.
         12    1    1    2    0    0  0.19208922305E+02  0.11824487837E+02 -0.33828460934E+02  0.40659143841E+02  0.00000000000E+00 0. -1.
         11    1    3    3    0    0 -0.44493501817E+01 -0.16752025730E+02  0.19198462385E+02  0.25865189760E+02  0.51100000000E-03 0. -1.
        -11    1    3    3    0    0 -0.75052860841E+00 -0.30333468013E+01  0.49883827711E+01  0.58862933108E+01  0.51100000000E-03 0.  1.
         12    1    3    3    0    0 -0.14009043515E+02  0.79608846944E+01  0.96416157776E+01  0.18777373089E+02  0.00000000000E+00 0. -1.
</event>
<event>
 7    1  0.2838209E-011  0.5052886E+02  0.7816164E-02  0.1300439E+00
        -11   -1    0    0    0    0  0.00000000000E+00  0.00000000000E+00  0.45593999997E+02  0.45594000000E+02  0.51100000000E-03 0.  1.
         11   -1    0    0    0    0 -0.00000000000E+00 -0.00000000000E+00 -0.45593999997E+02  0.45594000000E+02  0.51100000000E-03 0. -1.
    9900012    2    1    2    0    0  0.25232793438E+02 -0.26588052672E+02  0.17593953382E+02  0.50528860742E+02  0.30000002712E+02 0.  0.
         12    1    1    2    0    0 -0.25232793438E+02  0.26588052672E+02 -0.17593953382E+02  0.40659139258E+02  0.00000000000E+00 0. -1.
         11    1    3    3    0    0  0.11820658719E+02 -0.17831508093E+02 -0.35918785653E+01  0.21693138209E+02  0.51100000000E-03 0. -1.
        -11    1    3    3    0    0  0.20847060471E+01 -0.26044508304E+01 -0.72545849773E+00  0.34140084540E+01  0.51100000000E-03 0.  1.
         12    1    3    3    0    0  0.11327428672E+02 -0.61520937483E+01  0.21911290445E+02  0.25421714080E+02  0.00000000000E+00 0. -1.
</event>
<event>
 7    1  0.2838209E-011  0.5052886E+02  0.7816164E-02  0.1300439E+00
        -11   -1    0    0    0    0  0.00000000000E+00  0.00000000000E+00  0.45593999997E+02  0.45594000000E+02  0.51100000000E-03 0.  1.
         11   -1    0    0    0    0 -0.00000000000E+00 -0.00000000000E+00 -0.45593999997E+02  0.45594000000E+02  0.51100000000E-03 0. -1.
    9900012    2    1    2    0    0  0.51789515515E+01  0.48545014139E+01  0.40034709946E+02  0.50528859286E+02  0.29999998286E+02 0.  0.
         12    1    1    2    0    0 -0.51789515515E+01 -0.48545014139E+01 -0.40034709946E+02  0.40659140714E+02  0.00000000000E+00 0. -1.
         11    1    3    3    0    0 -0.24296241073E+01  0.33851298578E+01  0.44951920182E+01  0.61293498023E+01  0.51100000000E-03 0. -1.
        -11    1    3    3    0    0  0.98666077377E+01  0.12131736671E+02  0.22583788783E+02  0.27469191814E+02  0.51100000000E-03 0.  1.
        -12    1    3    3    0    0 -0.22580320789E+01 -0.10662365115E+02  0.12955729145E+02  0.16930317669E+02  0.00000000000E+00 0.  1.
</event>
<event>
 7    1  0.2838209E-011  0.5052887E+02  0.7816164E-02  0.1300439E+00
        -11   -1    0    0    0    0  0.00000000000E+00  0.00000000000E+00  0.45593999997E+02  0.45594000000E+02  0.51100000000E-03 0.  1.
         11   -1    0    0    0    0 -0.00000000000E+00 -0.00000000000E+00 -0.45593999997E+02  0.45594000000E+02  0.51100000000E-03 0. -1.
    9900012    2    1    2    0    0  0.96935731619E+01  0.35462538527E+02  0.17366857301E+02  0.50528871481E+02  0.30000035352E+02 0.  0.
         12    1    1    2    0    0 -0.96935731619E+01 -0.35462538527E+02 -0.17366857301E+02  0.40659128519E+02  0.00000000000E+00 0. -1.
         11    1    3    3    0    0 -0.33820796056E+01  0.10468747677E+02 -0.20432792615E+01  0.11189643908E+02  0.51100000000E-03 0. -1.
        -11    1    3    3    0    0  0.20928795931E+01  0.18444556220E+02  0.34374186488E+01  0.18878496931E+02  0.51100000000E-03 0.  1.
        -12    1    3    3    0    0  0.10982773174E+02  0.65492346307E+01  0.15972717914E+02  0.20460730642E+02  0.00000000000E+00 0.  1.
</event>
<event>
 7    1  0.2838209E-011  0.5052877E+02  0.7816164E-02  0.1300439E+00
        -11   -1    0    0    0    0  0.00000000000E+00  0.00000000000E+00  0.45593999997E+02  0.45594000000E+02  0.51100000000E-03 0. -1.
         11   -1    0    0    0    0 -0.00000000000E+00 -0.00000000000E+00 -0.45593999997E+02  0.45594000000E+02  0.51100000000E-03 0.  1.
    9900012    2    1    2    0    0  0.36194440903E+02  0.21521802927E+00 -0.18522672601E+02  0.50528766468E+02  0.29999716156E+02 0.  0.
         12    1    1    2    0    0 -0.36194440903E+02 -0.21521802927E+00  0.18522672601E+02  0.40659233532E+02  0.00000000000E+00 0. -1.
         11    1    3    3    0    0  0.37957476811E+01  0.55267318274E+01 -0.60634661272E+01  0.90398056886E+01  0.51100000000E-03 0. -1.
        -11    1    3    3    0    0  0.20066793880E+02  0.21260859555E+01 -0.17003539170E+02  0.26387815421E+02  0.51100000000E-03 0.  1.
        -12    1    3    3    0    0  0.12331899342E+02 -0.74375997536E+01  0.45443326968E+01  0.15101145358E+02  0.00000000000E+00 0.  1.
</event>
<event>
 7    1  0.2838209E-011  0.5052888E+02  0.7816164E-02  0.1300439E+00
        -11   -1    0    0    0    0  0.00000000000E+00  0.00000000000E+00  0.45593999997E+02  0.45594000000E+02  0.51100000000E-03 0.  1.
         11   -1    0    0    0    0 -0.00000000000E+00 -0.00000000000E+00 -0.45593999997E+02  0.45594000000E+02  0.51100000000E-03 0. -1.
    9900012    2    1    2    0    0  0.18393198735E+02  0.18743323766E+02  0.31040974639E+02  0.50528879842E+02  0.30000060767E+02 0.  0.
         12    1    1    2    0    0 -0.18393198735E+02 -0.18743323766E+02 -0.31040974639E+02  0.40659120158E+02  0.00000000000E+00 0. -1.
         11    1    3    3    0    0  0.16216886274E+01 -0.28799820978E+01  0.33112881619E+01  0.46785468300E+01  0.51100000000E-03 0. -1.
        -11    1    3    3    0    0  0.19851847498E+01  0.50957917616E+00  0.18282781883E+02  0.18397302603E+02  0.51100000000E-03 0.  1.
         12    1    3    3    0    0  0.14786325358E+02  0.21113726687E+02  0.94469045947E+01  0.27453030409E+02  0.00000000000E+00 0. -1.
</event>
<event>
 7    1  0.2838209E-011  0.5052887E+02  0.7816164E-02  0.1300439E+00
        -11   -1    0    0    0    0  0.00000000000E+00  0.00000000000E+00  0.45593999997E+02  0.45594000000E+02  0.51100000000E-03 0. -1.
         11   -1    0    0    0    0 -0.00000000000E+00 -0.00000000000E+00 -0.45593999997E+02  0.45594000000E+02  0.51100000000E-03 0.  1.
    9900012    2    1    2    0    0 -0.69547835643E+01 -0.38590852002E+02 -0.10749049163E+02  0.50528869038E+02  0.30000027928E+02 0.  0.
         12    1    1    2    0    0  0.69547835643E+01  0.38590852002E+02  0.10749049163E+02  0.40659130962E+02  0.00000000000E+00 0. -1.
         11    1    3    3    0    0 -0.35775749010E+01  0.31763249531E+01 -0.28373204634E+01  0.55622360659E+01  0.51100000000E-03 0. -1.
        -11    1    3    3    0    0 -0.35716048339E+01 -0.19427029044E+01 -0.25071441213E+01  0.47766334976E+01  0.51100000000E-03 0.  1.
        -12    1    3    3    0    0  0.19439617066E+00 -0.39824474051E+02 -0.54045845782E+01  0.40189999475E+02  0.00000000000E+00 0.  1.
</event>
<event>
 7    1  0.2838209E-011  0.5052886E+02  0.7816164E-02  0.1300439E+00
        -11   -1    0    0    0    0  0.00000000000E+00  0.00000000000E+00  0.45593999997E+02  0.45594000000E+02  0.51100000000E-03 0.  1.
         11   -1    0    0    0    0 -0.00000000000E+00 -0.00000000000E+00 -0.45593999997E+02  0.45594000000E+02  0.51100000000E-03 0. -1.
    9900012    2    1    2    0    0 -0.29639505633E+01  0.35717676397E+02  0.19199687653E+02  0.50528863067E+02  0.30000009779E+02 0.  0.
         12    1    1    2    0    0  0.29639505633E+01 -0.35717676397E+02 -0.19199687653E+02  0.40659136933E+02  0.00000000000E+00 0. -1.
         11    1    3    3    0    0 -0.34565464566E+01  0.22025993428E+01 -0.33164628792E+01  0.52723887908E+01  0.51100000000E-03 0. -1.
        -11    1    3    3    0    0 -0.59833733660E+00  0.89632332130E+01 -0.33400176519E+01  0.95840114448E+01  0.51100000000E-03 0.  1.
         12    1    3    3    0    0  0.10909332299E+01  0.24551843841E+02  0.25856168184E+02  0.35672462832E+02  0.00000000000E+00 0. -1.
</event>
<event>
 7    1  0.2838209E-011  0.5052886E+02  0.7816164E-02  0.1300439E+00
        -11   -1    0    0    0    0  0.00000000000E+00  0.00000000000E+00  0.45593999997E+02  0.45594000000E+02  0.51100000000E-03 0.  1.
         11   -1    0    0    0    0 -0.00000000000E+00 -0.00000000000E+00 -0.45593999997E+02  0.45594000000E+02  0.51100000000E-03 0. -1.
    9900012    2    1    2    0    0 -0.37793952930E+02 -0.10759153001E+02  0.10441420425E+02  0.50528861890E+02  0.30000006201E+02 0.  0.
         12    1    1    2    0    0  0.37793952930E+02  0.10759153001E+02 -0.10441420425E+02  0.40659138110E+02  0.00000000000E+00 0. -1.
         11    1    3    3    0    0  0.83822166412E+00 -0.27805612534E+01 -0.51477518711E+01  0.59104556533E+01  0.51100000000E-03 0. -1.
        -11    1    3    3    0    0 -0.12267501185E+02  0.35761907754E+01  0.26097158494E+01  0.13041907179E+02  0.51100000000E-03 0.  1.
        -12    1    3    3    0    0 -0.26364673409E+02 -0.11554782523E+02  0.12979456447E+02  0.31576499058E+02  0.00000000000E+00 0.  1.
</event>
<event>
 7    1  0.2838209E-011  0.5052886E+02  0.7816164E-02  0.1300439E+00
        -11   -1    0    0    0    0  0.00000000000E+00  0.00000000000E+00  0.45593999997E+02  0.45594000000E+02  0.51100000000E-03 0.  1.
         11   -1    0    0    0    0 -0.00000000000E+00 -0.00000000000E+00 -0.45593999997E+02  0.45594000000E+02  0.51100000000E-03 0. -1.
    9900012    2    1    2    0    0  0.29641013492E+02  0.25909286679E+02  0.10162898808E+02  0.50528864136E+02  0.30000013028E+02 0.  0.
         12    1    1    2    0    0 -0.29641013492E+02 -0.25909286679E+02 -0.10162898808E+02  0.40659135864E+02  0.00000000000E+00 0. -1.
         11    1    3    3    0    0  0.11186935349E+02  0.18037281565E+01  0.14498561140E+02  0.18401337809E+02  0.51100000000E-03 0. -1.
        -11    1    3    3    0    0  0.19221943099E+01  0.14516067684E+01 -0.32715702426E+01  0.40626549556E+01  0.51100000000E-03 0.  1.
        -12    1    3    3    0    0  0.16531883833E+02  0.22653951754E+02 -0.10640920900E+01  0.28064871371E+02  0.00000000000E+00 0.  1.
</event>
<event>
 7    1  0.2838209E-011  0.5052885E+02  0.7816164E-02  0.1300439E+00
        -11   -1    0    0    0    0  0.00000000000E+00  0.00000000000E+00  0.45593999997E+02  0.45594000000E+02  0.51100000000E-03 0. -1.
         11   -1    0    0    0    0 -0.00000000000E+00 -0.00000000000E+00 -0.45593999997E+02  0.45594000000E+02  0.51100000000E-03 0.  1.
    9900012    2    1    2    0    0  0.38497998261E+02 -0.49143159449E+01 -0.12121059345E+02  0.50528850341E+02  0.29999971097E+02 0.  0.
         12    1    1    2    0    0 -0.38497998261E+02  0.49143159449E+01  0.12121059345E+02  0.40659149659E+02  0.00000000000E+00 0. -1.
         11    1    3    3    0    0 -0.10251908393E+01 -0.21887770838E+01 -0.32706957757E+01  0.40668430628E+01  0.51100000000E-03 0. -1.
        -11    1    3    3    0    0  0.10325777979E+02 -0.86158583120E+01 -0.98338789037E+01  0.16660128447E+02  0.51100000000E-03 0.  1.
         12    1    3    3    0    0  0.29197411122E+02  0.58903194509E+01  0.98351533458E+00  0.29801878831E+02  0.00000000000E+00 0. -1.
</event>
<event>
 7    1  0.2838209E-011  0.5052901E+02  0.7816164E-02  0.1300438E+00
        -11   -1    0    0    0    0  0.00000000000E+00  0.00000000000E+00  0.45593999997E+02  0.45594000000E+02  0.51100000000E-03 0.  1.
         11   -1    0    0    0    0 -0.00000000000E+00 -0.00000000000E+00 -0.45593999997E+02  0.45594000000E+02  0.51100000000E-03 0. -1.
    9900012    2    1    2    0    0 -0.20794159975E+02 -0.20473376530E+02  0.28312499328E+02  0.50529005254E+02  0.30000441966E+02 0.  0.
         12    1    1    2    0    0  0.20794159975E+02  0.20473376530E+02 -0.28312499328E+02  0.40658994746E+02  0.00000000000E+00 0. -1.
         11    1    3    3    0    0  0.42052295111E+01 -0.18878824907E+01  0.94654750473E+01  0.10528213223E+02  0.51100000000E-03 0. -1.
        -11    1    3    3    0    0 -0.15159086317E+02 -0.16288820263E+02  0.19886291530E+02  0.29842723646E+02  0.51100000000E-03 0.  1.
         12    1    3    3    0    0 -0.98403031688E+01 -0.22966737760E+01 -0.10392672498E+01  0.10158068384E+02  0.00000000000E+00 0. -1.
</event>
<event>
 7    1  0.2838209E-011  0.5052886E+02  0.7816164E-02  0.1300439E+00
        -11   -1    0    0    0    0  0.00000000000E+00  0.00000000000E+00  0.45593999997E+02  0.45594000000E+02  0.51100000000E-03 0.  1.
         11   -1    0    0    0    0 -0.00000000000E+00 -0.00000000000E+00 -0.45593999997E+02  0.45594000000E+02  0.51100000000E-03 0. -1.
    9900012    2    1    2    0    0  0.17709745679E+02  0.15757340942E+01  0.36565664247E+02  0.50528857956E+02  0.29999994243E+02 0.  0.
         12    1    1    2    0    0 -0.17709745679E+02 -0.15757340942E+01 -0.36565664247E+02  0.40659142044E+02  0.00000000000E+00 0. -1.
         11    1    3    3    0    0  0.73447542331E+01  0.47344852612E+01  0.14304650526E+02  0.16762571174E+02  0.51100000000E-03 0. -1.
        -11    1    3    3    0    0  0.25032977150E+01  0.65554888056E+01  0.19830208507E+02  0.21035163480E+02  0.51100000000E-03 0.  1.
         12    1    3    3    0    0  0.78616937305E+01 -0.97142399726E+01  0.24308052143E+01  0.12731123303E+02  0.00000000000E+00 0. -1.
</event>
<event>
 7    1  0.2838209E-011  0.5052891E+02  0.7816164E-02  0.1300439E+00
        -11   -1    0    0    0    0  0.00000000000E+00  0.00000000000E+00  0.45593999997E+02  0.45594000000E+02  0.51100000000E-03 0. -1.
         11   -1    0    0    0    0 -0.00000000000E+00 -0.00000000000E+00 -0.45593999997E+02  0.45594000000E+02  0.51100000000E-03 0.  1.
    9900012    2    1    2    0    0  0.25832303499E+02  0.25267712064E+02 -0.18638574335E+02  0.50528909624E+02  0.30000151292E+02 0.  0.
         12    1    1    2    0    0 -0.25832303499E+02 -0.25267712064E+02  0.18638574335E+02  0.40659090376E+02  0.00000000000E+00 0. -1.
         11    1    3    3    0    0  0.85710904631E+01  0.12002970356E+02 -0.64780814983E+01  0.16109017017E+02  0.51100000000E-03 0. -1.
        -11    1    3    3    0    0  0.15791843986E+02  0.16025907035E+02 -0.66767632132E+00  0.22509060947E+02  0.51100000000E-03 0.  1.
         12    1    3    3    0    0  0.14693690498E+01 -0.27611653277E+01 -0.11492816515E+02  0.11910831659E+02  0.00000000000E+00 0. -1.
</event>
<event>
 7    1  0.2838209E-011  0.5052886E+02  0.7816164E-02  0.1300439E+00
        -11   -1    0    0    0    0  0.00000000000E+00  0.00000000000E+00  0.45593999997E+02  0.45594000000E+02  0.51100000000E-03 0. -1.
         11   -1    0    0    0    0 -0.00000000000E+00 -0.00000000000E+00 -0.45593999997E+02  0.45594000000E+02  0.51100000000E-03 0.  1.
    9900012    2    1    2    0    0  0.27266973383E+02  0.26924908248E+02  0.13591440349E+02  0.50528858686E+02  0.29999996461E+02 0.  0.
         12    1    1    2    0    0 -0.27266973383E+02 -0.26924908248E+02 -0.13591440349E+02  0.40659141314E+02  0.00000000000E+00 0. -1.
         11    1    3    3    0    0 -0.93259462584E+00  0.21646702614E+01  0.88814858643E+01  0.91889238486E+01  0.51100000000E-03 0. -1.
        -11    1    3    3    0    0 -0.16086009699E+01  0.16673172032E+01  0.27307437249E+01  0.35811318446E+01  0.51100000000E-03 0.  1.
         12    1    3    3    0    0  0.29808168979E+02  0.23092920784E+02  0.19792107598E+01  0.37758802993E+02  0.00000000000E+00 0. -1.
</event>
<event>
 7    1  0.2838209E-011  0.5052886E+02  0.7816164E-02  0.1300439E+00
        -11   -1    0    0    0    0  0.00000000000E+00  0.00000000000E+00  0.45593999997E+02  0.45594000000E+02  0.51100000000E-03 0.  1.
         11   -1    0    0    0    0 -0.00000000000E+00 -0.00000000000E+00 -0.45593999997E+02  0.45594000000E+02  0.51100000000E-03 0. -1.
    9900012    2    1    2    0    0  0.27012503295E+02  0.25845526750E+02  0.15984335153E+02  0.50528861329E+02  0.30000004495E+02 0.  0.
         12    1    1    2    0    0 -0.27012503295E+02 -0.25845526750E+02 -0.15984335153E+02  0.40659138671E+02  0.00000000000E+00 0. -1.
         11    1    3    3    0    0  0.51117026057E+01 -0.88856213217E+00  0.32151980099E+01  0.61038139467E+01  0.51100000000E-03 0. -1.
        -11    1    3    3    0    0 -0.36608279965E+01 -0.60246882814E+00 -0.19711167131E+01  0.42011821749E+01  0.51100000000E-03 0.  1.
        -12    1    3    3    0    0  0.25561628685E+02  0.27336557710E+02  0.14740253856E+02  0.40223865207E+02  0.00000000000E+00 0.  1.
</event>
<event>
 7    1  0.2838209E-011  0.5052886E+02  0.7816164E-02  0.1300439E+00
        -11   -1    0    0    0    0  0.00000000000E+00  0.00000000000E+00  0.45593999997E+02  0.45594000000E+02  0.51100000000E-03 0.  1.
         11   -1    0    0    0    0 -0.00000000000E+00 -0.00000000000E+00 -0.45593999997E+02  0.45594000000E+02  0.51100000000E-03 0. -1.
    9900012    2    1    2    0    0  0.31609390206E+02  0.91224285273E+01  0.23891275437E+02  0.50528864576E+02  0.30000014366E+02 0.  0.
         12    1    1    2    0    0 -0.31609390206E+02 -0.91224285273E+01 -0.23891275437E+02  0.40659135424E+02  0.00000000000E+00 0. -1.
         11    1    3    3    0    0  0.23860598011E+01 -0.45138590012E+01  0.89289719657E+01  0.10285657251E+02  0.51100000000E-03 0. -1.
        -11    1    3    3    0    0  0.19687610188E+01  0.18617322720E+01  0.97251568996E+01  0.10095580418E+02  0.51100000000E-03 0.  1.
        -12    1    3    3    0    0  0.27254569386E+02  0.11774555257E+02  0.52371465716E+01  0.30147626907E+02  0.00000000000E+00 0.  1.
</event>
<event>
 7    1  0.2838209E-011  0.5052886E+02  0.7816164E-02  0.1300439E+00
        -11   -1    0    0    0    0  0.00000000000E+00  0.00000000000E+00  0.45593999997E+02  0.45594000000E+02  0.51100000000E-03 0. -1.
         11   -1    0    0    0    0 -0.00000000000E+00 -0.00000000000E+00 -0.45593999997E+02  0.45594000000E+02  0.51100000000E-03 0.  1.
    9900012    2    1    2    0    0  0.84401805521E+01 -0.39444240073E+02 -0.51069440609E+01  0.50528860801E+02  0.30000002892E+02 0.  0.
         12    1    1    2    0    0 -0.84401805521E+01  0.39444240073E+02  0.51069440609E+01  0.40659139199E+02  0.00000000000E+00 0. -1.
         11    1    3    3    0    0  0.96363859719E+01 -0.14900770243E+02  0.22130490148E+01  0.17882686449E+02  0.51100000000E-03 0. -1.
        -11    1    3    3    0    0  0.75340643369E+01 -0.52206505673E+01  0.21643147365E+01  0.94181514279E+01  0.51100000000E-03 0.  1.
        -12    1    3    3    0    0 -0.87302697567E+01 -0.19322819263E+02 -0.94843078122E+01  0.23228022924E+02  0.00000000000E+00 0.  1.
</event>
<event>
 7    1  0.2838209E-011  0.5052883E+02  0.7816164E-02  0.1300439E+00
        -11   -1    0    0    0    0  0.00000000000E+00  0.00000000000E+00  0.45593999997E+02  0.45594000000E+02  0.51100000000E-03 0.  1.
         11   -1    0    0    0    0 -0.00000000000E+00 -0.00000000000E+00 -0.45593999997E+02  0.45594000000E+02  0.51100000000E-03 0. -1.
    9900012    2    1    2    0    0 -0.27225972954E+02  0.28639794301E+02  0.95747977783E+01  0.50528829160E+02  0.29999906716E+02 0.  0.
         12    1    1    2    0    0  0.27225972954E+02 -0.28639794301E+02 -0.95747977783E+01  0.40659170840E+02  0.00000000000E+00 0. -1.
         11    1    3    3    0    0  0.14075719197E+01  0.75219058349E+01 -0.22789849735E+01  0.79846163883E+01  0.51100000000E-03 0. -1.
        -11    1    3    3    0    0 -0.11748673494E+02  0.20896899222E+02  0.69312398437E+01  0.24955035804E+02  0.51100000000E-03 0.  1.
         12    1    3    3    0    0 -0.16884871379E+02  0.22098924437E+00  0.49225429081E+01  0.17589176968E+02  0.00000000000E+00 0. -1.
</event>
<event>
 7    1  0.2838209E-011  0.5052886E+02  0.7816164E-02  0.1300439E+00
        -11   -1    0    0    0    0  0.00000000000E+00  0.00000000000E+00  0.45593999997E+02  0.45594000000E+02  0.51100000000E-03 0. -1.
         11   -1    0    0    0    0 -0.00000000000E+00 -0.00000000000E+00 -0.45593999997E+02  0.45594000000E+02  0.51100000000E-03 0.  1.
    9900012    2    1    2    0    0 -0.38792958303E+02 -0.10429260284E+02  0.62850982190E+01  0.50528861500E+02  0.30000005015E+02 0.  0.
         12    1    1    2    0    0  0.38792958303E+02  0.10429260284E+02 -0.62850982190E+01  0.40659138500E+02  0.00000000000E+00 0. -1.
         11    1    3    3    0    0 -0.16909226588E+02 -0.79976931916E+01  0.15588750749E+02  0.24349418686E+02  0.51100000000E-03 0. -1.
        -11    1    3    3    0    0 -0.12405983806E+02  0.41601673404E+00  0.26209476861E+00  0.12415723823E+02  0.51100000000E-03 0.  1.
        -12    1    3    3    0    0 -0.94777479091E+01 -0.28475838262E+01 -0.95657472983E+01  0.13763718991E+02  0.00000000000E+00 0.  1.
</event>
<event>
 7    1  0.2838209E-011  0.5052886E+02  0.7816164E-02  0.1300439E+00
        -11   -1    0    0    0    0  0.00000000000E+00  0.00000000000E+00  0.45593999997E+02  0.45594000000E+02  0.51100000000E-03 0. -1.
         11   -1    0    0    0    0 -0.00000000000E+00 -0.00000000000E+00 -0.45593999997E+02  0.45594000000E+02  0.51100000000E-03 0.  1.
    9900012    2    1    2    0    0 -0.32334621553E+02  0.23181170610E+02  0.83827816261E+01  0.50528862655E+02  0.30000008527E+02 0.  0.
         12    1    1    2    0    0  0.32334621553E+02 -0.23181170610E+02 -0.83827816261E+01  0.40659137345E+02  0.00000000000E+00 0. -1.
         11    1    3    3    0    0 -0.20594320940E+02  0.54922170453E+01  0.76743957437E+01  0.22653627819E+02  0.51100000000E-03 0. -1.
        -11    1    3    3    0    0 -0.15032644248E+02  0.10287344023E+02  0.47462625471E+01  0.18823837244E+02  0.51100000000E-03 0.  1.
        -12    1    3    3    0    0  0.32923436357E+01  0.74016095412E+01 -0.40378766646E+01  0.90513975923E+01  0.00000000000E+00 0.  1.
</event>
<event>
 7    1  0.2838209E-011  0.5052886E+02  0.7816164E-02  0.1300439E+00
        -11   -1    0    0    0    0  0.00000000000E+00  0.00000000000E+00  0.45593999997E+02  0.45594000000E+02  0.51100000000E-03 0. -1.
         11   -1    0    0    0    0 -0.00000000000E+00 -0.00000000000E+00 -0.45593999997E+02  0.45594000000E+02  0.51100000000E-03 0.  1.
    9900012    2    1    2    0    0  0.13348957263E+02 -0.22294627198E+02 -0.31271717943E+02  0.50528863203E+02  0.30000010193E+02 0.  0.
         12    1    1    2    0    0 -0.13348957263E+02  0.22294627198E+02  0.31271717943E+02  0.40659136797E+02  0.00000000000E+00 0. -1.
         11    1    3    3    0    0  0.97920974542E+01 -0.52046280623E+01 -0.42662482104E+01  0.11881674961E+02  0.51100000000E-03 0.  1.
        -11    1    3    3    0    0  0.83604368765E+01 -0.99916138579E+01 -0.32994711379E+01  0.13439336379E+02  0.51100000000E-03 0. -1.
        -12    1    3    3    0    0 -0.48035770679E+01 -0.70983852782E+01 -0.23705998595E+02  0.25207851864E+02  0.00000000000E+00 0.  1.
</event>
<event>
 7    1  0.2838209E-011  0.5052888E+02  0.7816164E-02  0.1300439E+00
        -11   -1    0    0    0    0  0.00000000000E+00  0.00000000000E+00  0.45593999997E+02  0.45594000000E+02  0.51100000000E-03 0.  1.
         11   -1    0    0    0    0 -0.00000000000E+00 -0.00000000000E+00 -0.45593999997E+02  0.45594000000E+02  0.51100000000E-03 0. -1.
    9900012    2    1    2    0    0 -0.18049147078E+02  0.23089009144E+02  0.28183157076E+02  0.50528875609E+02  0.30000047902E+02 0.  0.
         12    1    1    2    0    0  0.18049147078E+02 -0.23089009144E+02 -0.28183157076E+02  0.40659124391E+02  0.00000000000E+00 0. -1.
         11    1    3    3    0    0 -0.61632610396E+01  0.11830064338E+02 -0.84550713661E+00  0.13366042476E+02  0.51100000000E-03 0. -1.
        -11    1    3    3    0    0 -0.72673594455E+01 -0.31571345190E+01  0.11982733317E+02  0.14365511118E+02  0.51100000000E-03 0.  1.
        -12    1    3    3    0    0 -0.46185265928E+01  0.14416079324E+02  0.17045930895E+02  0.22797322015E+02  0.00000000000E+00 0.  1.
</event>
<event>
 7    1  0.2838209E-011  0.5052890E+02  0.7816164E-02  0.1300439E+00
        -11   -1    0    0    0    0  0.00000000000E+00  0.00000000000E+00  0.45593999997E+02  0.45594000000E+02  0.51100000000E-03 0.  1.
         11   -1    0    0    0    0 -0.00000000000E+00 -0.00000000000E+00 -0.45593999997E+02  0.45594000000E+02  0.51100000000E-03 0. -1.
    9900012    2    1    2    0    0  0.13484955111E+02 -0.34289638976E+02  0.17191245364E+02  0.50528901724E+02  0.30000127280E+02 0.  0.
         12    1    1    2    0    0 -0.13484955111E+02  0.34289638976E+02 -0.17191245364E+02  0.40659098276E+02  0.00000000000E+00 0. -1.
         11    1    3    3    0    0  0.70123111583E+01 -0.15697552812E+02 -0.57971372276E+01  0.18143662044E+02  0.51100000000E-03 0. -1.
        -11    1    3    3    0    0  0.57621793478E+01 -0.19008668364E+01  0.69572654328E+01  0.92314434478E+01  0.51100000000E-03 0.  1.
        -12    1    3    3    0    0  0.71046460480E+00 -0.16691219328E+02  0.16031117159E+02  0.23153796232E+02  0.00000000000E+00 0.  1.
</event>
<event>
 7    1  0.2838209E-011  0.5052886E+02  0.7816164E-02  0.1300439E+00
        -11   -1    0    0    0    0  0.00000000000E+00  0.00000000000E+00  0.45593999997E+02  0.45594000000E+02  0.51100000000E-03 0.  1.
         11   -1    0    0    0    0 -0.00000000000E+00 -0.00000000000E+00 -0.45593999997E+02  0.45594000000E+02  0.51100000000E-03 0. -1.
    9900012    2    1    2    0    0 -0.17712243181E+02  0.33489938466E+02  0.14760294055E+02  0.50528858131E+02  0.29999994774E+02 0.  0.
         12    1    1    2    0    0  0.17712243181E+02 -0.33489938466E+02 -0.14760294055E+02  0.40659141869E+02  0.00000000000E+00 0. -1.
         11    1    3    3    0    0 -0.68715666378E+01  0.75697395929E+01  0.15945519633E+02  0.18941461987E+02  0.51100000000E-03 0. -1.
        -11    1    3    3    0    0 -0.52375885019E+01  0.10423099019E+02  0.65556127239E+01  0.13380933634E+02  0.51100000000E-03 0.  1.
         12    1    3    3    0    0 -0.56030880418E+01  0.15497099854E+02 -0.77408383028E+01  0.18206462510E+02  0.00000000000E+00 0. -1.
</event>
<event>
 7    1  0.2838209E-011  0.5052886E+02  0.7816164E-02  0.1300439E+00
        -11   -1    0    0    0    0  0.00000000000E+00  0.00000000000E+00  0.45593999997E+02  0.45594000000E+02  0.51100000000E-03 0.  1.
         11   -1    0    0    0    0 -0.00000000000E+00 -0.00000000000E+00 -0.45593999997E+02  0.45594000000E+02  0.51100000000E-03 0. -1.
    9900012    2    1    2    0    0  0.10242345455E+02 -0.28739122617E+02  0.26876064647E+02  0.50528860066E+02  0.30000000658E+02 0.  0.
         12    1    1    2    0    0 -0.10242345455E+02  0.28739122617E+02 -0.26876064647E+02  0.40659139934E+02  0.00000000000E+00 0. -1.
         11    1    3    3    0    0  0.32169417964E+01 -0.32623397003E+02  0.22077406815E+02  0.39522735716E+02  0.51100000000E-03 0. -1.
        -11    1    3    3    0    0  0.78300439489E+01  0.25019004229E+01  0.45255333248E+01  0.93834719641E+01  0.51100000000E-03 0.  1.
        -12    1    3    3    0    0 -0.80464028984E+00  0.13823739630E+01  0.27312450687E+00  0.16226523860E+01  0.00000000000E+00 0.  1.
</event>
<event>
 7    1  0.2838209E-011  0.5052886E+02  0.7816164E-02  0.1300439E+00
        -11   -1    0    0    0    0  0.00000000000E+00  0.00000000000E+00  0.45593999997E+02  0.45594000000E+02  0.51100000000E-03 0.  1.
         11   -1    0    0    0    0 -0.00000000000E+00 -0.00000000000E+00 -0.45593999997E+02  0.45594000000E+02  0.51100000000E-03 0. -1.
    9900012    2    1    2    0    0 -0.21828413869E+02 -0.34301296237E+02  0.32688037538E+00  0.50528862941E+02  0.30000009397E+02 0.  0.
         12    1    1    2    0    0  0.21828413869E+02  0.34301296237E+02 -0.32688037538E+00  0.40659137059E+02  0.00000000000E+00 0. -1.
         11    1    3    3    0    0 -0.11107382029E+01  0.11598635278E+01 -0.39410404853E+01  0.42556812764E+01  0.51100000000E-03 0. -1.
        -11    1    3    3    0    0 -0.16812015768E+02 -0.22584381032E+02 -0.66678938156E+01  0.28933699192E+02  0.51100000000E-03 0.  1.
        -12    1    3    3    0    0 -0.39056598987E+01 -0.12876778733E+02  0.10935814676E+02  0.17339482473E+02  0.00000000000E+00 0.  1.
</event>
<event>
 7    1  0.2838209E-011  0.5052886E+02  0.7816164E-02  0.1300439E+00
        -11   -1    0    0    0    0  0.00000000000E+00  0.00000000000E+00  0.45593999997E+02  0.45594000000E+02  0.51100000000E-03 0. -1.
         11   -1    0    0    0    0 -0.00000000000E+00 -0.00000000000E+00 -0.45593999997E+02  0.45594000000E+02  0.51100000000E-03 0.  1.
    9900012    2    1    2    0    0 -0.29025928132E+02  0.22074454535E+02 -0.17982750689E+02  0.50528863643E+02  0.30000011530E+02 0.  0.
         12    1    1    2    0    0  0.29025928132E+02 -0.22074454535E+02  0.17982750689E+02  0.40659136357E+02  0.00000000000E+00 0. -1.
         11    1    3    3    0    0 -0.25304513096E+02  0.16442434368E+02 -0.21269918828E+02  0.36919933344E+02  0.51100000000E-03 0. -1.
        -11    1    3    3    0    0 -0.78855299230E+00  0.34018137194E+01 -0.40808696777E+01  0.53710008369E+01  0.51100000000E-03 0.  1.
         12    1    3    3    0    0 -0.29328620436E+01  0.22302064473E+01  0.73680378159E+01  0.82379294620E+01  0.00000000000E+00 0. -1.
</event>
<event>
 7    1  0.2838209E-011  0.5052887E+02  0.7816164E-02  0.1300439E+00
        -11   -1    0    0    0    0  0.00000000000E+00  0.00000000000E+00  0.45593999997E+02  0.45594000000E+02  0.51100000000E-03 0.  1.
         11   -1    0    0    0    0 -0.00000000000E+00 -0.00000000000E+00 -0.45593999997E+02  0.45594000000E+02  0.51100000000E-03 0. -1.
    9900012    2    1    2    0    0  0.13476188185E+02  0.23372778740E+02 -0.30418264355E+02  0.50528865228E+02  0.30000016346E+02 0.  0.
         12    1    1    2    0    0 -0.13476188185E+02 -0.23372778740E+02  0.30418264355E+02  0.40659134772E+02  0.00000000000E+00 0. -1.
         11    1    3    3    0    0  0.85517992247E-01 -0.81313490995E+00  0.14995217878E+01  0.17079424937E+01  0.51100000000E-03 0. -1.
        -11    1    3    3    0    0  0.15868432719E+01  0.15711819643E+02 -0.24706721230E+01  0.15983853386E+02  0.51100000000E-03 0.  1.
         12    1    3    3    0    0  0.11803826921E+02  0.84740940069E+01 -0.29447114020E+02  0.32837069348E+02  0.00000000000E+00 0. -1.
</event>
<event>
 7    1  0.2838209E-011  0.5052885E+02  0.7816164E-02  0.1300439E+00
        -11   -1    0    0    0    0  0.00000000000E+00  0.00000000000E+00  0.45593999997E+02  0.45594000000E+02  0.51100000000E-03 0.  1.
         11   -1    0    0    0    0 -0.00000000000E+00 -0.00000000000E+00 -0.45593999997E+02  0.45594000000E+02  0.51100000000E-03 0. -1.
    9900012    2    1    2    0    0 -0.80437815347E+01 -0.94412395912E+01  0.38721144507E+02  0.50528850251E+02  0.29999970822E+02 0.  0.
         12    1    1    2    0    0  0.80437815347E+01  0.94412395912E+01 -0.38721144507E+02  0.40659149749E+02  0.00000000000E+00 0. -1.
         11    1    3    3    0    0  0.31726595108E+00 -0.24681472816E+01  0.40468575972E+01  0.47507331393E+01  0.51100000000E-03 0. -1.
        -11    1    3    3    0    0  0.61905350010E-01  0.19512408598E+01  0.33381685814E+02  0.33438721884E+02  0.51100000000E-03 0.  1.
         12    1    3    3    0    0 -0.84229528358E+01 -0.89243331694E+01  0.12926010957E+01  0.12339395228E+02  0.00000000000E+00 0. -1.
</event>
<event>
 7    1  0.2838209E-011  0.5052893E+02  0.7816164E-02  0.1300439E+00
        -11   -1    0    0    0    0  0.00000000000E+00  0.00000000000E+00  0.45593999997E+02  0.45594000000E+02  0.51100000000E-03 0. -1.
         11   -1    0    0    0    0 -0.00000000000E+00 -0.00000000000E+00 -0.45593999997E+02  0.45594000000E+02  0.51100000000E-03 0.  1.
    9900012    2    1    2    0    0 -0.39269641938E+01 -0.22790297445E+02 -0.33441611995E+02  0.50528928217E+02  0.30000207809E+02 0.  0.
         12    1    1    2    0    0  0.39269641938E+01  0.22790297445E+02  0.33441611995E+02  0.40659071783E+02  0.00000000000E+00 0. -1.
         11    1    3    3    0    0 -0.73688210357E+00 -0.13204335226E+01  0.18313465750E+01  0.23749464122E+01  0.51100000000E-03 0. -1.
        -11    1    3    3    0    0  0.11149225272E+01  0.40599839706E+01  0.22644014137E+00  0.42163725502E+01  0.51100000000E-03 0.  1.
        -12    1    3    3    0    0 -0.43050046173E+01 -0.25529847893E+02 -0.35499398711E+02  0.43937609255E+02  0.00000000000E+00 0.  1.
</event>
<event>
 7    1  0.2838209E-011  0.5052886E+02  0.7816164E-02  0.1300439E+00
        -11   -1    0    0    0    0  0.00000000000E+00  0.00000000000E+00  0.45593999997E+02  0.45594000000E+02  0.51100000000E-03 0.  1.
         11   -1    0    0    0    0 -0.00000000000E+00 -0.00000000000E+00 -0.45593999997E+02  0.45594000000E+02  0.51100000000E-03 0. -1.
    9900012    2    1    2    0    0  0.12577048152E+02 -0.75661881906E+01  0.37917497325E+02  0.50528856534E+02  0.29999989921E+02 0.  0.
         12    1    1    2    0    0 -0.12577048152E+02  0.75661881906E+01 -0.37917497325E+02  0.40659143466E+02  0.00000000000E+00 0. -1.
         11    1    3    3    0    0 -0.10259625167E+01  0.25718150956E+00  0.18713124184E+02  0.18742992248E+02  0.51100000000E-03 0. -1.
        -11    1    3    3    0    0  0.12442022749E+02 -0.69562723908E+01  0.23370629272E+02  0.27374805360E+02  0.51100000000E-03 0.  1.
         12    1    3    3    0    0  0.11609879205E+01 -0.86709730929E+00 -0.41662561314E+01  0.44110589258E+01  0.00000000000E+00 0. -1.
</event>
<event>
 7    1  0.2838209E-011  0.5052886E+02  0.7816164E-02  0.1300439E+00
        -11   -1    0    0    0    0  0.00000000000E+00  0.00000000000E+00  0.45593999997E+02  0.45594000000E+02  0.51100000000E-03 0.  1.
         11   -1    0    0    0    0 -0.00000000000E+00 -0.00000000000E+00 -0.45593999997E+02  0.45594000000E+02  0.51100000000E-03 0. -1.
    9900012    2    1    2    0    0  0.23268405870E+02 -0.33156160590E+02  0.35235761949E+01  0.50528864668E+02  0.30000014644E+02 0.  0.
         12    1    1    2    0    0 -0.23268405870E+02  0.33156160590E+02 -0.35235761949E+01  0.40659135332E+02  0.00000000000E+00 0. -1.
         11    1    3    3    0    0  0.19494939092E+02 -0.10929235521E+02 -0.32056248484E+01  0.22578238864E+02  0.51100000000E-03 0. -1.
        -11    1    3    3    0    0  0.71812518018E+01 -0.49469322077E+01  0.54678374962E+01  0.10292704351E+02  0.51100000000E-03 0.  1.
         12    1    3    3    0    0 -0.34077850237E+01 -0.17279992861E+02  0.12613635471E+01  0.17657921453E+02  0.00000000000E+00 0. -1.
</event>
<event>
 7    1  0.2838209E-011  0.5052885E+02  0.7816164E-02  0.1300439E+00
        -11   -1    0    0    0    0  0.00000000000E+00  0.00000000000E+00  0.45593999997E+02  0.45594000000E+02  0.51100000000E-03 0.  1.
         11   -1    0    0    0    0 -0.00000000000E+00 -0.00000000000E+00 -0.45593999997E+02  0.45594000000E+02  0.51100000000E-03 0. -1.
    9900012    2    1    2    0    0  0.20529010273E+02  0.47687444777E+01  0.34770460150E+02  0.50528854833E+02  0.29999984750E+02 0.  0.
         12    1    1    2    0    0 -0.20529010273E+02 -0.47687444777E+01 -0.34770460150E+02  0.40659145167E+02  0.00000000000E+00 0. -1.
         11    1    3    3    0    0 -0.30381142293E+01  0.78885588507E+01  0.56126629291E+01  0.10146993852E+02  0.51100000000E-03 0. -1.
        -11    1    3    3    0    0  0.29696217595E+01 -0.56142143937E+01  0.11499223260E+02  0.13136597447E+02  0.51100000000E-03 0.  1.
         12    1    3    3    0    0  0.20597502743E+02  0.24944000207E+01  0.17658573961E+02  0.27245263534E+02  0.00000000000E+00 0. -1.
</event>
<event>
 7    1  0.2838209E-011  0.5052886E+02  0.7816164E-02  0.1300439E+00
        -11   -1    0    0    0    0  0.00000000000E+00  0.00000000000E+00  0.45593999997E+02  0.45594000000E+02  0.51100000000E-03 0. -1.
         11   -1    0    0    0    0 -0.00000000000E+00 -0.00000000000E+00 -0.45593999997E+02  0.45594000000E+02  0.51100000000E-03 0.  1.
    9900012    2    1    2    0    0 -0.11143325153E+02 -0.31012237430E+02 -0.23816656419E+02  0.50528859713E+02  0.29999999585E+02 0.  0.
         12    1    1    2    0    0  0.11143325153E+02  0.31012237430E+02  0.23816656419E+02  0.40659140287E+02  0.00000000000E+00 0. -1.
         11    1    3    3    0    0 -0.11031744565E+02 -0.12145963587E+02 -0.10841129945E+02  0.19666060061E+02  0.51100000000E-03 0.  1.
        -11    1    3    3    0    0  0.28685660957E+01 -0.19710585369E+01  0.49495368265E+01  0.60507568336E+01  0.51100000000E-03 0. -1.
         12    1    3    3    0    0 -0.29801466832E+01 -0.16895215306E+02 -0.17925063301E+02  0.24812042819E+02  0.00000000000E+00 0. -1.
</event>
<event>
 7    1  0.2838209E-011  0.5052887E+02  0.7816164E-02  0.1300439E+00
        -11   -1    0    0    0    0  0.00000000000E+00  0.00000000000E+00  0.45593999997E+02  0.45594000000E+02  0.51100000000E-03 0. -1.
         11   -1    0    0    0    0 -0.00000000000E+00 -0.00000000000E+00 -0.45593999997E+02  0.45594000000E+02  0.51100000000E-03 0.  1.
    9900012    2    1    2    0    0 -0.10165368695E+02 -0.18635421869E+02 -0.34677823213E+02  0.50528867056E+02  0.30000021904E+02 0.  0.
         12    1    1    2    0    0  0.10165368695E+02  0.18635421869E+02  0.34677823213E+02  0.40659132944E+02  0.00000000000E+00 0. -1.
         11    1    3    3    0    0  0.33993625378E+01  0.12777576959E+01 -0.38672207135E+01  0.53050661354E+01  0.51100000000E-03 0. -1.
        -11    1    3    3    0    0  0.60861275781E+01 -0.56648709495E+01 -0.46074747009E+01  0.95058158593E+01  0.51100000000E-03 0.  1.
        -12    1    3    3    0    0 -0.19650858811E+02 -0.14248308616E+02 -0.26203127799E+02  0.35717985061E+02  0.00000000000E+00 0.  1.
</event>
<event>
 7    1  0.2838209E-011  0.5052886E+02  0.7816164E-02  0.1300439E+00
        -11   -1    0    0    0    0  0.00000000000E+00  0.00000000000E+00  0.45593999997E+02  0.45594000000E+02  0.51100000000E-03 0. -1.
         11   -1    0    0    0    0 -0.00000000000E+00 -0.00000000000E+00 -0.45593999997E+02  0.45594000000E+02  0.51100000000E-03 0.  1.
    9900012    2    1    2    0    0  0.11815959161E+02  0.32771242712E+02 -0.20966500971E+02  0.50528863232E+02  0.30000010279E+02 0.  0.
         12    1    1    2    0    0 -0.11815959161E+02 -0.32771242712E+02  0.20966500971E+02  0.40659136768E+02  0.00000000000E+00 0. -1.
         11    1    3    3    0    0 -0.33710443559E+01  0.25459855044E+02 -0.15477232131E+02  0.29985210914E+02  0.51100000000E-03 0. -1.
        -11    1    3    3    0    0  0.39022423094E+00  0.19909214501E+01 -0.43239840983E+01  0.47762832740E+01  0.51100000000E-03 0.  1.
        -12    1    3    3    0    0  0.14796779286E+02  0.53204662183E+01 -0.11652847423E+01  0.15767369043E+02  0.00000000000E+00 0.  1.
</event>
<event>
 7    1  0.2838209E-011  0.5052886E+02  0.7816164E-02  0.1300439E+00
        -11   -1    0    0    0    0  0.00000000000E+00  0.00000000000E+00  0.45593999997E+02  0.45594000000E+02  0.51100000000E-03 0. -1.
         11   -1    0    0    0    0 -0.00000000000E+00 -0.00000000000E+00 -0.45593999997E+02  0.45594000000E+02  0.51100000000E-03 0.  1.
    9900012    2    1    2    0    0 -0.39560488021E+02 -0.93872393004E+01  0.11644933876E+00  0.50528855462E+02  0.29999986662E+02 0.  0.
         12    1    1    2    0    0  0.39560488021E+02  0.93872393004E+01 -0.11644933876E+00  0.40659144538E+02  0.00000000000E+00 0. -1.
         11    1    3    3    0    0 -0.18683722691E+02  0.42615590839E+01 -0.37000145285E+01  0.19517491826E+02  0.51100000000E-03 0. -1.
        -11    1    3    3    0    0 -0.22075199229E+02 -0.10768070576E+02 -0.17567604322E+01  0.24624215163E+02  0.51100000000E-03 0.  1.
        -12    1    3    3    0    0  0.11984338991E+01 -0.28807278088E+01  0.55732242994E+01  0.63871484725E+01  0.00000000000E+00 0.  1.
</event>
<event>
 7    1  0.2838209E-011  0.5052886E+02  0.7816164E-02  0.1300439E+00
        -11   -1    0    0    0    0  0.00000000000E+00  0.00000000000E+00  0.45593999997E+02  0.45594000000E+02  0.51100000000E-03 0.  1.
         11   -1    0    0    0    0 -0.00000000000E+00 -0.00000000000E+00 -0.45593999997E+02  0.45594000000E+02  0.51100000000E-03 0. -1.
    9900012    2    1    2    0    0  0.22996342741E+02 -0.31837178502E+02  0.10522718156E+02  0.50528864350E+02  0.30000013677E+02 0.  0.
         12    1    1    2    0    0 -0.22996342741E+02  0.31837178502E+02 -0.10522718156E+02  0.40659135650E+02  0.00000000000E+00 0. -1.
         11    1    3    3    0    0  0.12606101491E+02 -0.87420755151E+01  0.55307464459E+01  0.16307263278E+02  0.51100000000E-03 0. -1.
        -11    1    3    3    0    0  0.16593121804E+02 -0.15687274610E+02  0.78492916921E+01  0.24146089874E+02  0.51100000000E-03 0.  1.
         12    1    3    3    0    0 -0.62028805531E+01 -0.74078283770E+01 -0.28573199816E+01  0.10075511198E+02  0.00000000000E+00 0. -1.
</event>
<event>
 7    1  0.2838209E-011  0.5052883E+02  0.7816164E-02  0.1300439E+00
        -11   -1    0    0    0    0  0.00000000000E+00  0.00000000000E+00  0.45593999997E+02  0.45594000000E+02  0.51100000000E-03 0.  1.
         11   -1    0    0    0    0 -0.00000000000E+00 -0.00000000000E+00 -0.45593999997E+02  0.45594000000E+02  0.51100000000E-03 0. -1.
    9900012    2    1    2    0    0 -0.27606620511E+01  0.11680801748E+02  0.38847210919E+02  0.50528829071E+02  0.29999906445E+02 0.  0.
         12    1    1    2    0    0  0.27606620511E+01 -0.11680801748E+02 -0.38847210919E+02  0.40659170929E+02  0.00000000000E+00 0. -1.
         11    1    3    3    0    0 -0.15965397271E+01 -0.54498212132E+01  0.70857299166E+01  0.90805869341E+01  0.51100000000E-03 0. -1.
        -11    1    3    3    0    0 -0.20374791657E+01 -0.21457329429E+01  0.16726487072E+02  0.16986196197E+02  0.51100000000E-03 0.  1.
        -12    1    3    3    0    0  0.87335684167E+00  0.19276355904E+02  0.15034993930E+02  0.24462045940E+02  0.00000000000E+00 0.  1.
</event>
<event>
 7    1  0.2838209E-011  0.5052886E+02  0.7816164E-02  0.1300439E+00
        -11   -1    0    0    0    0  0.00000000000E+00  0.00000000000E+00  0.45593999997E+02  0.45594000000E+02  0.51100000000E-03 0. -1.
         11   -1    0    0    0    0 -0.00000000000E+00 -0.00000000000E+00 -0.45593999997E+02  0.45594000000E+02  0.51100000000E-03 0.  1.
    9900012    2    1    2    0    0 -0.62932064565E+01 -0.13332577881E+02 -0.37892002729E+02  0.50528856487E+02  0.29999989777E+02 0.  0.
         12    1    1    2    0    0  0.62932064565E+01  0.13332577881E+02  0.37892002729E+02  0.40659143513E+02  0.00000000000E+00 0. -1.
         11    1    3    3    0    0 -0.49099409285E+01 -0.41312546846E+01 -0.49944708636E+00  0.64361660049E+01  0.51100000000E-03 0. -1.
        -11    1    3    3    0    0 -0.10616184403E+02 -0.64115362865E+01 -0.13527437473E+02  0.18352186074E+02  0.51100000000E-03 0.  1.
         12    1    3    3    0    0  0.92329188751E+01 -0.27897869098E+01 -0.23865118169E+02  0.25740504408E+02  0.00000000000E+00 0. -1.
</event>
<event>
 7    1  0.2838209E-011  0.5052887E+02  0.7816164E-02  0.1300439E+00
        -11   -1    0    0    0    0  0.00000000000E+00  0.00000000000E+00  0.45593999997E+02  0.45594000000E+02  0.51100000000E-03 0.  1.
         11   -1    0    0    0    0 -0.00000000000E+00 -0.00000000000E+00 -0.45593999997E+02  0.45594000000E+02  0.51100000000E-03 0. -1.
    9900012    2    1    2    0    0 -0.62388912327E+01  0.48741758071E+01  0.39880867560E+02  0.50528868788E+02  0.30000027167E+02 0.  0.
         12    1    1    2    0    0  0.62388912327E+01 -0.48741758071E+01 -0.39880867560E+02  0.40659131212E+02  0.00000000000E+00 0. -1.
         11    1    3    3    0    0 -0.49476467004E+01  0.10730441538E+02  0.21333205975E+02  0.24387030588E+02  0.51100000000E-03 0. -1.
        -11    1    3    3    0    0 -0.14344421956E+01  0.34166230664E+01  0.16140691684E+02  0.16560581689E+02  0.51100000000E-03 0.  1.
         12    1    3    3    0    0  0.14319766320E+00 -0.92728887971E+01  0.24069699009E+01  0.95812565104E+01  0.00000000000E+00 0. -1.
</event>
<event>
 7    1  0.2838209E-011  0.5052886E+02  0.7816164E-02  0.1300439E+00
        -11   -1    0    0    0    0  0.00000000000E+00  0.00000000000E+00  0.45593999997E+02  0.45594000000E+02  0.51100000000E-03 0.  1.
         11   -1    0    0    0    0 -0.00000000000E+00 -0.00000000000E+00 -0.45593999997E+02  0.45594000000E+02  0.51100000000E-03 0. -1.
    9900012    2    1    2    0    0  0.23338518544E+02  0.31015380111E+02  0.12104778617E+02  0.50528856912E+02  0.29999991071E+02 0.  0.
         12    1    1    2    0    0 -0.23338518544E+02 -0.31015380111E+02 -0.12104778617E+02  0.40659143088E+02  0.00000000000E+00 0. -1.
         11    1    3    3    0    0  0.23328757882E+01  0.11773669737E+02 -0.69111318384E+01  0.13850102963E+02  0.51100000000E-03 0. -1.
        -11    1    3    3    0    0  0.50594523602E+01  0.10731129211E+02  0.23533472248E+01  0.12095182336E+02  0.51100000000E-03 0.  1.
         12    1    3    3    0    0  0.15946190395E+02  0.85105811629E+01  0.16662563231E+02  0.24583571614E+02  0.00000000000E+00 0. -1.
</event>
<event>
 7    1  0.2838209E-011  0.5052888E+02  0.7816164E-02  0.1300439E+00
        -11   -1    0    0    0    0  0.00000000000E+00  0.00000000000E+00  0.45593999997E+02  0.45594000000E+02  0.51100000000E-03 0.  1.
         11   -1    0    0    0    0 -0.00000000000E+00 -0.00000000000E+00 -0.45593999997E+02  0.45594000000E+02  0.51100000000E-03 0. -1.
    9900012    2    1    2    0    0  0.23325081128E+02  0.22297240548E+02  0.24737370805E+02  0.50528882203E+02  0.30000067945E+02 0.  0.
         12    1    1    2    0    0 -0.23325081128E+02 -0.22297240548E+02 -0.24737370805E+02  0.40659117797E+02  0.00000000000E+00 0. -1.
         11    1    3    3    0    0  0.82409385464E+01  0.12882962331E+02  0.37382740828E+01  0.15743521840E+02  0.51100000000E-03 0. -1.
        -11    1    3    3    0    0  0.88751327352E+01  0.16117365486E+02  0.12037907148E+02  0.21987465976E+02  0.51100000000E-03 0.  1.
        -12    1    3    3    0    0  0.62090098463E+01 -0.67030872680E+01  0.89611895737E+01  0.12797894388E+02  0.00000000000E+00 0.  1.
</event>
<event>
 7    1  0.2838209E-011  0.5052885E+02  0.7816164E-02  0.1300439E+00
        -11   -1    0    0    0    0  0.00000000000E+00  0.00000000000E+00  0.45593999997E+02  0.45594000000E+02  0.51100000000E-03 0.  1.
         11   -1    0    0    0    0 -0.00000000000E+00 -0.00000000000E+00 -0.45593999997E+02  0.45594000000E+02  0.51100000000E-03 0. -1.
    9900012    2    1    2    0    0 -0.33576483994E+02  0.12427434967E+02  0.19270322595E+02  0.50528846662E+02  0.29999959914E+02 0.  0.
         12    1    1    2    0    0  0.33576483994E+02 -0.12427434967E+02 -0.19270322595E+02  0.40659153338E+02  0.00000000000E+00 0. -1.
         11    1    3    3    0    0 -0.13529362103E+02  0.32385625650E+01  0.11076051804E+02  0.17782318472E+02  0.51100000000E-03 0. -1.
        -11    1    3    3    0    0 -0.89658715597E+01  0.15894259772E+01  0.15104624023E+02  0.17636972385E+02  0.51100000000E-03 0.  1.
         12    1    3    3    0    0 -0.11081250331E+02  0.75994464250E+01 -0.69103532320E+01  0.15109555806E+02  0.00000000000E+00 0. -1.
</event>
<event>
 7    1  0.2838209E-011  0.5052884E+02  0.7816164E-02  0.1300439E+00
        -11   -1    0    0    0    0  0.00000000000E+00  0.00000000000E+00  0.45593999997E+02  0.45594000000E+02  0.51100000000E-03 0.  1.
         11   -1    0    0    0    0 -0.00000000000E+00 -0.00000000000E+00 -0.45593999997E+02  0.45594000000E+02  0.51100000000E-03 0. -1.
    9900012    2    1    2    0    0  0.31354289519E+02  0.25041843550E+02  0.65560755932E+01  0.50528837112E+02  0.29999930884E+02 0.  0.
         12    1    1    2    0    0 -0.31354289519E+02 -0.25041843550E+02 -0.65560755932E+01  0.40659162888E+02  0.00000000000E+00 0. -1.
         11    1    3    3    0    0  0.21191792088E+00 -0.46376906161E+01  0.34339432668E+01  0.57745173025E+01  0.51100000000E-03 0. -1.
        -11    1    3    3    0    0  0.10881435539E+01  0.26940032538E+01  0.32542832392E+01  0.43625760265E+01  0.51100000000E-03 0.  1.
        -12    1    3    3    0    0  0.30054228044E+02  0.26985530912E+02 -0.13215091274E+00  0.40391743783E+02  0.00000000000E+00 0.  1.
</event>
<event>
 7    1  0.2838209E-011  0.5052887E+02  0.7816164E-02  0.1300439E+00
        -11   -1    0    0    0    0  0.00000000000E+00  0.00000000000E+00  0.45593999997E+02  0.45594000000E+02  0.51100000000E-03 0.  1.
         11   -1    0    0    0    0 -0.00000000000E+00 -0.00000000000E+00 -0.45593999997E+02  0.45594000000E+02  0.51100000000E-03 0. -1.
    9900012    2    1    2    0    0 -0.14514166013E+02  0.30446084051E+02  0.22705510529E+02  0.50528865018E+02  0.30000015708E+02 0.  0.
         12    1    1    2    0    0  0.14514166013E+02 -0.30446084051E+02 -0.22705510529E+02  0.40659134982E+02  0.00000000000E+00 0. -1.
         11    1    3    3    0    0 -0.79464419641E+01 -0.76507029236E-01  0.19113512639E+01  0.81734360663E+01  0.51100000000E-03 0. -1.
        -11    1    3    3    0    0 -0.15556732862E+01 -0.15657674990E+01  0.65128813731E+01  0.68767267850E+01  0.51100000000E-03 0.  1.
        -12    1    3    3    0    0 -0.50120507627E+01  0.32088358580E+02  0.14281277892E+02  0.35478702166E+02  0.00000000000E+00 0.  1.
</event>
<event>
 7    1  0.2838209E-011  0.5052886E+02  0.7816164E-02  0.1300439E+00
        -11   -1    0    0    0    0  0.00000000000E+00  0.00000000000E+00  0.45593999997E+02  0.45594000000E+02  0.51100000000E-03 0.  1.
         11   -1    0    0    0    0 -0.00000000000E+00 -0.00000000000E+00 -0.45593999997E+02  0.45594000000E+02  0.51100000000E-03 0. -1.
    9900012    2    1    2    0    0 -0.19273784021E+01 -0.18965698714E+02  0.35913133921E+02  0.50528859536E+02  0.29999999046E+02 0.  0.
         12    1    1    2    0    0  0.19273784021E+01  0.18965698714E+02 -0.35913133921E+02  0.40659140464E+02  0.00000000000E+00 0. -1.
         11    1    3    3    0    0  0.81517611355E+01 -0.20280691959E+01  0.67599061443E+00  0.84274099133E+01  0.51100000000E-03 0. -1.
        -11    1    3    3    0    0 -0.78196356945E+00  0.17187779623E+01  0.13674975506E+01  0.23314618846E+01  0.51100000000E-03 0.  1.
         12    1    3    3    0    0 -0.92971759682E+01 -0.18656407480E+02  0.33869645756E+02  0.39769987738E+02  0.00000000000E+00 0. -1.
</event>
<event>
 7    1  0.2838209E-011  0.5052887E+02  0.7816164E-02  0.1300439E+00
        -11   -1    0    0    0    0  0.00000000000E+00  0.00000000000E+00  0.45593999997E+02  0.45594000000E+02  0.51100000000E-03 0.  1.
         11   -1    0    0    0    0 -0.00000000000E+00 -0.00000000000E+00 -0.45593999997E+02  0.45594000000E+02  0.51100000000E-03 0. -1.
    9900012    2    1    2    0    0  0.70977336123E+01 -0.34873380748E+02  0.19663015601E+02  0.50528871999E+02  0.30000036929E+02 0.  0.
         12    1    1    2    0    0 -0.70977336123E+01  0.34873380748E+02 -0.19663015601E+02  0.40659128001E+02  0.00000000000E+00 0. -1.
         11    1    3    3    0    0  0.25610885137E+01 -0.16795755371E+02  0.25973094617E+01  0.17187279877E+02  0.51100000000E-03 0. -1.
        -11    1    3    3    0    0  0.11872706499E+02 -0.15939499689E+02  0.78484709783E+01  0.21368839625E+02  0.51100000000E-03 0.  1.
         12    1    3    3    0    0 -0.73360614008E+01 -0.21381256874E+01  0.92172351614E+01  0.11972752497E+02  0.00000000000E+00 0. -1.
</event>
<event>
 7    1  0.2838209E-011  0.5052886E+02  0.7816164E-02  0.1300439E+00
        -11   -1    0    0    0    0  0.00000000000E+00  0.00000000000E+00  0.45593999997E+02  0.45594000000E+02  0.51100000000E-03 0.  1.
         11   -1    0    0    0    0 -0.00000000000E+00 -0.00000000000E+00 -0.45593999997E+02  0.45594000000E+02  0.51100000000E-03 0. -1.
    9900012    2    1    2    0    0 -0.30695915988E+02  0.60683700279E+01  0.25963458433E+02  0.50528861458E+02  0.30000004888E+02 0.  0.
         12    1    1    2    0    0  0.30695915988E+02 -0.60683700279E+01 -0.25963458433E+02  0.40659138542E+02  0.00000000000E+00 0. -1.
         11    1    3    3    0    0 -0.12201613215E+02 -0.81536489820E+01  0.10442484815E+02  0.18011297736E+02  0.51100000000E-03 0. -1.
        -11    1    3    3    0    0 -0.92213779724E+01  0.58084934415E+01  0.16699716855E+02  0.19941237451E+02  0.51100000000E-03 0.  1.
         12    1    3    3    0    0 -0.92729248011E+01  0.84135255683E+01 -0.11787432374E+01  0.12576326271E+02  0.00000000000E+00 0. -1.
</event>
<event>
 7    1  0.2838209E-011  0.5052886E+02  0.7816164E-02  0.1300439E+00
        -11   -1    0    0    0    0  0.00000000000E+00  0.00000000000E+00  0.45593999997E+02  0.45594000000E+02  0.51100000000E-03 0.  1.
         11   -1    0    0    0    0 -0.00000000000E+00 -0.00000000000E+00 -0.45593999997E+02  0.45594000000E+02  0.51100000000E-03 0. -1.
    9900012    2    1    2    0    0  0.19494083788E+02 -0.21687381903E+02  0.28333786600E+02  0.50528864500E+02  0.30000014134E+02 0.  0.
         12    1    1    2    0    0 -0.19494083788E+02  0.21687381903E+02 -0.28333786600E+02  0.40659135500E+02  0.00000000000E+00 0. -1.
         11    1    3    3    0    0 -0.26985104119E+01 -0.22857351103E+01  0.84339922090E+01  0.91454233516E+01  0.51100000000E-03 0. -1.
        -11    1    3    3    0    0  0.99801094213E+00 -0.85821988167E+01 -0.21913737497E+01  0.89136009302E+01  0.51100000000E-03 0.  1.
        -12    1    3    3    0    0  0.21194583257E+02 -0.10819447976E+02  0.22091168141E+02  0.32469840218E+02  0.00000000000E+00 0.  1.
</event>
<event>
 7    1  0.2838209E-011  0.5052886E+02  0.7816164E-02  0.1300439E+00
        -11   -1    0    0    0    0  0.00000000000E+00  0.00000000000E+00  0.45593999997E+02  0.45594000000E+02  0.51100000000E-03 0. -1.
         11   -1    0    0    0    0 -0.00000000000E+00 -0.00000000000E+00 -0.45593999997E+02  0.45594000000E+02  0.51100000000E-03 0.  1.
    9900012    2    1    2    0    0 -0.16776787213E+02 -0.11482517879E+02 -0.35211600666E+02  0.50528860468E+02  0.30000001879E+02 0.  0.
         12    1    1    2    0    0  0.16776787213E+02  0.11482517879E+02  0.35211600666E+02  0.40659139532E+02  0.00000000000E+00 0. -1.
         11    1    3    3    0    0 -0.61510473764E+01  0.48682502726E+01 -0.65362128220E+01  0.10210647524E+02  0.51100000000E-03 0.  1.
        -11    1    3    3    0    0 -0.68523314845E+01  0.34162653877E+01 -0.45698977798E+01  0.89167977409E+01  0.51100000000E-03 0. -1.
         12    1    3    3    0    0 -0.37734083521E+01 -0.19767033539E+02 -0.24105490064E+02  0.31401415203E+02  0.00000000000E+00 0. -1.
</event>
<event>
 7    1  0.2838209E-011  0.5052898E+02  0.7816164E-02  0.1300438E+00
        -11   -1    0    0    0    0  0.00000000000E+00  0.00000000000E+00  0.45593999997E+02  0.45594000000E+02  0.51100000000E-03 0. -1.
         11   -1    0    0    0    0 -0.00000000000E+00 -0.00000000000E+00 -0.45593999997E+02  0.45594000000E+02  0.51100000000E-03 0.  1.
    9900012    2    1    2    0    0 -0.15463753824E+02  0.36677735206E+02 -0.82929007407E+01  0.50528977080E+02  0.30000356329E+02 0.  0.
         12    1    1    2    0    0  0.15463753824E+02 -0.36677735206E+02  0.82929007407E+01  0.40659022920E+02  0.00000000000E+00 0. -1.
         11    1    3    3    0    0 -0.88636052516E+00  0.10978347591E+02  0.60107877801E+01  0.12547482648E+02  0.51100000000E-03 0. -1.
        -11    1    3    3    0    0 -0.49619279762E+01  0.99913343017E+01  0.41567890184E+01  0.11904889146E+02  0.51100000000E-03 0.  1.
        -12    1    3    3    0    0 -0.96154653223E+01  0.15708053313E+02 -0.18460477539E+02  0.26076605286E+02  0.00000000000E+00 0.  1.
</event>
<event>
 7    1  0.2838209E-011  0.5052886E+02  0.7816164E-02  0.1300439E+00
        -11   -1    0    0    0    0  0.00000000000E+00  0.00000000000E+00  0.45593999997E+02  0.45594000000E+02  0.51100000000E-03 0. -1.
         11   -1    0    0    0    0 -0.00000000000E+00 -0.00000000000E+00 -0.45593999997E+02  0.45594000000E+02  0.51100000000E-03 0.  1.
    9900012    2    1    2    0    0  0.66195312726E+01 -0.53816433993E+01 -0.39754063341E+02  0.50528857952E+02  0.29999994232E+02 0.  0.
         12    1    1    2    0    0 -0.66195312726E+01  0.53816433993E+01  0.39754063341E+02  0.40659142048E+02  0.00000000000E+00 0. -1.
         11    1    3    3    0    0 -0.46291207285E+01  0.39713201732E+01 -0.20709198356E+02  0.21588678502E+02  0.51100000000E-03 0. -1.
        -11    1    3    3    0    0  0.12213222660E+01 -0.16901796565E+01 -0.15763074043E+02  0.15900403734E+02  0.51100000000E-03 0.  1.
         12    1    3    3    0    0  0.10027329735E+02 -0.76627839160E+01 -0.32817909415E+01  0.13039775717E+02  0.00000000000E+00 0. -1.
</event>
<event>
 7    1  0.2838209E-011  0.5052886E+02  0.7816164E-02  0.1300439E+00
        -11   -1    0    0    0    0  0.00000000000E+00  0.00000000000E+00  0.45593999997E+02  0.45594000000E+02  0.51100000000E-03 0.  1.
         11   -1    0    0    0    0 -0.00000000000E+00 -0.00000000000E+00 -0.45593999997E+02  0.45594000000E+02  0.51100000000E-03 0. -1.
    9900012    2    1    2    0    0 -0.33750093639E+02  0.21126465168E+01  0.22575068520E+02  0.50528858167E+02  0.29999994884E+02 0.  0.
         12    1    1    2    0    0  0.33750093639E+02 -0.21126465168E+01 -0.22575068520E+02  0.40659141833E+02  0.00000000000E+00 0. -1.
         11    1    3    3    0    0 -0.13749796631E+02 -0.51001041506E+01 -0.16912788960E+01  0.14762397987E+02  0.51100000000E-03 0. -1.
        -11    1    3    3    0    0 -0.11015812887E+02  0.71002490688E+01  0.41704941366E+01  0.13753352028E+02  0.51100000000E-03 0.  1.
        -12    1    3    3    0    0 -0.89844841206E+01  0.11250159855E+00  0.20095853279E+02  0.22013108153E+02  0.00000000000E+00 0.  1.
</event>
<event>
 7    1  0.2838209E-011  0.5052886E+02  0.7816164E-02  0.1300439E+00
        -11   -1    0    0    0    0  0.00000000000E+00  0.00000000000E+00  0.45593999997E+02  0.45594000000E+02  0.51100000000E-03 0. -1.
         11   -1    0    0    0    0 -0.00000000000E+00 -0.00000000000E+00 -0.45593999997E+02  0.45594000000E+02  0.51100000000E-03 0.  1.
    9900012    2    1    2    0    0 -0.93439387408E-01 -0.38277051431E+02 -0.13712182269E+02  0.50528864007E+02  0.30000012635E+02 0.  0.
         12    1    1    2    0    0  0.93439387408E-01  0.38277051431E+02  0.13712182269E+02  0.40659135993E+02  0.00000000000E+00 0. -1.
         11    1    3    3    0    0  0.43775777069E+01 -0.17454261023E+02 -0.40798743859E+01  0.18451552502E+02  0.51100000000E-03 0. -1.
        -11    1    3    3    0    0  0.24727997420E+01 -0.16317485096E+02 -0.14925798650E+02  0.22252067859E+02  0.51100000000E-03 0.  1.
         12    1    3    3    0    0 -0.69438168363E+01 -0.45053053110E+01  0.52934907669E+01  0.98252436459E+01  0.00000000000E+00 0. -1.
</event>
<event>
 7    1  0.2838209E-011  0.5052886E+02  0.7816164E-02  0.1300439E+00
        -11   -1    0    0    0    0  0.00000000000E+00  0.00000000000E+00  0.45593999997E+02  0.45594000000E+02  0.51100000000E-03 0.  1.
         11   -1    0    0    0    0 -0.00000000000E+00 -0.00000000000E+00 -0.45593999997E+02  0.45594000000E+02  0.51100000000E-03 0. -1.
    9900012    2    1    2    0    0 -0.25437241322E+02 -0.31679045397E+02  0.15970631607E+01  0.50528858665E+02  0.29999996399E+02 0.  0.
         12    1    1    2    0    0  0.25437241322E+02  0.31679045397E+02 -0.15970631607E+01  0.40659141335E+02  0.00000000000E+00 0. -1.
         11    1    3    3    0    0 -0.14107265656E+02 -0.68175462483E+01  0.13338940231E+01  0.15724921452E+02  0.51100000000E-03 0. -1.
        -11    1    3    3    0    0 -0.16728243236E+02 -0.20612926858E+02  0.42142616471E+01  0.26879115999E+02  0.51100000000E-03 0.  1.
         12    1    3    3    0    0  0.53982675697E+01 -0.42485722907E+01 -0.39510925096E+01  0.79248212145E+01  0.00000000000E+00 0. -1.
</event>
<event>
 7    1  0.2838209E-011  0.5052886E+02  0.7816164E-02  0.1300439E+00
        -11   -1    0    0    0    0  0.00000000000E+00  0.00000000000E+00  0.45593999997E+02  0.45594000000E+02  0.51100000000E-03 0.  1.
         11   -1    0    0    0    0 -0.00000000000E+00 -0.00000000000E+00 -0.45593999997E+02  0.45594000000E+02  0.51100000000E-03 0. -1.
    9900012    2    1    2    0    0 -0.20139700503E+02  0.31389072332E+02  0.16195201206E+02  0.50528856621E+02  0.29999990185E+02 0.  0.
         12    1    1    2    0    0  0.20139700503E+02 -0.31389072332E+02 -0.16195201206E+02  0.40659143379E+02  0.00000000000E+00 0. -1.
         11    1    3    3    0    0 -0.12950175986E+02  0.28729056318E+02  0.13754584544E+02  0.34383925477E+02  0.51100000000E-03 0. -1.
        -11    1    3    3    0    0 -0.79280684190E+01  0.73245952565E+01  0.34184240439E+01  0.11322084072E+02  0.51100000000E-03 0.  1.
         12    1    3    3    0    0  0.73854390202E+00 -0.46645792424E+01 -0.97780738114E+00  0.48228470719E+01  0.00000000000E+00 0. -1.
</event>
<event>
 7    1  0.2838209E-011  0.5052886E+02  0.7816164E-02  0.1300439E+00
        -11   -1    0    0    0    0  0.00000000000E+00  0.00000000000E+00  0.45593999997E+02  0.45594000000E+02  0.51100000000E-03 0. -1.
         11   -1    0    0    0    0 -0.00000000000E+00 -0.00000000000E+00 -0.45593999997E+02  0.45594000000E+02  0.51100000000E-03 0.  1.
    9900012    2    1    2    0    0 -0.17985069554E+02 -0.32019605823E+02 -0.17448427848E+02  0.50528861811E+02  0.30000005960E+02 0.  0.
         12    1    1    2    0    0  0.17985069554E+02  0.32019605823E+02  0.17448427848E+02  0.40659138189E+02  0.00000000000E+00 0. -1.
         11    1    3    3    0    0 -0.12055881355E+01 -0.59689043054E+01  0.11487478720E+01  0.61968446240E+01  0.51100000000E-03 0. -1.
        -11    1    3    3    0    0  0.29813260723E+01  0.16758006991E+01  0.25370252443E+01  0.42582990129E+01  0.51100000000E-03 0.  1.
        -12    1    3    3    0    0 -0.19760807491E+02 -0.27726502216E+02 -0.21134200965E+02  0.40073718174E+02  0.00000000000E+00 0.  1.
</event>
<event>
 7    1  0.2838209E-011  0.5052886E+02  0.7816164E-02  0.1300439E+00
        -11   -1    0    0    0    0  0.00000000000E+00  0.00000000000E+00  0.45593999997E+02  0.45594000000E+02  0.51100000000E-03 0.  1.
         11   -1    0    0    0    0 -0.00000000000E+00 -0.00000000000E+00 -0.45593999997E+02  0.45594000000E+02  0.51100000000E-03 0. -1.
    9900012    2    1    2    0    0 -0.90729785266E+01 -0.36938433670E+02  0.14366590498E+02  0.50528859036E+02  0.29999997526E+02 0.  0.
         12    1    1    2    0    0  0.90729785266E+01  0.36938433670E+02 -0.14366590498E+02  0.40659140964E+02  0.00000000000E+00 0. -1.
         11    1    3    3    0    0 -0.68447934445E+01 -0.13084674342E+02  0.16085023692E+01  0.14854197389E+02  0.51100000000E-03 0.  1.
        -11    1    3    3    0    0 -0.22319924196E+01 -0.19811633601E+02 -0.23132207528E+01  0.20070715150E+02  0.51100000000E-03 0. -1.
        -12    1    3    3    0    0  0.38073374711E-02 -0.40421257276E+01  0.15071308882E+02  0.15603946498E+02  0.00000000000E+00 0.  1.
</event>
<event>
 7    1  0.2838209E-011  0.5052886E+02  0.7816164E-02  0.1300439E+00
        -11   -1    0    0    0    0  0.00000000000E+00  0.00000000000E+00  0.45593999997E+02  0.45594000000E+02  0.51100000000E-03 0. -1.
         11   -1    0    0    0    0 -0.00000000000E+00 -0.00000000000E+00 -0.45593999997E+02  0.45594000000E+02  0.51100000000E-03 0.  1.
    9900012    2    1    2    0    0  0.12564538299E+02  0.19030118042E+02 -0.33662327361E+02  0.50528864510E+02  0.30000014166E+02 0.  0.
         12    1    1    2    0    0 -0.12564538299E+02 -0.19030118042E+02  0.33662327361E+02  0.40659135490E+02  0.00000000000E+00 0. -1.
         11    1    3    3    0    0 -0.17760018399E+00  0.11559885818E+02 -0.34405218564E+01  0.12062325351E+02  0.51100000000E-03 0. -1.
        -11    1    3    3    0    0 -0.39761167659E+01  0.35932957429E+00 -0.12360585997E+02  0.12989330573E+02  0.51100000000E-03 0.  1.
        -12    1    3    3    0    0  0.16718255249E+02  0.71109026495E+01 -0.17861219508E+02  0.25477208587E+02  0.00000000000E+00 0.  1.
</event>
<event>
 7    1  0.2838209E-011  0.5052887E+02  0.7816164E-02  0.1300439E+00
        -11   -1    0    0    0    0  0.00000000000E+00  0.00000000000E+00  0.45593999997E+02  0.45594000000E+02  0.51100000000E-03 0. -1.
         11   -1    0    0    0    0 -0.00000000000E+00 -0.00000000000E+00 -0.45593999997E+02  0.45594000000E+02  0.51100000000E-03 0.  1.
    9900012    2    1    2    0    0  0.75286933129E+01 -0.39551590080E+02  0.56705612251E+01  0.50528871069E+02  0.30000034100E+02 0.  0.
         12    1    1    2    0    0 -0.75286933129E+01  0.39551590080E+02 -0.56705612251E+01  0.40659128931E+02  0.00000000000E+00 0. -1.
         11    1    3    3    0    0  0.16496696266E+02 -0.15100727866E+02  0.27424686775E+01  0.22532068358E+02  0.51100000000E-03 0. -1.
        -11    1    3    3    0    0 -0.12333883030E-01 -0.55745303771E+01 -0.29304986094E+01  0.62978856302E+01  0.51100000000E-03 0.  1.
         12    1    3    3    0    0 -0.89556690703E+01 -0.18876331837E+02  0.58585911570E+01  0.21698917081E+02  0.00000000000E+00 0. -1.
</event>
<event>
 7    1  0.2838209E-011  0.5052886E+02  0.7816164E-02  0.1300439E+00
        -11   -1    0    0    0    0  0.00000000000E+00  0.00000000000E+00  0.45593999997E+02  0.45594000000E+02  0.51100000000E-03 0. -1.
         11   -1    0    0    0    0 -0.00000000000E+00 -0.00000000000E+00 -0.45593999997E+02  0.45594000000E+02  0.51100000000E-03 0.  1.
    9900012    2    1    2    0    0 -0.13698902314E+02  0.16906688489E+02 -0.34346319910E+02  0.50528859187E+02  0.29999997985E+02 0.  0.
         12    1    1    2    0    0  0.13698902314E+02 -0.16906688489E+02  0.34346319910E+02  0.40659140813E+02  0.00000000000E+00 0. -1.
         11    1    3    3    0    0 -0.57792899548E+01  0.41808202960E+01 -0.21916315522E+02  0.23047870553E+02  0.51100000000E-03 0. -1.
        -11    1    3    3    0    0 -0.24210542595E+01  0.32460058950E+01 -0.15564325933E+02  0.16082484261E+02  0.51100000000E-03 0.  1.
         12    1    3    3    0    0 -0.54985580997E+01  0.94798622984E+01  0.31343215453E+01  0.11398504372E+02  0.00000000000E+00 0. -1.
</event>
<event>
 7    1  0.2838209E-011  0.5052887E+02  0.7816164E-02  0.1300439E+00
        -11   -1    0    0    0    0  0.00000000000E+00  0.00000000000E+00  0.45593999997E+02  0.45594000000E+02  0.51100000000E-03 0. -1.
         11   -1    0    0    0    0 -0.00000000000E+00 -0.00000000000E+00 -0.45593999997E+02  0.45594000000E+02  0.51100000000E-03 0.  1.
    9900012    2    1    2    0    0 -0.35363540606E+02  0.17260517175E+02  0.10230327918E+02  0.50528867365E+02  0.30000022841E+02 0.  0.
         12    1    1    2    0    0  0.35363540606E+02 -0.17260517175E+02 -0.10230327918E+02  0.40659132635E+02  0.00000000000E+00 0. -1.
         11    1    3    3    0    0 -0.10577575808E+02 -0.23648906687E+01  0.93913764598E+01  0.14341400556E+02  0.51100000000E-03 0. -1.
        -11    1    3    3    0    0 -0.14299191298E+02  0.59278217560E+01  0.81002615600E+01  0.17470551798E+02  0.51100000000E-03 0.  1.
        -12    1    3    3    0    0 -0.10486773501E+02  0.13697586088E+02 -0.72613101017E+01  0.18716915010E+02  0.00000000000E+00 0.  1.
</event>
<event>
 7    1  0.2838209E-011  0.5052885E+02  0.7816164E-02  0.1300439E+00
        -11   -1    0    0    0    0  0.00000000000E+00  0.00000000000E+00  0.45593999997E+02  0.45594000000E+02  0.51100000000E-03 0.  1.
         11   -1    0    0    0    0 -0.00000000000E+00 -0.00000000000E+00 -0.45593999997E+02  0.45594000000E+02  0.51100000000E-03 0. -1.
    9900012    2    1    2    0    0  0.12685719147E+02 -0.19308096275E+02  0.33457977285E+02  0.50528852247E+02  0.29999976889E+02 0.  0.
         12    1    1    2    0    0 -0.12685719147E+02  0.19308096275E+02 -0.33457977285E+02  0.40659147753E+02  0.00000000000E+00 0. -1.
         11    1    3    3    0    0  0.23272174506E+01  0.82652803678E+00  0.19812360387E+01  0.31661311029E+01  0.51100000000E-03 0. -1.
        -11    1    3    3    0    0  0.13865509175E+02 -0.13143702521E+02  0.34121762627E+02  0.39106315931E+02  0.51100000000E-03 0.  1.
         12    1    3    3    0    0 -0.35070074790E+01 -0.69909217904E+01 -0.26450213809E+01  0.82564052131E+01  0.00000000000E+00 0. -1.
</event>
<event>
 7    1  0.2838209E-011  0.5052886E+02  0.7816164E-02  0.1300439E+00
        -11   -1    0    0    0    0  0.00000000000E+00  0.00000000000E+00  0.45593999997E+02  0.45594000000E+02  0.51100000000E-03 0.  1.
         11   -1    0    0    0    0 -0.00000000000E+00 -0.00000000000E+00 -0.45593999997E+02  0.45594000000E+02  0.51100000000E-03 0. -1.
    9900012    2    1    2    0    0  0.30429869100E+02 -0.18798850114E+02 -0.19333701494E+02  0.50528859422E+02  0.29999998699E+02 0.  0.
         12    1    1    2    0    0 -0.30429869100E+02  0.18798850114E+02  0.19333701494E+02  0.40659140578E+02  0.00000000000E+00 0. -1.
         11    1    3    3    0    0  0.43432601409E+01 -0.14912570091E+01 -0.24788186711E+01  0.52184574717E+01  0.51100000000E-03 0. -1.
        -11    1    3    3    0    0  0.30875801504E+02 -0.11550035705E+02 -0.18268741587E+02  0.37689061580E+02  0.51100000000E-03 0.  1.
         12    1    3    3    0    0 -0.47891925446E+01 -0.57575573997E+01  0.14138587642E+01  0.76213403707E+01  0.00000000000E+00 0. -1.
</event>
<event>
 7    1  0.2838209E-011  0.5052886E+02  0.7816164E-02  0.1300439E+00
        -11   -1    0    0    0    0  0.00000000000E+00  0.00000000000E+00  0.45593999997E+02  0.45594000000E+02  0.51100000000E-03 0.  1.
         11   -1    0    0    0    0 -0.00000000000E+00 -0.00000000000E+00 -0.45593999997E+02  0.45594000000E+02  0.51100000000E-03 0. -1.
    9900012    2    1    2    0    0  0.13391363577E+02 -0.14712915034E+02  0.35459368489E+02  0.50528864484E+02  0.30000014086E+02 0.  0.
         12    1    1    2    0    0 -0.13391363577E+02  0.14712915034E+02 -0.35459368489E+02  0.40659135516E+02  0.00000000000E+00 0. -1.
         11    1    3    3    0    0  0.32431720364E+01  0.33520611697E+01  0.15866591567E+01  0.49266587545E+01  0.51100000000E-03 0. -1.
        -11    1    3    3    0    0  0.12111237541E+02  0.24819929938E+00  0.13383817387E+02  0.18051876517E+02  0.51100000000E-03 0.  1.
         12    1    3    3    0    0 -0.19630460006E+01 -0.18313175503E+02  0.20488891946E+02  0.27550329213E+02  0.00000000000E+00 0. -1.
</event>
<event>
 7    1  0.2838209E-011  0.5052879E+02  0.7816164E-02  0.1300439E+00
        -11   -1    0    0    0    0  0.00000000000E+00  0.00000000000E+00  0.45593999997E+02  0.45594000000E+02  0.51100000000E-03 0. -1.
         11   -1    0    0    0    0 -0.00000000000E+00 -0.00000000000E+00 -0.45593999997E+02  0.45594000000E+02  0.51100000000E-03 0.  1.
    9900012    2    1    2    0    0 -0.23979604032E+02  0.73655066083E+01 -0.31998422012E+02  0.50528793067E+02  0.29999797006E+02 0.  0.
         12    1    1    2    0    0  0.23979604032E+02 -0.73655066083E+01  0.31998422012E+02  0.40659206933E+02  0.00000000000E+00 0. -1.
         11    1    3    3    0    0  0.26345436667E+01  0.14964305508E+01 -0.41727094027E+00  0.30584702097E+01  0.51100000000E-03 0. -1.
        -11    1    3    3    0    0 -0.37670958026E+01 -0.78908871931E+01 -0.85984523208E+01  0.12263380205E+02  0.51100000000E-03 0.  1.
        -12    1    3    3    0    0 -0.22847051896E+02  0.13759963251E+02 -0.22982698751E+02  0.35206942652E+02  0.00000000000E+00 0.  1.
</event>
<event>
 7    1  0.2838209E-011  0.5052885E+02  0.7816164E-02  0.1300439E+00
        -11   -1    0    0    0    0  0.00000000000E+00  0.00000000000E+00  0.45593999997E+02  0.45594000000E+02  0.51100000000E-03 0.  1.
         11   -1    0    0    0    0 -0.00000000000E+00 -0.00000000000E+00 -0.45593999997E+02  0.45594000000E+02  0.51100000000E-03 0. -1.
    9900012    2    1    2    0    0  0.32034960996E+02  0.15658963107E+02  0.19537767803E+02  0.50528853153E+02  0.29999979645E+02 0.  0.
         12    1    1    2    0    0 -0.32034960996E+02 -0.15658963107E+02 -0.19537767803E+02  0.40659146847E+02  0.00000000000E+00 0. -1.
         11    1    3    3    0    0  0.20441130324E+02 -0.23278945293E+01  0.59914694707E+00  0.20581979477E+02  0.51100000000E-03 0. -1.
        -11    1    3    3    0    0 -0.95552640852E+00  0.38300443776E+01  0.15170130150E+01  0.42289004955E+01  0.51100000000E-03 0.  1.
        -12    1    3    3    0    0  0.12549357080E+02  0.14156813259E+02  0.17421607841E+02  0.25717973181E+02  0.00000000000E+00 0.  1.
</event>
<event>
 7    1  0.2838209E-011  0.5052886E+02  0.7816164E-02  0.1300439E+00
        -11   -1    0    0    0    0  0.00000000000E+00  0.00000000000E+00  0.45593999997E+02  0.45594000000E+02  0.51100000000E-03 0.  1.
         11   -1    0    0    0    0 -0.00000000000E+00 -0.00000000000E+00 -0.45593999997E+02  0.45594000000E+02  0.51100000000E-03 0. -1.
    9900012    2    1    2    0    0 -0.98426408905E+01 -0.31789301693E+02  0.23360822147E+02  0.50528864578E+02  0.30000014372E+02 0.  0.
         12    1    1    2    0    0  0.98426408905E+01  0.31789301693E+02 -0.23360822147E+02  0.40659135422E+02  0.00000000000E+00 0. -1.
         11    1    3    3    0    0 -0.17763657641E+01  0.85250241427E+00 -0.89925979049E+00  0.21658495160E+01  0.51100000000E-03 0. -1.
        -11    1    3    3    0    0 -0.13047649273E+02 -0.61472378227E+01  0.11932590688E+02  0.18719412523E+02  0.51100000000E-03 0.  1.
        -12    1    3    3    0    0  0.49813741466E+01 -0.26494566285E+02  0.12327491250E+02  0.29643602540E+02  0.00000000000E+00 0.  1.
</event>
<event>
 7    1  0.2838209E-011  0.5052887E+02  0.7816164E-02  0.1300439E+00
        -11   -1    0    0    0    0  0.00000000000E+00  0.00000000000E+00  0.45593999997E+02  0.45594000000E+02  0.51100000000E-03 0. -1.
         11   -1    0    0    0    0 -0.00000000000E+00 -0.00000000000E+00 -0.45593999997E+02  0.45594000000E+02  0.51100000000E-03 0.  1.
    9900012    2    1    2    0    0 -0.33815722309E+02 -0.21816955972E+02  0.58036644849E+01  0.50528866160E+02  0.30000019181E+02 0.  0.
         12    1    1    2    0    0  0.33815722309E+02  0.21816955972E+02 -0.58036644849E+01  0.40659133840E+02  0.00000000000E+00 0. -1.
         11    1    3    3    0    0 -0.11117869217E+02 -0.21850903325E+02  0.11863010711E+01  0.24545392695E+02  0.51100000000E-03 0. -1.
        -11    1    3    3    0    0 -0.93134312331E+01 -0.48324758983E+01 -0.12775661422E+01  0.10570004737E+02  0.51100000000E-03 0.  1.
        -12    1    3    3    0    0 -0.13384421859E+02  0.48664232518E+01  0.58949295561E+01  0.15413468728E+02  0.00000000000E+00 0.  1.
</event>
<event>
 7    1  0.2838209E-011  0.5052886E+02  0.7816164E-02  0.1300439E+00
        -11   -1    0    0    0    0  0.00000000000E+00  0.00000000000E+00  0.45593999997E+02  0.45594000000E+02  0.51100000000E-03 0. -1.
         11   -1    0    0    0    0 -0.00000000000E+00 -0.00000000000E+00 -0.45593999997E+02  0.45594000000E+02  0.51100000000E-03 0.  1.
    9900012    2    1    2    0    0  0.24339081219E+02  0.30046461610E+02 -0.12569201541E+02  0.50528861332E+02  0.30000004504E+02 0.  0.
         12    1    1    2    0    0 -0.24339081219E+02 -0.30046461610E+02  0.12569201541E+02  0.40659138668E+02  0.00000000000E+00 0. -1.
         11    1    3    3    0    0  0.83684473957E+01 -0.37372666356E+01 -0.38445328674E+01  0.99387376940E+01  0.51100000000E-03 0. -1.
        -11    1    3    3    0    0  0.76565325635E+00  0.28498975745E+01 -0.51512938535E+01  0.59366631806E+01  0.51100000000E-03 0.  1.
         12    1    3    3    0    0  0.15204980567E+02  0.30933830671E+02 -0.35733748201E+01  0.34653460457E+02  0.00000000000E+00 0. -1.
</event>
<event>
 7    1  0.2838209E-011  0.5052886E+02  0.7816164E-02  0.1300439E+00
        -11   -1    0    0    0    0  0.00000000000E+00  0.00000000000E+00  0.45593999997E+02  0.45594000000E+02  0.51100000000E-03 0.  1.
         11   -1    0    0    0    0 -0.00000000000E+00 -0.00000000000E+00 -0.45593999997E+02  0.45594000000E+02  0.51100000000E-03 0. -1.
    9900012    2    1    2    0    0  0.79882198846E+01  0.31674875667E+02  0.24208602724E+02  0.50528857716E+02  0.29999993513E+02 0.  0.
         12    1    1    2    0    0 -0.79882198846E+01 -0.31674875667E+02 -0.24208602724E+02  0.40659142284E+02  0.00000000000E+00 0. -1.
         11    1    3    3    0    0  0.71715763142E+01  0.25032051146E+01  0.94144700743E+01  0.12096685071E+02  0.51100000000E-03 0. -1.
        -11    1    3    3    0    0  0.41618584866E+01  0.31252600706E+02  0.13293339195E+02  0.34216355507E+02  0.51100000000E-03 0.  1.
         12    1    3    3    0    0 -0.33452149163E+01 -0.20809301539E+01  0.15007934548E+01  0.42158171373E+01  0.00000000000E+00 0. -1.
</event>
<event>
 7    1  0.2838209E-011  0.5052886E+02  0.7816164E-02  0.1300439E+00
        -11   -1    0    0    0    0  0.00000000000E+00  0.00000000000E+00  0.45593999997E+02  0.45594000000E+02  0.51100000000E-03 0. -1.
         11   -1    0    0    0    0 -0.00000000000E+00 -0.00000000000E+00 -0.45593999997E+02  0.45594000000E+02  0.51100000000E-03 0.  1.
    9900012    2    1    2    0    0  0.30070897465E+02  0.27356668145E+02  0.72100754806E+00  0.50528855663E+02  0.29999987273E+02 0.  0.
         12    1    1    2    0    0 -0.30070897465E+02 -0.27356668145E+02 -0.72100754806E+00  0.40659144337E+02  0.00000000000E+00 0. -1.
         11    1    3    3    0    0  0.42004702116E+00  0.42611011598E+01 -0.44305997334E+01  0.61614638563E+01  0.51100000000E-03 0.  1.
        -11    1    3    3    0    0 -0.75836779374E+00  0.10719835131E+02  0.41528925069E+01  0.11521132903E+02  0.51100000000E-03 0. -1.
        -12    1    3    3    0    0  0.30409218238E+02  0.12375731854E+02  0.99871477458E+00  0.32846258903E+02  0.00000000000E+00 0.  1.
</event>
<event>
 7    1  0.2838209E-011  0.5052886E+02  0.7816164E-02  0.1300439E+00
        -11   -1    0    0    0    0  0.00000000000E+00  0.00000000000E+00  0.45593999997E+02  0.45594000000E+02  0.51100000000E-03 0.  1.
         11   -1    0    0    0    0 -0.00000000000E+00 -0.00000000000E+00 -0.45593999997E+02  0.45594000000E+02  0.51100000000E-03 0. -1.
    9900012    2    1    2    0    0 -0.15705081770E+01 -0.16197628499E+02  0.37260384304E+02  0.50528857074E+02  0.29999991564E+02 0.  0.
         12    1    1    2    0    0  0.15705081770E+01  0.16197628499E+02 -0.37260384304E+02  0.40659142926E+02  0.00000000000E+00 0. -1.
         11    1    3    3    0    0  0.74372566805E+01 -0.68242455839E+01  0.49758118874E+01  0.11253524733E+02  0.51100000000E-03 0.  1.
        -11    1    3    3    0    0  0.56136541282E+01 -0.19259968827E+01  0.78080305233E+01  0.98075439115E+01  0.51100000000E-03 0. -1.
         12    1    3    3    0    0 -0.14621418986E+02 -0.74473860329E+01  0.24476541894E+02  0.29467788430E+02  0.00000000000E+00 0. -1.
</event>
<event>
 7    1  0.2838209E-011  0.5052886E+02  0.7816164E-02  0.1300439E+00
        -11   -1    0    0    0    0  0.00000000000E+00  0.00000000000E+00  0.45593999997E+02  0.45594000000E+02  0.51100000000E-03 0. -1.
         11   -1    0    0    0    0 -0.00000000000E+00 -0.00000000000E+00 -0.45593999997E+02  0.45594000000E+02  0.51100000000E-03 0.  1.
    9900012    2    1    2    0    0 -0.16077929159E+02 -0.27752899414E+02 -0.24988847472E+02  0.50528859208E+02  0.29999998049E+02 0.  0.
         12    1    1    2    0    0  0.16077929159E+02  0.27752899414E+02  0.24988847472E+02  0.40659140792E+02  0.00000000000E+00 0. -1.
         11    1    3    3    0    0  0.16673554095E+01 -0.37849348549E+01  0.10178471912E+01  0.42593214347E+01  0.51100000000E-03 0. -1.
        -11    1    3    3    0    0  0.59082320341E+01 -0.36707546383E+01 -0.32490697804E+01  0.76771153490E+01  0.51100000000E-03 0.  1.
         12    1    3    3    0    0 -0.23653516603E+02 -0.20297209921E+02 -0.22757624883E+02  0.38592422424E+02  0.00000000000E+00 0. -1.
</event>
<event>
 7    1  0.2838209E-011  0.5052887E+02  0.7816164E-02  0.1300439E+00
        -11   -1    0    0    0    0  0.00000000000E+00  0.00000000000E+00  0.45593999997E+02  0.45594000000E+02  0.51100000000E-03 0.  1.
         11   -1    0    0    0    0 -0.00000000000E+00 -0.00000000000E+00 -0.45593999997E+02  0.45594000000E+02  0.51100000000E-03 0. -1.
    9900012    2    1    2    0    0 -0.20010797153E+02 -0.45467817871E+01  0.35100711998E+02  0.50528865601E+02  0.30000017480E+02 0.  0.
         12    1    1    2    0    0  0.20010797153E+02  0.45467817871E+01 -0.35100711998E+02  0.40659134399E+02  0.00000000000E+00 0. -1.
         11    1    3    3    0    0  0.11199277365E+01  0.33179732707E+01  0.32826169701E+01  0.47998707476E+01  0.51100000000E-03 0. -1.
        -11    1    3    3    0    0 -0.97948937068E+01  0.46327775301E+01  0.25509786823E+02  0.27715551490E+02  0.51100000000E-03 0.  1.
         12    1    3    3    0    0 -0.11335831182E+02 -0.12497532588E+02  0.63083082050E+01  0.18013443363E+02  0.00000000000E+00 0. -1.
</event>
<event>
 7    1  0.2838209E-011  0.5052886E+02  0.7816164E-02  0.1300439E+00
        -11   -1    0    0    0    0  0.00000000000E+00  0.00000000000E+00  0.45593999997E+02  0.45594000000E+02  0.51100000000E-03 0. -1.
         11   -1    0    0    0    0 -0.00000000000E+00 -0.00000000000E+00 -0.45593999997E+02  0.45594000000E+02  0.51100000000E-03 0.  1.
    9900012    2    1    2    0    0  0.24227292991E+02 -0.19580884818E+02 -0.26130300093E+02  0.50528863771E+02  0.30000011918E+02 0.  0.
         12    1    1    2    0    0 -0.24227292991E+02  0.19580884818E+02  0.26130300093E+02  0.40659136229E+02  0.00000000000E+00 0. -1.
         11    1    3    3    0    0  0.14419699116E+02 -0.13091421914E+02 -0.51592532194E+01  0.20147728020E+02  0.51100000000E-03 0. -1.
        -11    1    3    3    0    0  0.14067763793E+02 -0.56203265924E+01 -0.89437461817E+01  0.17592061993E+02  0.51100000000E-03 0.  1.
         12    1    3    3    0    0 -0.42601699175E+01 -0.86913631130E+00 -0.12027300692E+02  0.12789073758E+02  0.00000000000E+00 0. -1.
</event>
<event>
 7    1  0.2838209E-011  0.5052886E+02  0.7816164E-02  0.1300439E+00
        -11   -1    0    0    0    0  0.00000000000E+00  0.00000000000E+00  0.45593999997E+02  0.45594000000E+02  0.51100000000E-03 0.  1.
         11   -1    0    0    0    0 -0.00000000000E+00 -0.00000000000E+00 -0.45593999997E+02  0.45594000000E+02  0.51100000000E-03 0. -1.
    9900012    2    1    2    0    0  0.12040318075E+02 -0.36315879094E+02  0.13760571053E+02  0.50528860198E+02  0.30000001057E+02 0.  0.
         12    1    1    2    0    0 -0.12040318075E+02  0.36315879094E+02 -0.13760571053E+02  0.40659139802E+02  0.00000000000E+00 0. -1.
         11    1    3    3    0    0  0.78978651430E+01 -0.40576957643E+01 -0.22124617491E+00  0.88820109696E+01  0.51100000000E-03 0. -1.
        -11    1    3    3    0    0  0.12601628260E+02 -0.16489459598E+02  0.11056552734E+02  0.23514903173E+02  0.51100000000E-03 0.  1.
         12    1    3    3    0    0 -0.84591753282E+01 -0.15768723732E+02  0.29252644946E+01  0.18131946055E+02  0.00000000000E+00 0. -1.
</event>
<event>
 7    1  0.2838209E-011  0.5052885E+02  0.7816164E-02  0.1300439E+00
        -11   -1    0    0    0    0  0.00000000000E+00  0.00000000000E+00  0.45593999997E+02  0.45594000000E+02  0.51100000000E-03 0.  1.
         11   -1    0    0    0    0 -0.00000000000E+00 -0.00000000000E+00 -0.45593999997E+02  0.45594000000E+02  0.51100000000E-03 0. -1.
    9900012    2    1    2    0    0 -0.32849199265E+02 -0.10384285093E+02  0.21593127778E+02  0.50528850519E+02  0.29999971638E+02 0.  0.
         12    1    1    2    0    0  0.32849199265E+02  0.10384285093E+02 -0.21593127778E+02  0.40659149481E+02  0.00000000000E+00 0. -1.
         11    1    3    3    0    0 -0.20946943159E+00  0.13730580048E+01 -0.23009878541E+01  0.26876962427E+01  0.51100000000E-03 0. -1.
        -11    1    3    3    0    0  0.30678064549E+01 -0.11760140799E+01 -0.49633287817E+00  0.33227687473E+01  0.51100000000E-03 0.  1.
        -12    1    3    3    0    0 -0.35707536289E+02 -0.10581329018E+02  0.24390448510E+02  0.44518385529E+02  0.00000000000E+00 0.  1.
</event>
<event>
 7    1  0.2838209E-011  0.5052886E+02  0.7816164E-02  0.1300439E+00
        -11   -1    0    0    0    0  0.00000000000E+00  0.00000000000E+00  0.45593999997E+02  0.45594000000E+02  0.51100000000E-03 0. -1.
         11   -1    0    0    0    0 -0.00000000000E+00 -0.00000000000E+00 -0.45593999997E+02  0.45594000000E+02  0.51100000000E-03 0.  1.
    9900012    2    1    2    0    0  0.27925406840E+02  0.18945033165E+02 -0.22680891341E+02  0.50528862517E+02  0.30000008108E+02 0.  0.
         12    1    1    2    0    0 -0.27925406840E+02 -0.18945033165E+02  0.22680891341E+02  0.40659137483E+02  0.00000000000E+00 0. -1.
         11    1    3    3    0    0  0.91222472435E+00  0.32543286888E+01 -0.10268177528E+02  0.10810100794E+02  0.51100000000E-03 0. -1.
        -11    1    3    3    0    0  0.91797066108E+01 -0.28925405423E+01 -0.99532820918E+01  0.13845635735E+02  0.51100000000E-03 0.  1.
         12    1    3    3    0    0  0.17833475505E+02  0.18583245018E+02 -0.24594317207E+01  0.25873125988E+02  0.00000000000E+00 0. -1.
</event>
<event>
 7    1  0.2838209E-011  0.5052885E+02  0.7816164E-02  0.1300439E+00
        -11   -1    0    0    0    0  0.00000000000E+00  0.00000000000E+00  0.45593999997E+02  0.45594000000E+02  0.51100000000E-03 0.  1.
         11   -1    0    0    0    0 -0.00000000000E+00 -0.00000000000E+00 -0.45593999997E+02  0.45594000000E+02  0.51100000000E-03 0. -1.
    9900012    2    1    2    0    0 -0.16830123236E+02 -0.39294336540E+01  0.36803165415E+02  0.50528849965E+02  0.29999969955E+02 0.  0.
         12    1    1    2    0    0  0.16830123236E+02  0.39294336540E+01 -0.36803165415E+02  0.40659150035E+02  0.00000000000E+00 0. -1.
         11    1    3    3    0    0 -0.54227599516E+01 -0.11909550683E+02  0.13857456472E+02  0.19059717288E+02  0.51100000000E-03 0. -1.
        -11    1    3    3    0    0 -0.83936645894E+01 -0.38979132376E+01  0.10657664139E+02  0.14114996918E+02  0.51100000000E-03 0.  1.
         12    1    3    3    0    0 -0.30136986949E+01  0.11878030267E+02  0.12288044804E+02  0.17354135759E+02  0.00000000000E+00 0. -1.
</event>
<event>
 7    1  0.2838209E-011  0.5052886E+02  0.7816164E-02  0.1300439E+00
        -11   -1    0    0    0    0  0.00000000000E+00  0.00000000000E+00  0.45593999997E+02  0.45594000000E+02  0.51100000000E-03 0. -1.
         11   -1    0    0    0    0 -0.00000000000E+00 -0.00000000000E+00 -0.45593999997E+02  0.45594000000E+02  0.51100000000E-03 0.  1.
    9900012    2    1    2    0    0  0.29617894306E+02  0.15904844232E+02 -0.22868800709E+02  0.50528858604E+02  0.29999996213E+02 0.  0.
         12    1    1    2    0    0 -0.29617894306E+02 -0.15904844232E+02  0.22868800709E+02  0.40659141396E+02  0.00000000000E+00 0. -1.
         11    1    3    3    0    0  0.43138429517E+01  0.55004516267E+01  0.22078845543E+01  0.73306864328E+01  0.51100000000E-03 0. -1.
        -11    1    3    3    0    0  0.20070629699E+02  0.15873763734E+01 -0.26022210617E+02  0.32901449602E+02  0.51100000000E-03 0.  1.
         12    1    3    3    0    0  0.52334216558E+01  0.88170162324E+01  0.94552535398E+00  0.10296722569E+02  0.00000000000E+00 0. -1.
</event>
<event>
 7    1  0.2838209E-011  0.5052886E+02  0.7816164E-02  0.1300439E+00
        -11   -1    0    0    0    0  0.00000000000E+00  0.00000000000E+00  0.45593999997E+02  0.45594000000E+02  0.51100000000E-03 0. -1.
         11   -1    0    0    0    0 -0.00000000000E+00 -0.00000000000E+00 -0.45593999997E+02  0.45594000000E+02  0.51100000000E-03 0.  1.
    9900012    2    1    2    0    0 -0.17077929197E+02  0.36089713522E+02  0.76839249163E+01  0.50528858471E+02  0.29999995807E+02 0.  0.
         12    1    1    2    0    0  0.17077929197E+02 -0.36089713522E+02 -0.76839249163E+01  0.40659141529E+02  0.00000000000E+00 0. -1.
         11    1    3    3    0    0 -0.57468665479E+01  0.65638897510E+01  0.45778586958E+01  0.98523050238E+01  0.51100000000E-03 0. -1.
        -11    1    3    3    0    0 -0.14057354374E+02  0.16650255577E+02  0.11918817553E+02  0.24837440184E+02  0.51100000000E-03 0.  1.
         12    1    3    3    0    0  0.27262917250E+01  0.12875568194E+02 -0.88127513323E+01  0.15839113263E+02  0.00000000000E+00 0. -1.
</event>
<event>
 7    1  0.2838209E-011  0.5052874E+02  0.7816164E-02  0.1300439E+00
        -11   -1    0    0    0    0  0.00000000000E+00  0.00000000000E+00  0.45593999997E+02  0.45594000000E+02  0.51100000000E-03 0.  1.
         11   -1    0    0    0    0 -0.00000000000E+00 -0.00000000000E+00 -0.45593999997E+02  0.45594000000E+02  0.51100000000E-03 0. -1.
    9900012    2    1    2    0    0 -0.17965296721E+01 -0.30747624158E+02 -0.26543005466E+02  0.50528744604E+02  0.29999649695E+02 0.  0.
         12    1    1    2    0    0  0.17965296721E+01  0.30747624158E+02  0.26543005466E+02  0.40659255396E+02  0.00000000000E+00 0. -1.
         11    1    3    3    0    0 -0.60931617640E+01 -0.64721938629E+01 -0.77126549776E+01  0.11768643114E+02  0.51100000000E-03 0. -1.
        -11    1    3    3    0    0 -0.23420931339E+01 -0.81129524481E+01 -0.19525765353E+02  0.21273479042E+02  0.51100000000E-03 0.  1.
        -12    1    3    3    0    0  0.66387252258E+01 -0.16162477847E+02  0.69541486485E+00  0.17486622447E+02  0.00000000000E+00 0.  1.
</event>
<event>
 7    1  0.2838209E-011  0.5052887E+02  0.7816164E-02  0.1300439E+00
        -11   -1    0    0    0    0  0.00000000000E+00  0.00000000000E+00  0.45593999997E+02  0.45594000000E+02  0.51100000000E-03 0. -1.
         11   -1    0    0    0    0 -0.00000000000E+00 -0.00000000000E+00 -0.45593999997E+02  0.45594000000E+02  0.51100000000E-03 0.  1.
    9900012    2    1    2    0    0  0.29510416475E+02  0.27676648872E+02 -0.40377328387E+01  0.50528869909E+02  0.30000030575E+02 0.  0.
         12    1    1    2    0    0 -0.29510416475E+02 -0.27676648872E+02  0.40377328387E+01  0.40659130091E+02  0.00000000000E+00 0. -1.
         11    1    3    3    0    0  0.66470285946E+01  0.69056519201E+01  0.89304634163E+01  0.13100541770E+02  0.51100000000E-03 0. -1.
        -11    1    3    3    0    0  0.22665515255E+02  0.11202619446E+02 -0.73450286853E+01  0.26328192321E+02  0.51100000000E-03 0.  1.
         12    1    3    3    0    0  0.19787262550E+00  0.95683775053E+01 -0.56231675698E+01  0.11100135818E+02  0.00000000000E+00 0. -1.
</event>
<event>
 7    1  0.2838209E-011  0.5052886E+02  0.7816164E-02  0.1300439E+00
        -11   -1    0    0    0    0  0.00000000000E+00  0.00000000000E+00  0.45593999997E+02  0.45594000000E+02  0.51100000000E-03 0.  1.
         11   -1    0    0    0    0 -0.00000000000E+00 -0.00000000000E+00 -0.45593999997E+02  0.45594000000E+02  0.51100000000E-03 0. -1.
    9900012    2    1    2    0    0 -0.32335872013E+02 -0.23924096624E+02 -0.59325187516E+01  0.50528858385E+02  0.29999995548E+02 0.  0.
         12    1    1    2    0    0  0.32335872013E+02  0.23924096624E+02  0.59325187516E+01  0.40659141615E+02  0.00000000000E+00 0. -1.
         11    1    3    3    0    0 -0.28691584404E+01 -0.12847724954E+01  0.46269461953E+01  0.55938664514E+01  0.51100000000E-03 0. -1.
        -11    1    3    3    0    0 -0.10677228887E+02 -0.49077793767E+01  0.70179902349E+01  0.13687282503E+02  0.51100000000E-03 0.  1.
        -12    1    3    3    0    0 -0.18789484685E+02 -0.17731544751E+02 -0.17577455182E+02  0.31247709431E+02  0.00000000000E+00 0.  1.
</event>
<event>
 7    1  0.2838209E-011  0.5052886E+02  0.7816164E-02  0.1300439E+00
        -11   -1    0    0    0    0  0.00000000000E+00  0.00000000000E+00  0.45593999997E+02  0.45594000000E+02  0.51100000000E-03 0.  1.
         11   -1    0    0    0    0 -0.00000000000E+00 -0.00000000000E+00 -0.45593999997E+02  0.45594000000E+02  0.51100000000E-03 0. -1.
    9900012    2    1    2    0    0  0.26719799506E+02  0.24321478214E+02  0.18646274338E+02  0.50528861607E+02  0.30000005341E+02 0.  0.
         12    1    1    2    0    0 -0.26719799506E+02 -0.24321478214E+02 -0.18646274338E+02  0.40659138393E+02  0.00000000000E+00 0. -1.
         11    1    3    3    0    0  0.10168346710E+02  0.38487711563E+01  0.33328164299E+01  0.11371718421E+02  0.51100000000E-03 0. -1.
        -11    1    3    3    0    0  0.16249291326E+02  0.95034852441E+00  0.47395086026E+01  0.16953040228E+02  0.51100000000E-03 0.  1.
        -12    1    3    3    0    0  0.30216146999E+00  0.19522358534E+02  0.10573949306E+02  0.22204102958E+02  0.00000000000E+00 0.  1.
</event>
<event>
 7    1  0.2838209E-011  0.5052885E+02  0.7816164E-02  0.1300439E+00
        -11   -1    0    0    0    0  0.00000000000E+00  0.00000000000E+00  0.45593999997E+02  0.45594000000E+02  0.51100000000E-03 0. -1.
         11   -1    0    0    0    0 -0.00000000000E+00 -0.00000000000E+00 -0.45593999997E+02  0.45594000000E+02  0.51100000000E-03 0.  1.
    9900012    2    1    2    0    0 -0.12446823466E+02 -0.36203563500E+02 -0.13694696578E+02  0.50528854179E+02  0.29999982764E+02 0.  0.
         12    1    1    2    0    0  0.12446823466E+02  0.36203563500E+02  0.13694696578E+02  0.40659145821E+02  0.00000000000E+00 0. -1.
         11    1    3    3    0    0  0.42067579215E+01 -0.61798052449E+01 -0.92783990210E+01  0.11915346983E+02  0.51100000000E-03 0. -1.
        -11    1    3    3    0    0  0.36060876761E+01 -0.46629907634E+01 -0.43530741152E+00  0.59107397161E+01  0.51100000000E-03 0.  1.
        -12    1    3    3    0    0 -0.20259669063E+02 -0.25360767492E+02 -0.39809901459E+01  0.32702767480E+02  0.00000000000E+00 0.  1.
</event>
<event>
 7    1  0.2838209E-011  0.5052886E+02  0.7816164E-02  0.1300439E+00
        -11   -1    0    0    0    0  0.00000000000E+00  0.00000000000E+00  0.45593999997E+02  0.45594000000E+02  0.51100000000E-03 0.  1.
         11   -1    0    0    0    0 -0.00000000000E+00 -0.00000000000E+00 -0.45593999997E+02  0.45594000000E+02  0.51100000000E-03 0. -1.
    9900012    2    1    2    0    0  0.28805434715E+00 -0.12518284131E+02  0.38683005969E+02  0.50528863712E+02  0.30000011739E+02 0.  0.
         12    1    1    2    0    0 -0.28805434715E+00  0.12518284131E+02 -0.38683005969E+02  0.40659136288E+02  0.00000000000E+00 0. -1.
         11    1    3    3    0    0 -0.27457886519E+01 -0.10443908678E+02  0.33136021482E+02  0.34851262585E+02  0.51100000000E-03 0. -1.
        -11    1    3    3    0    0  0.33953734246E+01 -0.42652426217E+01  0.96092810871E+01  0.11048037771E+02  0.51100000000E-03 0.  1.
         12    1    3    3    0    0 -0.36153042562E+00  0.21908671692E+01 -0.40622966004E+01  0.46295633565E+01  0.00000000000E+00 0. -1.
</event>
<event>
 7    1  0.2838209E-011  0.5052883E+02  0.7816164E-02  0.1300439E+00
        -11   -1    0    0    0    0  0.00000000000E+00  0.00000000000E+00  0.45593999997E+02  0.45594000000E+02  0.51100000000E-03 0.  1.
         11   -1    0    0    0    0 -0.00000000000E+00 -0.00000000000E+00 -0.45593999997E+02  0.45594000000E+02  0.51100000000E-03 0. -1.
    9900012    2    1    2    0    0  0.21774450066E+02  0.23904924450E+02  0.24649460592E+02  0.50528831340E+02  0.29999913342E+02 0.  0.
         12    1    1    2    0    0 -0.21774450066E+02 -0.23904924450E+02 -0.24649460592E+02  0.40659168660E+02  0.00000000000E+00 0. -1.
         11    1    3    3    0    0  0.80396143594E+01  0.75321190706E+01 -0.28115867585E+00  0.11020311575E+02  0.51100000000E-03 0. -1.
        -11    1    3    3    0    0  0.48964277533E+01 -0.51195443759E+01  0.35210097773E+01  0.79108943535E+01  0.51100000000E-03 0.  1.
         12    1    3    3    0    0  0.88384079538E+01  0.21492349755E+02  0.21409609490E+02  0.31597625412E+02  0.00000000000E+00 0. -1.
</event>
<event>
 7    1  0.2838209E-011  0.5052885E+02  0.7816164E-02  0.1300439E+00
        -11   -1    0    0    0    0  0.00000000000E+00  0.00000000000E+00  0.45593999997E+02  0.45594000000E+02  0.51100000000E-03 0. -1.
         11   -1    0    0    0    0 -0.00000000000E+00 -0.00000000000E+00 -0.45593999997E+02  0.45594000000E+02  0.51100000000E-03 0.  1.
    9900012    2    1    2    0    0 -0.15364227254E+01 -0.30979402832E+01 -0.40511833024E+02  0.50528850430E+02  0.29999971367E+02 0.  0.
         12    1    1    2    0    0  0.15364227254E+01  0.30979402832E+01  0.40511833024E+02  0.40659149570E+02  0.00000000000E+00 0. -1.
         11    1    3    3    0    0  0.16085197994E+01  0.42370152736E+01 -0.75694309422E+01  0.88224667425E+01  0.51100000000E-03 0. -1.
        -11    1    3    3    0    0  0.46716409054E+00  0.73740424891E+01 -0.26700415429E+01  0.78564538451E+01  0.51100000000E-03 0.  1.
        -12    1    3    3    0    0 -0.36121066153E+01 -0.14708998046E+02 -0.30272360539E+02  0.33849929842E+02  0.00000000000E+00 0.  1.
</event>
<event>
 7    1  0.2838209E-011  0.5052884E+02  0.7816164E-02  0.1300439E+00
        -11   -1    0    0    0    0  0.00000000000E+00  0.00000000000E+00  0.45593999997E+02  0.45594000000E+02  0.51100000000E-03 0. -1.
         11   -1    0    0    0    0 -0.00000000000E+00 -0.00000000000E+00 -0.45593999997E+02  0.45594000000E+02  0.51100000000E-03 0.  1.
    9900012    2    1    2    0    0 -0.24655271940E+02  0.30292430742E+02 -0.11298376364E+02  0.50528842321E+02  0.29999946718E+02 0.  0.
         12    1    1    2    0    0  0.24655271940E+02 -0.30292430742E+02  0.11298376364E+02  0.40659157679E+02  0.00000000000E+00 0. -1.
         11    1    3    3    0    0 -0.36665923662E+01  0.51556202629E+01  0.62873889784E+00  0.63576436466E+01  0.51100000000E-03 0. -1.
        -11    1    3    3    0    0  0.36353010950E+01  0.14307899457E+02 -0.85510704107E+01  0.17060252236E+02  0.51100000000E-03 0.  1.
        -12    1    3    3    0    0 -0.24623980669E+02  0.10828911023E+02 -0.33760448507E+01  0.27110946438E+02  0.00000000000E+00 0.  1.
</event>
<event>
 7    1  0.2838209E-011  0.5052886E+02  0.7816164E-02  0.1300439E+00
        -11   -1    0    0    0    0  0.00000000000E+00  0.00000000000E+00  0.45593999997E+02  0.45594000000E+02  0.51100000000E-03 0.  1.
         11   -1    0    0    0    0 -0.00000000000E+00 -0.00000000000E+00 -0.45593999997E+02  0.45594000000E+02  0.51100000000E-03 0. -1.
    9900012    2    1    2    0    0  0.24583939261E+02 -0.17736768002E+02  0.27096173033E+02  0.50528860784E+02  0.30000002840E+02 0.  0.
         12    1    1    2    0    0 -0.24583939261E+02  0.17736768002E+02 -0.27096173033E+02  0.40659139216E+02  0.00000000000E+00 0. -1.
         11    1    3    3    0    0  0.84728496891E+01 -0.17675965350E+02  0.72706977841E+01  0.20906744831E+02  0.51100000000E-03 0. -1.
        -11    1    3    3    0    0  0.15736167517E+02 -0.28661732877E+01  0.88346984555E+01  0.18272761546E+02  0.51100000000E-03 0.  1.
        -12    1    3    3    0    0  0.37492205467E+00  0.28053706358E+01  0.10990776793E+02  0.11349354407E+02  0.00000000000E+00 0.  1.
</event>
<event>
 7    1  0.2838209E-011  0.5052885E+02  0.7816164E-02  0.1300439E+00
        -11   -1    0    0    0    0  0.00000000000E+00  0.00000000000E+00  0.45593999997E+02  0.45594000000E+02  0.51100000000E-03 0.  1.
         11   -1    0    0    0    0 -0.00000000000E+00 -0.00000000000E+00 -0.45593999997E+02  0.45594000000E+02  0.51100000000E-03 0. -1.
    9900012    2    1    2    0    0 -0.38048756678E+02 -0.12120944630E+02 -0.76512028526E+01  0.50528854798E+02  0.29999984643E+02 0.  0.
         12    1    1    2    0    0  0.38048756678E+02  0.12120944630E+02  0.76512028526E+01  0.40659145202E+02  0.00000000000E+00 0. -1.
         11    1    3    3    0    0 -0.15562246465E+01 -0.12624471194E+01 -0.37942350526E+01  0.42909005786E+01  0.51100000000E-03 0. -1.
        -11    1    3    3    0    0  0.35183260484E+01  0.14389601829E+01 -0.21007405631E+01  0.43430790651E+01  0.51100000000E-03 0.  1.
        -12    1    3    3    0    0 -0.40010858080E+02 -0.12297457694E+02 -0.17562272368E+01  0.41894875154E+02  0.00000000000E+00 0.  1.
</event>
<event>
 7    1  0.2838209E-011  0.5052886E+02  0.7816164E-02  0.1300439E+00
        -11   -1    0    0    0    0  0.00000000000E+00  0.00000000000E+00  0.45593999997E+02  0.45594000000E+02  0.51100000000E-03 0. -1.
         11   -1    0    0    0    0 -0.00000000000E+00 -0.00000000000E+00 -0.45593999997E+02  0.45594000000E+02  0.51100000000E-03 0.  1.
    9900012    2    1    2    0    0 -0.21425683404E+02 -0.18900562092E+02 -0.28928784268E+02  0.50528859380E+02  0.29999998570E+02 0.  0.
         12    1    1    2    0    0  0.21425683404E+02  0.18900562092E+02  0.28928784268E+02  0.40659140620E+02  0.00000000000E+00 0. -1.
         11    1    3    3    0    0 -0.47240753466E+01  0.34140364689E+01 -0.11998922871E+02  0.13339665783E+02  0.51100000000E-03 0. -1.
        -11    1    3    3    0    0 -0.47468404607E+00 -0.16021979343E+01 -0.97819603435E+01  0.99236642218E+01  0.51100000000E-03 0.  1.
        -12    1    3    3    0    0 -0.16226924012E+02 -0.20712400627E+02 -0.71479010543E+01  0.27265529375E+02  0.00000000000E+00 0.  1.
</event>
<event>
 7    1  0.2838209E-011  0.5052885E+02  0.7816164E-02  0.1300439E+00
        -11   -1    0    0    0    0  0.00000000000E+00  0.00000000000E+00  0.45593999997E+02  0.45594000000E+02  0.51100000000E-03 0.  1.
         11   -1    0    0    0    0 -0.00000000000E+00 -0.00000000000E+00 -0.45593999997E+02  0.45594000000E+02  0.51100000000E-03 0. -1.
    9900012    2    1    2    0    0 -0.27847483512E+02  0.26939909078E+01  0.29502990650E+02  0.50528851186E+02  0.29999973666E+02 0.  0.
         12    1    1    2    0    0  0.27847483512E+02 -0.26939909078E+01 -0.29502990650E+02  0.40659148814E+02  0.00000000000E+00 0. -1.
         11    1    3    3    0    0 -0.16995209952E+02  0.84139881665E+01  0.39554924240E+01  0.19372100525E+02  0.51100000000E-03 0. -1.
        -11    1    3    3    0    0 -0.28540210386E+01  0.40528287441E+01  0.50137844913E+01  0.70504533261E+01  0.51100000000E-03 0.  1.
        -12    1    3    3    0    0 -0.79982525213E+01 -0.97728260029E+01  0.20533713735E+02  0.24106297335E+02  0.00000000000E+00 0.  1.
</event>
<event>
 7    1  0.2838209E-011  0.5052886E+02  0.7816164E-02  0.1300439E+00
        -11   -1    0    0    0    0  0.00000000000E+00  0.00000000000E+00  0.45593999997E+02  0.45594000000E+02  0.51100000000E-03 0.  1.
         11   -1    0    0    0    0 -0.00000000000E+00 -0.00000000000E+00 -0.45593999997E+02  0.45594000000E+02  0.51100000000E-03 0. -1.
    9900012    2    1    2    0    0  0.36496515321E+02 -0.17920024232E+02 -0.20670336735E+00  0.50528860494E+02  0.30000001959E+02 0.  0.
         12    1    1    2    0    0 -0.36496515321E+02  0.17920024232E+02  0.20670336735E+00  0.40659139506E+02  0.00000000000E+00 0. -1.
         11    1    3    3    0    0  0.99113012198E+01  0.32935620769E+01  0.37481475603E+01  0.11096398218E+02  0.51100000000E-03 0. -1.
        -11    1    3    3    0    0  0.87326305259E+01 -0.41872776131E+00  0.56290986584E+01  0.10398121023E+02  0.51100000000E-03 0.  1.
        -12    1    3    3    0    0  0.17852583575E+02 -0.20794858548E+02 -0.95839495860E+01  0.29034341253E+02  0.00000000000E+00 0.  1.
</event>
<event>
 7    1  0.2838209E-011  0.5052885E+02  0.7816164E-02  0.1300439E+00
        -11   -1    0    0    0    0  0.00000000000E+00  0.00000000000E+00  0.45593999997E+02  0.45594000000E+02  0.51100000000E-03 0. -1.
         11   -1    0    0    0    0 -0.00000000000E+00 -0.00000000000E+00 -0.45593999997E+02  0.45594000000E+02  0.51100000000E-03 0.  1.
    9900012    2    1    2    0    0 -0.20816875520E+02 -0.49282216244E+01 -0.34576533400E+02  0.50528851745E+02  0.29999975366E+02 0.  0.
         12    1    1    2    0    0  0.20816875520E+02  0.49282216244E+01  0.34576533400E+02  0.40659148255E+02  0.00000000000E+00 0. -1.
         11    1    3    3    0    0 -0.10416427777E+02 -0.10379581935E+02 -0.25942921428E+01  0.14932114410E+02  0.51100000000E-03 0. -1.
        -11    1    3    3    0    0 -0.54465352894E+00  0.20187541788E+01 -0.14885251544E+00  0.20962283352E+01  0.51100000000E-03 0.  1.
        -12    1    3    3    0    0 -0.98557942144E+01  0.34326061320E+01 -0.31833388742E+02  0.33500509000E+02  0.00000000000E+00 0.  1.
</event>
<event>
 7    1  0.2838209E-011  0.5052889E+02  0.7816164E-02  0.1300439E+00
        -11   -1    0    0    0    0  0.00000000000E+00  0.00000000000E+00  0.45593999997E+02  0.45594000000E+02  0.51100000000E-03 0.  1.
         11   -1    0    0    0    0 -0.00000000000E+00 -0.00000000000E+00 -0.45593999997E+02  0.45594000000E+02  0.51100000000E-03 0. -1.
    9900012    2    1    2    0    0 -0.24838982124E+02  0.11879818645E+02  0.29917527376E+02  0.50528885791E+02  0.30000078849E+02 0.  0.
         12    1    1    2    0    0  0.24838982124E+02 -0.11879818645E+02 -0.29917527376E+02  0.40659114209E+02  0.00000000000E+00 0. -1.
         11    1    3    3    0    0 -0.98772283594E+01  0.13242302081E+01 -0.15518917334E+01  0.10085712366E+02  0.51100000000E-03 0. -1.
        -11    1    3    3    0    0 -0.95451239735E+01  0.63572474581E+01  0.40221280730E+01  0.12153250652E+02  0.51100000000E-03 0.  1.
        -12    1    3    3    0    0 -0.54166297915E+01  0.41983409788E+01  0.27447291036E+02  0.28289922773E+02  0.00000000000E+00 0.  1.
</event>
<event>
 7    1  0.2838209E-011  0.5052885E+02  0.7816164E-02  0.1300439E+00
        -11   -1    0    0    0    0  0.00000000000E+00  0.00000000000E+00  0.45593999997E+02  0.45594000000E+02  0.51100000000E-03 0. -1.
         11   -1    0    0    0    0 -0.00000000000E+00 -0.00000000000E+00 -0.45593999997E+02  0.45594000000E+02  0.51100000000E-03 0.  1.
    9900012    2    1    2    0    0  0.21417941982E+02  0.32118491666E+02 -0.12760912034E+02  0.50528848244E+02  0.29999964722E+02 0.  0.
         12    1    1    2    0    0 -0.21417941982E+02 -0.32118491666E+02  0.12760912034E+02  0.40659151756E+02  0.00000000000E+00 0. -1.
         11    1    3    3    0    0 -0.11672575769E+01  0.44450450726E+01  0.18971002078E+01  0.49719116452E+01  0.51100000000E-03 0. -1.
        -11    1    3    3    0    0  0.16270043362E+01  0.16493957782E+02  0.17815186611E+01  0.16669480958E+02  0.51100000000E-03 0.  1.
        -12    1    3    3    0    0  0.20958195222E+02  0.11179488811E+02 -0.16439530903E+02  0.28887455640E+02  0.00000000000E+00 0.  1.
</event>
<event>
 7    1  0.2838209E-011  0.5052886E+02  0.7816164E-02  0.1300439E+00
        -11   -1    0    0    0    0  0.00000000000E+00  0.00000000000E+00  0.45593999997E+02  0.45594000000E+02  0.51100000000E-03 0. -1.
         11   -1    0    0    0    0 -0.00000000000E+00 -0.00000000000E+00 -0.45593999997E+02  0.45594000000E+02  0.51100000000E-03 0.  1.
    9900012    2    1    2    0    0 -0.14717926329E+02 -0.36915024431E+02  0.85923950027E+01  0.50528860363E+02  0.30000001559E+02 0.  0.
         12    1    1    2    0    0  0.14717926329E+02  0.36915024431E+02 -0.85923950027E+01  0.40659139637E+02  0.00000000000E+00 0. -1.
         11    1    3    3    0    0 -0.88321633422E+01 -0.79387374029E+01  0.31592618962E+01  0.12288677587E+02  0.51100000000E-03 0.  1.
        -11    1    3    3    0    0  0.80524139100E+01 -0.85679166718E+01 -0.29867143729E+01  0.12131406715E+02  0.51100000000E-03 0. -1.
         12    1    3    3    0    0 -0.13938176897E+02 -0.20408370356E+02  0.84198474794E+01  0.26108776061E+02  0.00000000000E+00 0. -1.
</event>
<event>
 7    1  0.2838209E-011  0.5052886E+02  0.7816164E-02  0.1300439E+00
        -11   -1    0    0    0    0  0.00000000000E+00  0.00000000000E+00  0.45593999997E+02  0.45594000000E+02  0.51100000000E-03 0. -1.
         11   -1    0    0    0    0 -0.00000000000E+00 -0.00000000000E+00 -0.45593999997E+02  0.45594000000E+02  0.51100000000E-03 0.  1.
    9900012    2    1    2    0    0 -0.39004866131E+02 -0.11309037347E+02  0.19727020898E+01  0.50528862514E+02  0.30000008096E+02 0.  0.
         12    1    1    2    0    0  0.39004866131E+02  0.11309037347E+02 -0.19727020898E+01  0.40659137486E+02  0.00000000000E+00 0. -1.
         11    1    3    3    0    0 -0.15418030351E+02 -0.11820519330E+02 -0.16492026469E+01  0.19497697473E+02  0.51100000000E-03 0. -1.
        -11    1    3    3    0    0 -0.17742211056E+02 -0.40666653311E+01 -0.57371095679E+01  0.19085026763E+02  0.51100000000E-03 0.  1.
         12    1    3    3    0    0 -0.58446247235E+01  0.45781473140E+01  0.93590143047E+01  0.11946138277E+02  0.00000000000E+00 0. -1.
</event>
<event>
 7    1  0.2838209E-011  0.5052883E+02  0.7816164E-02  0.1300439E+00
        -11   -1    0    0    0    0  0.00000000000E+00  0.00000000000E+00  0.45593999997E+02  0.45594000000E+02  0.51100000000E-03 0. -1.
         11   -1    0    0    0    0 -0.00000000000E+00 -0.00000000000E+00 -0.45593999997E+02  0.45594000000E+02  0.51100000000E-03 0.  1.
    9900012    2    1    2    0    0 -0.99369842623E+01  0.25650909750E+02 -0.29940869610E+02  0.50528825141E+02  0.29999894498E+02 0.  0.
         12    1    1    2    0    0  0.99369842623E+01 -0.25650909750E+02  0.29940869610E+02  0.40659174859E+02  0.00000000000E+00 0. -1.
         11    1    3    3    0    0 -0.43618959047E+01  0.99711387508E-01 -0.10824728610E+02  0.11670939464E+02  0.51100000000E-03 0.  1.
        -11    1    3    3    0    0 -0.67626905391E+01  0.15291955602E+02  0.45733333600E+00  0.16726836028E+02  0.51100000000E-03 0. -1.
         12    1    3    3    0    0  0.11876021815E+01  0.10259242760E+02 -0.19573474336E+02  0.22131049649E+02  0.00000000000E+00 0. -1.
</event>
<event>
 7    1  0.2838209E-011  0.5052887E+02  0.7816164E-02  0.1300439E+00
        -11   -1    0    0    0    0  0.00000000000E+00  0.00000000000E+00  0.45593999997E+02  0.45594000000E+02  0.51100000000E-03 0.  1.
         11   -1    0    0    0    0 -0.00000000000E+00 -0.00000000000E+00 -0.45593999997E+02  0.45594000000E+02  0.51100000000E-03 0. -1.
    9900012    2    1    2    0    0  0.10363223057E+02  0.24862150648E+02  0.30457212805E+02  0.50528871396E+02  0.30000035096E+02 0.  0.
         12    1    1    2    0    0 -0.10363223057E+02 -0.24862150648E+02 -0.30457212805E+02  0.40659128604E+02  0.00000000000E+00 0. -1.
         11    1    3    3    0    0 -0.37291582325E+01  0.21495776110E+01  0.50257319617E+01  0.66170451896E+01  0.51100000000E-03 0. -1.
        -11    1    3    3    0    0 -0.64735821644E+01  0.48404705057E+01  0.89874566938E+01  0.12087671357E+02  0.51100000000E-03 0.  1.
        -12    1    3    3    0    0  0.20565963453E+02  0.17872102531E+02  0.16444024150E+02  0.31824154849E+02  0.00000000000E+00 0.  1.
</event>
<event>
 7    1  0.2838209E-011  0.5052886E+02  0.7816164E-02  0.1300439E+00
        -11   -1    0    0    0    0  0.00000000000E+00  0.00000000000E+00  0.45593999997E+02  0.45594000000E+02  0.51100000000E-03 0.  1.
         11   -1    0    0    0    0 -0.00000000000E+00 -0.00000000000E+00 -0.45593999997E+02  0.45594000000E+02  0.51100000000E-03 0. -1.
    9900012    2    1    2    0    0 -0.11255699648E+02 -0.15104888460E+02  0.36032171345E+02  0.50528858325E+02  0.29999995363E+02 0.  0.
         12    1    1    2    0    0  0.11255699648E+02  0.15104888460E+02 -0.36032171345E+02  0.40659141675E+02  0.00000000000E+00 0. -1.
         11    1    3    3    0    0  0.35160667665E+01 -0.13448245736E+02  0.19404880472E+02  0.23869801534E+02  0.51100000000E-03 0. -1.
        -11    1    3    3    0    0 -0.13945931600E+01 -0.29756302535E+01  0.12001600057E+02  0.12443378547E+02  0.51100000000E-03 0.  1.
         12    1    3    3    0    0 -0.13377173255E+02  0.13189875291E+01  0.46256908160E+01  0.14215678243E+02  0.00000000000E+00 0. -1.
</event>
<event>
 7    1  0.2838209E-011  0.5052886E+02  0.7816164E-02  0.1300439E+00
        -11   -1    0    0    0    0  0.00000000000E+00  0.00000000000E+00  0.45593999997E+02  0.45594000000E+02  0.51100000000E-03 0.  1.
         11   -1    0    0    0    0 -0.00000000000E+00 -0.00000000000E+00 -0.45593999997E+02  0.45594000000E+02  0.51100000000E-03 0. -1.
    9900012    2    1    2    0    0 -0.19846194276E+02 -0.30345638655E+01  0.35356548163E+02  0.50528861998E+02  0.30000006529E+02 0.  0.
         12    1    1    2    0    0  0.19846194276E+02  0.30345638655E+01 -0.35356548163E+02  0.40659138002E+02  0.00000000000E+00 0. -1.
         11    1    3    3    0    0 -0.96139708539E+01 -0.76290953089E+01  0.15129183030E+02  0.19481368285E+02  0.51100000000E-03 0. -1.
        -11    1    3    3    0    0 -0.15122931731E+02 -0.51367959851E+00  0.18244237040E+02  0.23702723816E+02  0.51100000000E-03 0.  1.
         12    1    3    3    0    0  0.48907083089E+01  0.51082110420E+01  0.19831280923E+01  0.73447698972E+01  0.00000000000E+00 0. -1.
</event>
<event>
 7    1  0.2838209E-011  0.5052887E+02  0.7816164E-02  0.1300439E+00
        -11   -1    0    0    0    0  0.00000000000E+00  0.00000000000E+00  0.45593999997E+02  0.45594000000E+02  0.51100000000E-03 0.  1.
         11   -1    0    0    0    0 -0.00000000000E+00 -0.00000000000E+00 -0.45593999997E+02  0.45594000000E+02  0.51100000000E-03 0. -1.
    9900012    2    1    2    0    0 -0.14851672987E+02  0.33917828467E+02  0.16798022486E+02  0.50528870179E+02  0.30000031395E+02 0.  0.
         12    1    1    2    0    0  0.14851672987E+02 -0.33917828467E+02 -0.16798022486E+02  0.40659129821E+02  0.00000000000E+00 0. -1.
         11    1    3    3    0    0 -0.13749361941E+02  0.14813163930E+02  0.80179618069E+01  0.21743102152E+02  0.51100000000E-03 0. -1.
        -11    1    3    3    0    0 -0.84607979827E+01  0.17648423513E+02  0.42665680694E+01  0.20031364365E+02  0.51100000000E-03 0.  1.
         12    1    3    3    0    0  0.73584869371E+01  0.14562410237E+01  0.45134926095E+01  0.87544036609E+01  0.00000000000E+00 0. -1.
</event>
<event>
 7    1  0.2838209E-011  0.5052886E+02  0.7816164E-02  0.1300439E+00
        -11   -1    0    0    0    0  0.00000000000E+00  0.00000000000E+00  0.45593999997E+02  0.45594000000E+02  0.51100000000E-03 0. -1.
         11   -1    0    0    0    0 -0.00000000000E+00 -0.00000000000E+00 -0.45593999997E+02  0.45594000000E+02  0.51100000000E-03 0.  1.
    9900012    2    1    2    0    0  0.94663996484E+01 -0.38161173064E+02 -0.10357481182E+02  0.50528864884E+02  0.30000015301E+02 0.  0.
         12    1    1    2    0    0 -0.94663996484E+01  0.38161173064E+02  0.10357481182E+02  0.40659135116E+02  0.00000000000E+00 0. -1.
         11    1    3    3    0    0  0.17901907079E+01 -0.27850218728E+02 -0.84798934140E+01  0.29167585751E+02  0.51100000000E-03 0. -1.
        -11    1    3    3    0    0  0.43987442951E+01 -0.10120534957E+02 -0.85268825797E+01  0.13945676964E+02  0.51100000000E-03 0.  1.
         12    1    3    3    0    0  0.32774646455E+01 -0.19041937953E+00  0.66492948114E+01  0.74156021691E+01  0.00000000000E+00 0. -1.
</event>
<event>
 7    1  0.2838209E-011  0.5052885E+02  0.7816164E-02  0.1300439E+00
        -11   -1    0    0    0    0  0.00000000000E+00  0.00000000000E+00  0.45593999997E+02  0.45594000000E+02  0.51100000000E-03 0.  1.
         11   -1    0    0    0    0 -0.00000000000E+00 -0.00000000000E+00 -0.45593999997E+02  0.45594000000E+02  0.51100000000E-03 0. -1.
    9900012    2    1    2    0    0 -0.34833819346E+02 -0.20962914496E+02  0.57248044806E+00  0.50528849882E+02  0.29999969702E+02 0.  0.
         12    1    1    2    0    0  0.34833819346E+02  0.20962914496E+02 -0.57248044806E+00  0.40659150118E+02  0.00000000000E+00 0. -1.
         11    1    3    3    0    0 -0.43792791798E+01  0.17230985446E+01 -0.87725754409E+00  0.47871427584E+01  0.51100000000E-03 0. -1.
        -11    1    3    3    0    0 -0.17801142027E+02 -0.26104568056E+02 -0.33722584839E+01  0.31775796739E+02  0.51100000000E-03 0.  1.
         12    1    3    3    0    0 -0.12653398140E+02  0.34185550148E+01  0.48219964761E+01  0.13965910385E+02  0.00000000000E+00 0. -1.
</event>
<event>
 7    1  0.2838209E-011  0.5052886E+02  0.7816164E-02  0.1300439E+00
        -11   -1    0    0    0    0  0.00000000000E+00  0.00000000000E+00  0.45593999997E+02  0.45594000000E+02  0.51100000000E-03 0.  1.
         11   -1    0    0    0    0 -0.00000000000E+00 -0.00000000000E+00 -0.45593999997E+02  0.45594000000E+02  0.51100000000E-03 0. -1.
    9900012    2    1    2    0    0  0.33577621010E+01 -0.17840811068E+02  0.36381270583E+02  0.50528856439E+02  0.29999989631E+02 0.  0.
         12    1    1    2    0    0 -0.33577621010E+01  0.17840811068E+02 -0.36381270583E+02  0.40659143561E+02  0.00000000000E+00 0. -1.
         11    1    3    3    0    0  0.93406942154E+01 -0.10505339893E+02  0.11184637219E+02  0.17964043105E+02  0.51100000000E-03 0. -1.
        -11    1    3    3    0    0  0.53280645497E+01 -0.66680956069E+01  0.66048779397E+01  0.10792413249E+02  0.51100000000E-03 0.  1.
         12    1    3    3    0    0 -0.11310996664E+02 -0.66737556802E+00  0.18591755425E+02  0.21772400085E+02  0.00000000000E+00 0. -1.
</event>
<event>
 7    1  0.2838209E-011  0.5052887E+02  0.7816164E-02  0.1300439E+00
        -11   -1    0    0    0    0  0.00000000000E+00  0.00000000000E+00  0.45593999997E+02  0.45594000000E+02  0.51100000000E-03 0.  1.
         11   -1    0    0    0    0 -0.00000000000E+00 -0.00000000000E+00 -0.45593999997E+02  0.45594000000E+02  0.51100000000E-03 0. -1.
    9900012    2    1    2    0    0 -0.20418208422E+02  0.28327399147E+02  0.20828348916E+02  0.50528869461E+02  0.30000029214E+02 0.  0.
         12    1    1    2    0    0  0.20418208422E+02 -0.28327399147E+02 -0.20828348916E+02  0.40659130539E+02  0.00000000000E+00 0. -1.
         11    1    3    3    0    0 -0.51101727026E+01  0.61741360553E+01  0.13748669521E+02  0.15914136324E+02  0.51100000000E-03 0. -1.
        -11    1    3    3    0    0 -0.11114519685E+02  0.13908918959E+02  0.14335993551E+02  0.22858505765E+02  0.51100000000E-03 0.  1.
         12    1    3    3    0    0 -0.41935160347E+01  0.82443441324E+01 -0.72563141560E+01  0.11756227373E+02  0.00000000000E+00 0. -1.
</event>
<event>
 7    1  0.2838209E-011  0.5052886E+02  0.7816164E-02  0.1300439E+00
        -11   -1    0    0    0    0  0.00000000000E+00  0.00000000000E+00  0.45593999997E+02  0.45594000000E+02  0.51100000000E-03 0.  1.
         11   -1    0    0    0    0 -0.00000000000E+00 -0.00000000000E+00 -0.45593999997E+02  0.45594000000E+02  0.51100000000E-03 0. -1.
    9900012    2    1    2    0    0  0.10757230601E+02 -0.39166515130E+02  0.18525473121E+01  0.50528857741E+02  0.29999993591E+02 0.  0.
         12    1    1    2    0    0 -0.10757230601E+02  0.39166515130E+02 -0.18525473121E+01  0.40659142259E+02  0.00000000000E+00 0. -1.
         11    1    3    3    0    0 -0.68172268633E+01 -0.52919849989E+01 -0.23474063065E+01  0.89437130971E+01  0.51100000000E-03 0.  1.
        -11    1    3    3    0    0  0.18702583711E+01  0.11921621527E+01 -0.15897330580E+01  0.27288034795E+01  0.51100000000E-03 0. -1.
        -12    1    3    3    0    0  0.15704199093E+02 -0.35066692284E+02  0.57896866766E+01  0.38856341165E+02  0.00000000000E+00 0.  1.
</event>
<event>
 7    1  0.2838209E-011  0.5052886E+02  0.7816164E-02  0.1300439E+00
        -11   -1    0    0    0    0  0.00000000000E+00  0.00000000000E+00  0.45593999997E+02  0.45594000000E+02  0.51100000000E-03 0.  1.
         11   -1    0    0    0    0 -0.00000000000E+00 -0.00000000000E+00 -0.45593999997E+02  0.45594000000E+02  0.51100000000E-03 0. -1.
    9900012    2    1    2    0    0 -0.69622250437E+01  0.15823280696E+02  0.36801046866E+02  0.50528857855E+02  0.29999993935E+02 0.  0.
         12    1    1    2    0    0  0.69622250437E+01 -0.15823280696E+02 -0.36801046866E+02  0.40659142145E+02  0.00000000000E+00 0. -1.
         11    1    3    3    0    0 -0.74478291737E+00 -0.34021264486E+01  0.19519471454E+02  0.19827731390E+02  0.51100000000E-03 0. -1.
        -11    1    3    3    0    0  0.16642370877E+01  0.33765095751E+01 -0.22153794820E+01  0.43678837560E+01  0.51100000000E-03 0.  1.
        -12    1    3    3    0    0 -0.78816792141E+01  0.15848897570E+02  0.19496954894E+02  0.26333242709E+02  0.00000000000E+00 0.  1.
</event>
<event>
 7    1  0.2838209E-011  0.5052887E+02  0.7816164E-02  0.1300439E+00
        -11   -1    0    0    0    0  0.00000000000E+00  0.00000000000E+00  0.45593999997E+02  0.45594000000E+02  0.51100000000E-03 0. -1.
         11   -1    0    0    0    0 -0.00000000000E+00 -0.00000000000E+00 -0.45593999997E+02  0.45594000000E+02  0.51100000000E-03 0.  1.
    9900012    2    1    2    0    0 -0.29025437816E+02 -0.13058977806E+02 -0.25301226928E+02  0.50528867867E+02  0.30000024368E+02 0.  0.
         12    1    1    2    0    0  0.29025437816E+02  0.13058977806E+02  0.25301226928E+02  0.40659132133E+02  0.00000000000E+00 0. -1.
         11    1    3    3    0    0 -0.14322993211E+02 -0.31283802033E+01 -0.16853284515E+02  0.22337593792E+02  0.51100000000E-03 0. -1.
        -11    1    3    3    0    0 -0.51404128083E+01 -0.21066258436E+01 -0.13686915486E+02  0.14771370013E+02  0.51100000000E-03 0.  1.
         12    1    3    3    0    0 -0.95620317967E+01 -0.78239717593E+01  0.52389730728E+01  0.13419904062E+02  0.00000000000E+00 0. -1.
</event>
<event>
 7    1  0.2838209E-011  0.5052886E+02  0.7816164E-02  0.1300439E+00
        -11   -1    0    0    0    0  0.00000000000E+00  0.00000000000E+00  0.45593999997E+02  0.45594000000E+02  0.51100000000E-03 0.  1.
         11   -1    0    0    0    0 -0.00000000000E+00 -0.00000000000E+00 -0.45593999997E+02  0.45594000000E+02  0.51100000000E-03 0. -1.
    9900012    2    1    2    0    0 -0.37823052705E+02 -0.13573619752E+02 -0.61918628879E+01  0.50528860374E+02  0.30000001594E+02 0.  0.
         12    1    1    2    0    0  0.37823052705E+02  0.13573619752E+02  0.61918628879E+01  0.40659139626E+02  0.00000000000E+00 0. -1.
         11    1    3    3    0    0  0.68771683148E+00 -0.37467106576E+01 -0.21958618623E+01  0.43968858038E+01  0.51100000000E-03 0. -1.
        -11    1    3    3    0    0 -0.44884011876E+01  0.20018815232E+01 -0.85130653322E+01  0.98298299306E+01  0.51100000000E-03 0.  1.
        -12    1    3    3    0    0 -0.34022368349E+02 -0.11828790617E+02  0.45170643065E+01  0.36302144640E+02  0.00000000000E+00 0.  1.
</event>
<event>
 7    1  0.2838209E-011  0.5052885E+02  0.7816164E-02  0.1300439E+00
        -11   -1    0    0    0    0  0.00000000000E+00  0.00000000000E+00  0.45593999997E+02  0.45594000000E+02  0.51100000000E-03 0.  1.
         11   -1    0    0    0    0 -0.00000000000E+00 -0.00000000000E+00 -0.45593999997E+02  0.45594000000E+02  0.51100000000E-03 0. -1.
    9900012    2    1    2    0    0 -0.88077731079E+01  0.32527004432E+02  0.22750459734E+02  0.50528852167E+02  0.29999976646E+02 0.  0.
         12    1    1    2    0    0  0.88077731079E+01 -0.32527004432E+02 -0.22750459734E+02  0.40659147833E+02  0.00000000000E+00 0. -1.
         11    1    3    3    0    0  0.16354490911E+00 -0.34232611922E+00 -0.25823209740E+00  0.45893157055E+00  0.51100000000E-03 0. -1.
        -11    1    3    3    0    0 -0.48910861183E+01  0.37745776307E+02  0.20533208141E+02  0.43246722295E+02  0.51100000000E-03 0.  1.
        -12    1    3    3    0    0 -0.40802318987E+01 -0.48764457560E+01  0.24754836898E+01  0.68231983012E+01  0.00000000000E+00 0.  1.
</event>
<event>
 7    1  0.2838209E-011  0.5052886E+02  0.7816164E-02  0.1300439E+00
        -11   -1    0    0    0    0  0.00000000000E+00  0.00000000000E+00  0.45593999997E+02  0.45594000000E+02  0.51100000000E-03 0.  1.
         11   -1    0    0    0    0 -0.00000000000E+00 -0.00000000000E+00 -0.45593999997E+02  0.45594000000E+02  0.51100000000E-03 0. -1.
    9900012    2    1    2    0    0 -0.30499360321E+02  0.44242276614E+01  0.26521329801E+02  0.50528859517E+02  0.29999998988E+02 0.  0.
         12    1    1    2    0    0  0.30499360321E+02 -0.44242276614E+01 -0.26521329801E+02  0.40659140483E+02  0.00000000000E+00 0. -1.
         11    1    3    3    0    0  0.25191077601E+00 -0.76193402809E+01  0.75536874775E+01  0.10732008206E+02  0.51100000000E-03 0. -1.
        -11    1    3    3    0    0 -0.40425189899E+01  0.60609416104E+01  0.63230094201E+01  0.96466274613E+01  0.51100000000E-03 0.  1.
        -12    1    3    3    0    0 -0.26708752108E+02  0.59826263319E+01  0.12644632903E+02  0.30150223850E+02  0.00000000000E+00 0.  1.
</event>
<event>
 7    1  0.2838209E-011  0.5052881E+02  0.7816164E-02  0.1300439E+00
        -11   -1    0    0    0    0  0.00000000000E+00  0.00000000000E+00  0.45593999997E+02  0.45594000000E+02  0.51100000000E-03 0.  1.
         11   -1    0    0    0    0 -0.00000000000E+00 -0.00000000000E+00 -0.45593999997E+02  0.45594000000E+02  0.51100000000E-03 0. -1.
    9900012    2    1    2    0    0  0.25760493390E+02 -0.15913672329E+02  0.27135253974E+02  0.50528806760E+02  0.29999838627E+02 0.  0.
         12    1    1    2    0    0 -0.25760493390E+02  0.15913672329E+02 -0.27135253974E+02  0.40659193240E+02  0.00000000000E+00 0. -1.
         11    1    3    3    0    0  0.44454388842E+01 -0.68543076738E+01  0.91888469345E+01  0.12295461309E+02  0.51100000000E-03 0. -1.
        -11    1    3    3    0    0  0.13158811476E+02 -0.17179331780E+02  0.15070229396E+02  0.26370354078E+02  0.51100000000E-03 0.  1.
         12    1    3    3    0    0  0.81562430300E+01  0.81199671251E+01  0.28761776436E+01  0.11862991373E+02  0.00000000000E+00 0. -1.
</event>
<event>
 7    1  0.2927721E-011  0.5052888E+02  0.7816164E-02  0.1300439E+00
        -11   -1    0    0    0    0  0.00000000000E+00  0.00000000000E+00  0.45593999997E+02  0.45594000000E+02  0.51100000000E-03 0.  1.
         11   -1    0    0    0    0 -0.00000000000E+00 -0.00000000000E+00 -0.45593999997E+02  0.45594000000E+02  0.51100000000E-03 0. -1.
    9900012    2    1    2    0    0 -0.25482491553E+02  0.27140768957E+02  0.16345811256E+02  0.50528877273E+02  0.30000052959E+02 0.  0.
         12    1    1    2    0    0  0.25482491553E+02 -0.27140768957E+02 -0.16345811256E+02  0.40659122727E+02  0.00000000000E+00 0. -1.
         11    1    3    3    0    0  0.32729070554E+01  0.15578773120E+01 -0.19504733011E+01  0.41162177630E+01  0.51100000000E-03 0. -1.
        -11    1    3    3    0    0 -0.40049361591E+01  0.29427156001E+01 -0.37907306156E+01  0.62504981884E+01  0.51100000000E-03 0.  1.
        -12    1    3    3    0    0 -0.24750462449E+02  0.22640176045E+02  0.22087015173E+02  0.40162161322E+02  0.00000000000E+00 0.  1.
</event>
<event>
 7    1  0.2838209E-011  0.5052886E+02  0.7816164E-02  0.1300439E+00
        -11   -1    0    0    0    0  0.00000000000E+00  0.00000000000E+00  0.45593999997E+02  0.45594000000E+02  0.51100000000E-03 0.  1.
         11   -1    0    0    0    0 -0.00000000000E+00 -0.00000000000E+00 -0.45593999997E+02  0.45594000000E+02  0.51100000000E-03 0. -1.
    9900012    2    1    2    0    0 -0.12343798095E+02 -0.36003519610E+02  0.14301860162E+02  0.50528856135E+02  0.29999988709E+02 0.  0.
         12    1    1    2    0    0  0.12343798095E+02  0.36003519610E+02 -0.14301860162E+02  0.40659143865E+02  0.00000000000E+00 0. -1.
         11    1    3    3    0    0  0.14450346988E+00 -0.18163991589E+02  0.11946976158E+01  0.18203812083E+02  0.51100000000E-03 0. -1.
        -11    1    3    3    0    0 -0.12768724478E+02 -0.97527014190E+01 -0.96084953635E+00  0.16095923144E+02  0.51100000000E-03 0.  1.
         12    1    3    3    0    0  0.28042291318E+00 -0.80868266017E+01  0.14068012082E+02  0.16229120908E+02  0.00000000000E+00 0. -1.
</event>
<event>
 7    1  0.2838209E-011  0.5052887E+02  0.7816164E-02  0.1300439E+00
        -11   -1    0    0    0    0  0.00000000000E+00  0.00000000000E+00  0.45593999997E+02  0.45594000000E+02  0.51100000000E-03 0.  1.
         11   -1    0    0    0    0 -0.00000000000E+00 -0.00000000000E+00 -0.45593999997E+02  0.45594000000E+02  0.51100000000E-03 0. -1.
    9900012    2    1    2    0    0  0.16236658146E+02  0.11701213486E+02  0.35392338467E+02  0.50528867115E+02  0.30000022083E+02 0.  0.
         12    1    1    2    0    0 -0.16236658146E+02 -0.11701213486E+02 -0.35392338467E+02  0.40659132885E+02  0.00000000000E+00 0. -1.
         11    1    3    3    0    0 -0.50813941286E+01  0.20919415781E+01  0.26225725775E+01  0.60888975226E+01  0.51100000000E-03 0. -1.
        -11    1    3    3    0    0  0.24850031903E+00  0.71806687487E+01  0.27704909821E+01  0.77006088481E+01  0.51100000000E-03 0.  1.
        -12    1    3    3    0    0  0.21069551956E+02  0.24286031587E+01  0.29999274907E+02  0.36739360744E+02  0.00000000000E+00 0.  1.
</event>
<event>
 7    1  0.2927127E-011  0.5052887E+02  0.7816164E-02  0.1300439E+00
        -11   -1    0    0    0    0  0.00000000000E+00  0.00000000000E+00  0.45593999997E+02  0.45594000000E+02  0.51100000000E-03 0.  1.
         11   -1    0    0    0    0 -0.00000000000E+00 -0.00000000000E+00 -0.45593999997E+02  0.45594000000E+02  0.51100000000E-03 0. -1.
    9900012    2    1    2    0    0  0.10696484363E+02 -0.38916333288E+02  0.49263604515E+01  0.50528870624E+02  0.30000032750E+02 0.  0.
         12    1    1    2    0    0 -0.10696484363E+02  0.38916333288E+02 -0.49263604515E+01  0.40659129376E+02  0.00000000000E+00 0. -1.
         11    1    3    3    0    0  0.25995704389E+00  0.18161752050E+01  0.53852773915E+01  0.56892251568E+01  0.51100000000E-03 0. -1.
        -11    1    3    3    0    0 -0.36201981244E+00 -0.80306115714E+01  0.57000624273E+01  0.98545670880E+01  0.51100000000E-03 0.  1.
        -12    1    3    3    0    0  0.10798547131E+02 -0.32701896921E+02 -0.61589793673E+01  0.34985078380E+02  0.00000000000E+00 0.  1.
</event>
<event>
 7    1  0.2838209E-011  0.5052887E+02  0.7816164E-02  0.1300439E+00
        -11   -1    0    0    0    0  0.00000000000E+00  0.00000000000E+00  0.45593999997E+02  0.45594000000E+02  0.51100000000E-03 0.  1.
         11   -1    0    0    0    0 -0.00000000000E+00 -0.00000000000E+00 -0.45593999997E+02  0.45594000000E+02  0.51100000000E-03 0. -1.
    9900012    2    1    2    0    0 -0.23481812749E+02  0.33031466342E+02  0.32697989327E+01  0.50528869614E+02  0.30000029678E+02 0.  0.
         12    1    1    2    0    0  0.23481812749E+02 -0.33031466342E+02 -0.32697989327E+01  0.40659130386E+02  0.00000000000E+00 0. -1.
         11    1    3    3    0    0  0.22704838241E+01  0.52074503585E+01 -0.12602301628E+01  0.58190047565E+01  0.51100000000E-03 0. -1.
        -11    1    3    3    0    0 -0.97029249833E+00  0.15927896282E+01  0.82259562349E+01  0.84347378484E+01  0.51100000000E-03 0.  1.
         12    1    3    3    0    0 -0.24782004075E+02  0.26231226355E+02 -0.36959271394E+01  0.36275127009E+02  0.00000000000E+00 0. -1.
</event>
<event>
 7    1  0.2838209E-011  0.5052886E+02  0.7816164E-02  0.1300439E+00
        -11   -1    0    0    0    0  0.00000000000E+00  0.00000000000E+00  0.45593999997E+02  0.45594000000E+02  0.51100000000E-03 0.  1.
         11   -1    0    0    0    0 -0.00000000000E+00 -0.00000000000E+00 -0.45593999997E+02  0.45594000000E+02  0.51100000000E-03 0. -1.
    9900012    2    1    2    0    0  0.12264838763E+02  0.38765117461E+02  0.72072176008E-01  0.50528858395E+02  0.29999995578E+02 0.  0.
         12    1    1    2    0    0 -0.12264838763E+02 -0.38765117461E+02 -0.72072176008E-01  0.40659141605E+02  0.00000000000E+00 0. -1.
         11    1    3    3    0    0  0.45072782232E+01  0.33976167965E+01  0.87413829674E+01  0.10405341576E+02  0.51100000000E-03 0. -1.
        -11    1    3    3    0    0  0.11965984696E+02  0.20633585303E+02 -0.51953586841E+01  0.24411501067E+02  0.51100000000E-03 0.  1.
         12    1    3    3    0    0 -0.42084241562E+01  0.14733915361E+02 -0.34739521073E+01  0.15712015752E+02  0.00000000000E+00 0. -1.
</event>
<event>
 7    1  0.2838209E-011  0.5052886E+02  0.7816164E-02  0.1300439E+00
        -11   -1    0    0    0    0  0.00000000000E+00  0.00000000000E+00  0.45593999997E+02  0.45594000000E+02  0.51100000000E-03 0.  1.
         11   -1    0    0    0    0 -0.00000000000E+00 -0.00000000000E+00 -0.45593999997E+02  0.45594000000E+02  0.51100000000E-03 0. -1.
    9900012    2    1    2    0    0  0.11082928117E+02 -0.39107856601E+02 -0.95408035086E+00  0.50528855729E+02  0.29999987472E+02 0.  0.
         12    1    1    2    0    0 -0.11082928117E+02  0.39107856601E+02  0.95408035086E+00  0.40659144271E+02  0.00000000000E+00 0. -1.
         11    1    3    3    0    0  0.23177218526E+01 -0.99214659391E+00 -0.21447351530E+01  0.33099967654E+01  0.51100000000E-03 0. -1.
        -11    1    3    3    0    0  0.11400683699E+02 -0.27489171014E+01  0.74807704645E+00  0.11751244766E+02  0.51100000000E-03 0.  1.
        -12    1    3    3    0    0 -0.26354774345E+01 -0.35366792906E+02  0.44257775566E+00  0.35467614197E+02  0.00000000000E+00 0.  1.
</event>
<event>
 7    1  0.2838209E-011  0.5052887E+02  0.7816164E-02  0.1300439E+00
        -11   -1    0    0    0    0  0.00000000000E+00  0.00000000000E+00  0.45593999997E+02  0.45594000000E+02  0.51100000000E-03 0.  1.
         11   -1    0    0    0    0 -0.00000000000E+00 -0.00000000000E+00 -0.45593999997E+02  0.45594000000E+02  0.51100000000E-03 0. -1.
    9900012    2    1    2    0    0 -0.11522816453E+02  0.37391317519E+02  0.11057965333E+02  0.50528874061E+02  0.30000043197E+02 0.  0.
         12    1    1    2    0    0  0.11522816453E+02 -0.37391317519E+02 -0.11057965333E+02  0.40659125939E+02  0.00000000000E+00 0. -1.
         11    1    3    3    0    0  0.19148577498E+01  0.17849818157E+01 -0.13155961056E+01  0.29297838928E+01  0.51100000000E-03 0. -1.
        -11    1    3    3    0    0  0.24542463859E+01  0.27125278940E+02  0.33174399946E+01  0.27437373986E+02  0.51100000000E-03 0.  1.
         12    1    3    3    0    0 -0.15891920588E+02  0.84810567633E+01  0.90561214438E+01  0.20161716182E+02  0.00000000000E+00 0. -1.
</event>
<event>
 7    1  0.2838209E-011  0.5052897E+02  0.7816164E-02  0.1300438E+00
        -11   -1    0    0    0    0  0.00000000000E+00  0.00000000000E+00  0.45593999997E+02  0.45594000000E+02  0.51100000000E-03 0. -1.
         11   -1    0    0    0    0 -0.00000000000E+00 -0.00000000000E+00 -0.45593999997E+02  0.45594000000E+02  0.51100000000E-03 0.  1.
    9900012    2    1    2    0    0 -0.18312020573E+02 -0.17252632355E+02 -0.31940150556E+02  0.50528971013E+02  0.30000337890E+02 0.  0.
         12    1    1    2    0    0  0.18312020573E+02  0.17252632355E+02  0.31940150556E+02  0.40659028987E+02  0.00000000000E+00 0. -1.
         11    1    3    3    0    0 -0.49483407042E+01 -0.61723217177E+00  0.15049588682E+01  0.52088341051E+01  0.51100000000E-03 0. -1.
        -11    1    3    3    0    0 -0.14691910414E+02 -0.37383880405E+01 -0.89485413698E+01  0.17604095253E+02  0.51100000000E-03 0.  1.
        -12    1    3    3    0    0  0.13282305461E+01 -0.12897012143E+02 -0.24496568054E+02  0.27716041655E+02  0.00000000000E+00 0.  1.
</event>
<event>
 7    1  0.2838209E-011  0.5052881E+02  0.7816164E-02  0.1300439E+00
        -11   -1    0    0    0    0  0.00000000000E+00  0.00000000000E+00  0.45593999997E+02  0.45594000000E+02  0.51100000000E-03 0.  1.
         11   -1    0    0    0    0 -0.00000000000E+00 -0.00000000000E+00 -0.45593999997E+02  0.45594000000E+02  0.51100000000E-03 0. -1.
    9900012    2    1    2    0    0  0.31597309521E+02  0.12063630744E+02  0.22566536986E+02  0.50528809806E+02  0.29999847885E+02 0.  0.
         12    1    1    2    0    0 -0.31597309521E+02 -0.12063630744E+02 -0.22566536986E+02  0.40659190194E+02  0.00000000000E+00 0. -1.
         11    1    3    3    0    0  0.27505849406E+01 -0.14321153250E+01 -0.74229731079E-01  0.31019642380E+01  0.51100000000E-03 0. -1.
        -11    1    3    3    0    0  0.27876526600E+02  0.56364829132E+01  0.60989531862E+01  0.29087246435E+02  0.51100000000E-03 0.  1.
         12    1    3    3    0    0  0.97019798040E+00  0.78592631559E+01  0.16541813531E+02  0.18339599133E+02  0.00000000000E+00 0. -1.
</event>
<event>
 7    1  0.2838209E-011  0.5052886E+02  0.7816164E-02  0.1300439E+00
        -11   -1    0    0    0    0  0.00000000000E+00  0.00000000000E+00  0.45593999997E+02  0.45594000000E+02  0.51100000000E-03 0. -1.
         11   -1    0    0    0    0 -0.00000000000E+00 -0.00000000000E+00 -0.45593999997E+02  0.45594000000E+02  0.51100000000E-03 0.  1.
    9900012    2    1    2    0    0 -0.31500850142E+02  0.15725139329E+02 -0.20336715644E+02  0.50528861178E+02  0.30000004035E+02 0.  0.
         12    1    1    2    0    0  0.31500850142E+02 -0.15725139329E+02  0.20336715644E+02  0.40659138822E+02  0.00000000000E+00 0. -1.
         11    1    3    3    0    0 -0.38462710222E+01  0.13844347710E+02  0.17213615409E+00  0.14369738878E+02  0.51100000000E-03 0. -1.
        -11    1    3    3    0    0 -0.30526805248E+01  0.40579052119E+01 -0.32665556603E+01  0.60378671100E+01  0.51100000000E-03 0.  1.
        -12    1    3    3    0    0 -0.24601898595E+02 -0.21771135936E+01 -0.17242296138E+02  0.30121255190E+02  0.00000000000E+00 0.  1.
</event>
<event>
 7    1  0.2838209E-011  0.5052886E+02  0.7816164E-02  0.1300439E+00
        -11   -1    0    0    0    0  0.00000000000E+00  0.00000000000E+00  0.45593999997E+02  0.45594000000E+02  0.51100000000E-03 0. -1.
         11   -1    0    0    0    0 -0.00000000000E+00 -0.00000000000E+00 -0.45593999997E+02  0.45594000000E+02  0.51100000000E-03 0.  1.
    9900012    2    1    2    0    0 -0.10845061580E+02 -0.39182436178E+02 -0.53594196226E+00  0.50528857125E+02  0.29999991719E+02 0.  0.
         12    1    1    2    0    0  0.10845061580E+02  0.39182436178E+02  0.53594196226E+00  0.40659142875E+02  0.00000000000E+00 0. -1.
         11    1    3    3    0    0 -0.10889493169E+02 -0.22488811910E+02  0.13295076495E+02  0.28303476498E+02  0.51100000000E-03 0. -1.
        -11    1    3    3    0    0 -0.14374132241E+01 -0.23095262296E+01 -0.10160955580E+01  0.29038799263E+01  0.51100000000E-03 0.  1.
         12    1    3    3    0    0  0.14818448129E+01 -0.14384098038E+02 -0.12814922900E+02  0.19321500701E+02  0.00000000000E+00 0. -1.
</event>
<event>
 7    1  0.2838209E-011  0.5052881E+02  0.7816164E-02  0.1300439E+00
        -11   -1    0    0    0    0  0.00000000000E+00  0.00000000000E+00  0.45593999997E+02  0.45594000000E+02  0.51100000000E-03 0. -1.
         11   -1    0    0    0    0 -0.00000000000E+00 -0.00000000000E+00 -0.45593999997E+02  0.45594000000E+02  0.51100000000E-03 0.  1.
    9900012    2    1    2    0    0  0.38472145363E+02  0.10239769854E+02 -0.82590099858E+01  0.50528805450E+02  0.29999834646E+02 0.  0.
         12    1    1    2    0    0 -0.38472145363E+02 -0.10239769854E+02  0.82590099858E+01  0.40659194550E+02  0.00000000000E+00 0. -1.
         11    1    3    3    0    0  0.13413410940E+02  0.87924479765E+01 -0.93521036245E+01  0.18565790501E+02  0.51100000000E-03 0. -1.
        -11    1    3    3    0    0  0.43506863739E+01  0.29681055319E+01 -0.77699528253E+01  0.93867081313E+01  0.51100000000E-03 0.  1.
         12    1    3    3    0    0  0.20708048049E+02 -0.15207836544E+01  0.88630464640E+01  0.22576306818E+02  0.00000000000E+00 0. -1.
</event>
<event>
 7    1  0.2838209E-011  0.5052887E+02  0.7816164E-02  0.1300439E+00
        -11   -1    0    0    0    0  0.00000000000E+00  0.00000000000E+00  0.45593999997E+02  0.45594000000E+02  0.51100000000E-03 0. -1.
         11   -1    0    0    0    0 -0.00000000000E+00 -0.00000000000E+00 -0.45593999997E+02  0.45594000000E+02  0.51100000000E-03 0.  1.
    9900012    2    1    2    0    0 -0.10328639430E+02 -0.35522786002E+02 -0.16870565408E+02  0.50528867016E+02  0.30000021781E+02 0.  0.
         12    1    1    2    0    0  0.10328639430E+02  0.35522786002E+02  0.16870565408E+02  0.40659132984E+02  0.00000000000E+00 0. -1.
         11    1    3    3    0    0 -0.66532166944E+01 -0.46375729031E+01 -0.29823551141E+01  0.86409963026E+01  0.51100000000E-03 0. -1.
        -11    1    3    3    0    0 -0.11140317755E+02 -0.66356026337E+01 -0.96504450877E+01  0.16163817391E+02  0.51100000000E-03 0.  1.
        -12    1    3    3    0    0  0.74648950192E+01 -0.24249610466E+02 -0.42377652066E+01  0.25724053322E+02  0.00000000000E+00 0.  1.
</event>
<event>
 7    1  0.2838209E-011  0.5052886E+02  0.7816164E-02  0.1300439E+00
        -11   -1    0    0    0    0  0.00000000000E+00  0.00000000000E+00  0.45593999997E+02  0.45594000000E+02  0.51100000000E-03 0. -1.
         11   -1    0    0    0    0 -0.00000000000E+00 -0.00000000000E+00 -0.45593999997E+02  0.45594000000E+02  0.51100000000E-03 0.  1.
    9900012    2    1    2    0    0  0.17975723339E+01 -0.38649184359E+02  0.12497009288E+02  0.50528856391E+02  0.29999989485E+02 0.  0.
         12    1    1    2    0    0 -0.17975723339E+01  0.38649184359E+02 -0.12497009288E+02  0.40659143609E+02  0.00000000000E+00 0. -1.
         11    1    3    3    0    0 -0.26477253612E-01 -0.20296376653E+02  0.13017129095E+02  0.24112014773E+02  0.51100000000E-03 0. -1.
        -11    1    3    3    0    0 -0.45981143697E+01 -0.14216177759E+02  0.62629942576E+01  0.16200847607E+02  0.51100000000E-03 0.  1.
         12    1    3    3    0    0  0.64221639571E+01 -0.41366299464E+01 -0.67831140650E+01  0.10215994011E+02  0.00000000000E+00 0. -1.
</event>
<event>
 7    1  0.2838209E-011  0.5052886E+02  0.7816164E-02  0.1300439E+00
        -11   -1    0    0    0    0  0.00000000000E+00  0.00000000000E+00  0.45593999997E+02  0.45594000000E+02  0.51100000000E-03 0. -1.
         11   -1    0    0    0    0 -0.00000000000E+00 -0.00000000000E+00 -0.45593999997E+02  0.45594000000E+02  0.51100000000E-03 0.  1.
    9900012    2    1    2    0    0  0.12364157163E+02  0.22225823012E+02 -0.31722330949E+02  0.50528857464E+02  0.29999992748E+02 0.  0.
         12    1    1    2    0    0 -0.12364157163E+02 -0.22225823012E+02  0.31722330949E+02  0.40659142536E+02  0.00000000000E+00 0. -1.
         11    1    3    3    0    0  0.19869980581E+01 -0.43535405591E+01 -0.54372878608E+01  0.72433125174E+01  0.51100000000E-03 0. -1.
        -11    1    3    3    0    0  0.13496351216E+02  0.20689534838E+02 -0.26984962758E+02  0.36584102603E+02  0.51100000000E-03 0.  1.
         12    1    3    3    0    0 -0.31191921116E+01  0.58898287334E+01  0.69991967017E+00  0.67014423435E+01  0.00000000000E+00 0. -1.
</event>
<event>
 7    1  0.2838209E-011  0.5052891E+02  0.7816164E-02  0.1300439E+00
        -11   -1    0    0    0    0  0.00000000000E+00  0.00000000000E+00  0.45593999997E+02  0.45594000000E+02  0.51100000000E-03 0.  1.
         11   -1    0    0    0    0 -0.00000000000E+00 -0.00000000000E+00 -0.45593999997E+02  0.45594000000E+02  0.51100000000E-03 0. -1.
    9900012    2    1    2    0    0  0.15689878902E+02  0.15553860470E+02  0.34133075465E+02  0.50528908567E+02  0.30000148080E+02 0.  0.
         12    1    1    2    0    0 -0.15689878902E+02 -0.15553860470E+02 -0.34133075465E+02  0.40659091433E+02  0.00000000000E+00 0. -1.
         11    1    3    3    0    0  0.43256573863E+01  0.78049462267E+01  0.19388482007E+01  0.91316827601E+01  0.51100000000E-03 0. -1.
        -11    1    3    3    0    0  0.30791895153E+01  0.10998781180E+02  0.30184935302E+02  0.32273594702E+02  0.51100000000E-03 0.  1.
         12    1    3    3    0    0  0.82850320000E+01 -0.32498669373E+01  0.20092919617E+01  0.91236311049E+01  0.00000000000E+00 0. -1.
</event>
<event>
 7    1  0.2838209E-011  0.5052885E+02  0.7816164E-02  0.1300439E+00
        -11   -1    0    0    0    0  0.00000000000E+00  0.00000000000E+00  0.45593999997E+02  0.45594000000E+02  0.51100000000E-03 0.  1.
         11   -1    0    0    0    0 -0.00000000000E+00 -0.00000000000E+00 -0.45593999997E+02  0.45594000000E+02  0.51100000000E-03 0. -1.
    9900012    2    1    2    0    0 -0.27371871923E+02 -0.72762120103E+01  0.29171966764E+02  0.50528852460E+02  0.29999977537E+02 0.  0.
         12    1    1    2    0    0  0.27371871923E+02  0.72762120103E+01 -0.29171966764E+02  0.40659147540E+02  0.00000000000E+00 0. -1.
         11    1    3    3    0    0 -0.32235050630E+01  0.43753634725E+01  0.96645122534E+00  0.55198567590E+01  0.51100000000E-03 0. -1.
        -11    1    3    3    0    0 -0.16617195049E+02  0.45148120832E+01  0.13078908981E+02  0.21623426181E+02  0.51100000000E-03 0.  1.
        -12    1    3    3    0    0 -0.75311718115E+01 -0.16166387566E+02  0.15126606558E+02  0.23385569519E+02  0.00000000000E+00 0.  1.
</event>
<event>
 7    1  0.2838209E-011  0.5052886E+02  0.7816164E-02  0.1300439E+00
        -11   -1    0    0    0    0  0.00000000000E+00  0.00000000000E+00  0.45593999997E+02  0.45594000000E+02  0.51100000000E-03 0.  1.
         11   -1    0    0    0    0 -0.00000000000E+00 -0.00000000000E+00 -0.45593999997E+02  0.45594000000E+02  0.51100000000E-03 0. -1.
    9900012    2    1    2    0    0 -0.31914102113E+02 -0.11151859811E+02  0.22589641488E+02  0.50528858426E+02  0.29999995673E+02 0.  0.
         12    1    1    2    0    0  0.31914102113E+02  0.11151859811E+02 -0.22589641488E+02  0.40659141574E+02  0.00000000000E+00 0. -1.
         11    1    3    3    0    0 -0.19699451123E+02  0.42097059775E+01  0.11620465608E+02  0.23255649209E+02  0.51100000000E-03 0. -1.
        -11    1    3    3    0    0 -0.29098502250E+01  0.25229111138E+01 -0.79379723991E+00  0.39322287750E+01  0.51100000000E-03 0.  1.
        -12    1    3    3    0    0 -0.93048007657E+01 -0.17884476902E+02  0.11762973120E+02  0.23340980442E+02  0.00000000000E+00 0.  1.
</event>
