<event>
 7    1  0.5761011E-013  0.5930197E+02  0.7816164E-02  0.1266605E+00
        -11   -1    0    0    0    0  0.00000000000E+00  0.00000000000E+00  0.45593999997E+02  0.45594000000E+02  0.51100000000E-03 0. -1.
         11   -1    0    0    0    0 -0.00000000000E+00 -0.00000000000E+00 -0.45593999997E+02  0.45594000000E+02  0.51100000000E-03 0.  1.
    9900012    2    1    2    0    0  0.13577191223E+02  0.83459294540E+01  0.27617467308E+02  0.59301966059E+02  0.50000040180E+02 0.  0.
        -12    1    1    2    0    0 -0.13577191223E+02 -0.83459294540E+01 -0.27617467308E+02  0.31886033941E+02  0.00000000000E+00 0.  1.
         11    1    3    3    0    0  0.57721628411E+01  0.21224353182E+02  0.76816010285E+01  0.23298026236E+02  0.51100000000E-03 0. -1.
        -11    1    3    3    0    0 -0.74490171570E+01 -0.12194709626E+02  0.66401819502E+01  0.15757246462E+02  0.51100000000E-03 0.  1.
         12    1    3    3    0    0  0.15254045539E+02 -0.68371410144E+00  0.13295684329E+02  0.20246693361E+02  0.00000000000E+00 0. -1.
</event>
<event>
 7    1  0.5761011E-013  0.5930193E+02  0.7816164E-02  0.1266605E+00
        -11   -1    0    0    0    0  0.00000000000E+00  0.00000000000E+00  0.45593999997E+02  0.45594000000E+02  0.51100000000E-03 0.  1.
         11   -1    0    0    0    0 -0.00000000000E+00 -0.00000000000E+00 -0.45593999997E+02  0.45594000000E+02  0.51100000000E-03 0. -1.
    9900012    2    1    2    0    0  0.40172643803E+01 -0.21927699325E+02 -0.22798231434E+02  0.59301925182E+02  0.49999965630E+02 0.  0.
        -12    1    1    2    0    0 -0.40172643803E+01  0.21927699325E+02  0.22798231434E+02  0.31886074818E+02  0.00000000000E+00 0.  1.
         11    1    3    3    0    0 -0.11322110003E+02 -0.30895846880E+02 -0.19156551869E+02  0.38075149496E+02  0.51100000000E-03 0. -1.
        -11    1    3    3    0    0  0.16528433560E+02  0.97834695429E+01 -0.42340937310E+01  0.19668069103E+02  0.51100000000E-03 0.  1.
        -12    1    3    3    0    0 -0.11890591762E+01 -0.81532198840E+00  0.59241416630E+00  0.15587065836E+01  0.00000000000E+00 0.  1.
</event>
<event>
 7    1  0.5761011E-013  0.5930198E+02  0.7816164E-02  0.1266605E+00
        -11   -1    0    0    0    0  0.00000000000E+00  0.00000000000E+00  0.45593999997E+02  0.45594000000E+02  0.51100000000E-03 0.  1.
         11   -1    0    0    0    0 -0.00000000000E+00 -0.00000000000E+00 -0.45593999997E+02  0.45594000000E+02  0.51100000000E-03 0. -1.
    9900012    2    1    2    0    0  0.12869608573E+02 -0.87878252052E+00 -0.29160236978E+02  0.59301976351E+02  0.50000058949E+02 0.  0.
        -12    1    1    2    0    0 -0.12869608573E+02  0.87878252052E+00  0.29160236978E+02  0.31886023649E+02  0.00000000000E+00 0.  1.
         11    1    3    3    0    0  0.22112708729E+02  0.85649718372E+01 -0.33117301135E+02  0.40731882656E+02  0.51100000000E-03 0. -1.
        -11    1    3    3    0    0  0.24361715754E+01 -0.15006188923E+01  0.33875432571E+01  0.44342122845E+01  0.51100000000E-03 0.  1.
         12    1    3    3    0    0 -0.11679271731E+02 -0.79431354654E+01  0.56952090014E+00  0.14135881411E+02  0.00000000000E+00 0. -1.
</event>
<event>
 7    1  0.5761011E-013  0.5930192E+02  0.7816164E-02  0.1266605E+00
        -11   -1    0    0    0    0  0.00000000000E+00  0.00000000000E+00  0.45593999997E+02  0.45594000000E+02  0.51100000000E-03 0. -1.
         11   -1    0    0    0    0 -0.00000000000E+00 -0.00000000000E+00 -0.45593999997E+02  0.45594000000E+02  0.51100000000E-03 0.  1.
    9900012    2    1    2    0    0 -0.13620156821E+02 -0.60013343549E+01  0.28199244656E+02  0.59301920200E+02  0.49999956544E+02 0.  0.
        -12    1    1    2    0    0  0.13620156821E+02  0.60013343549E+01 -0.28199244656E+02  0.31886079800E+02  0.00000000000E+00 0.  1.
         11    1    3    3    0    0  0.12578629714E+02 -0.59700120595E+01  0.24255274628E+02  0.27967504661E+02  0.51100000000E-03 0. -1.
        -11    1    3    3    0    0 -0.26286048989E+02  0.37375297270E+01  0.10313343056E+01  0.26570456349E+02  0.51100000000E-03 0.  1.
        -12    1    3    3    0    0  0.87262454466E-01 -0.37688520225E+01  0.29126357226E+01  0.47639591892E+01  0.00000000000E+00 0.  1.
</event>
<event>
 7    1  0.5761011E-013  0.5930193E+02  0.7816164E-02  0.1266605E+00
        -11   -1    0    0    0    0  0.00000000000E+00  0.00000000000E+00  0.45593999997E+02  0.45594000000E+02  0.51100000000E-03 0. -1.
         11   -1    0    0    0    0 -0.00000000000E+00 -0.00000000000E+00 -0.45593999997E+02  0.45594000000E+02  0.51100000000E-03 0.  1.
    9900012    2    1    2    0    0  0.13885695291E+02 -0.28261849871E+02  0.50176664804E+01  0.59301926727E+02  0.49999968448E+02 0.  0.
        -12    1    1    2    0    0 -0.13885695291E+02  0.28261849871E+02 -0.50176664804E+01  0.31886073273E+02  0.00000000000E+00 0.  1.
         11    1    3    3    0    0  0.20507802874E+01  0.10875397216E+02  0.60291895369E+01  0.12602820761E+02  0.51100000000E-03 0.  1.
        -11    1    3    3    0    0  0.54326339847E+00 -0.16700583601E+02  0.97800641690E+01  0.19361153973E+02  0.51100000000E-03 0. -1.
        -12    1    3    3    0    0  0.11291651605E+02 -0.22436663486E+02 -0.10791587226E+02  0.27337951994E+02  0.00000000000E+00 0.  1.
</event>
<event>
 7    1  0.5761011E-013  0.5930191E+02  0.7816164E-02  0.1266605E+00
        -11   -1    0    0    0    0  0.00000000000E+00  0.00000000000E+00  0.45593999997E+02  0.45594000000E+02  0.51100000000E-03 0. -1.
         11   -1    0    0    0    0 -0.00000000000E+00 -0.00000000000E+00 -0.45593999997E+02  0.45594000000E+02  0.51100000000E-03 0.  1.
    9900012    2    1    2    0    0 -0.63614672355E+00 -0.30551132352E+02 -0.91074720431E+01  0.59301914984E+02  0.49999947030E+02 0.  0.
        -12    1    1    2    0    0  0.63614672355E+00  0.30551132352E+02  0.91074720431E+01  0.31886085016E+02  0.00000000000E+00 0.  1.
         11    1    3    3    0    0  0.21247474024E+02 -0.68793375899E+01  0.60229696625E+00  0.22341512929E+02  0.51100000000E-03 0. -1.
        -11    1    3    3    0    0 -0.36524346487E+01 -0.11117911987E+02 -0.90869493050E+01  0.14816237503E+02  0.51100000000E-03 0.  1.
         12    1    3    3    0    0 -0.18231186099E+02 -0.12553882775E+02 -0.62281970432E+00  0.22144164551E+02  0.00000000000E+00 0. -1.
</event>
<event>
 7    1  0.5761011E-013  0.5930192E+02  0.7816164E-02  0.1266605E+00
        -11   -1    0    0    0    0  0.00000000000E+00  0.00000000000E+00  0.45593999997E+02  0.45594000000E+02  0.51100000000E-03 0.  1.
         11   -1    0    0    0    0 -0.00000000000E+00 -0.00000000000E+00 -0.45593999997E+02  0.45594000000E+02  0.51100000000E-03 0. -1.
    9900012    2    1    2    0    0  0.14080461573E+01  0.26015449502E+02 -0.18383032056E+02  0.59301920367E+02  0.49999956849E+02 0.  0.
        -12    1    1    2    0    0 -0.14080461573E+01 -0.26015449502E+02  0.18383032056E+02  0.31886079633E+02  0.00000000000E+00 0.  1.
         11    1    3    3    0    0  0.71100525107E+01  0.24584948559E+01 -0.25756533076E+02  0.26832741940E+02  0.51100000000E-03 0. -1.
        -11    1    3    3    0    0  0.19410513761E+01  0.74769052436E+01  0.11818080075E+02  0.14118739653E+02  0.51100000000E-03 0.  1.
        -12    1    3    3    0    0 -0.76430577295E+01  0.16080049402E+02 -0.44445790548E+01  0.18350438775E+02  0.00000000000E+00 0.  1.
</event>
<event>
 7    1  0.5761011E-013  0.5930192E+02  0.7816164E-02  0.1266605E+00
        -11   -1    0    0    0    0  0.00000000000E+00  0.00000000000E+00  0.45593999997E+02  0.45594000000E+02  0.51100000000E-03 0. -1.
         11   -1    0    0    0    0 -0.00000000000E+00 -0.00000000000E+00 -0.45593999997E+02  0.45594000000E+02  0.51100000000E-03 0.  1.
    9900012    2    1    2    0    0  0.18489335059E+02 -0.86309752949E+01 -0.24502502935E+02  0.59301923171E+02  0.49999961963E+02 0.  0.
        -12    1    1    2    0    0 -0.18489335059E+02  0.86309752949E+01  0.24502502935E+02  0.31886076829E+02  0.00000000000E+00 0.  1.
         11    1    3    3    0    0  0.82039347682E+01  0.51546921732E+01 -0.15175696306E+02  0.18004920319E+02  0.51100000000E-03 0.  1.
        -11    1    3    3    0    0  0.15084304269E+02 -0.10322433200E+01  0.96485176595E+01  0.17935876194E+02  0.51100000000E-03 0. -1.
        -12    1    3    3    0    0 -0.47989039777E+01 -0.12753424148E+02 -0.18975324289E+02  0.23361126658E+02  0.00000000000E+00 0.  1.
</event>
<event>
 7    1  0.5761011E-013  0.5930192E+02  0.7816164E-02  0.1266605E+00
        -11   -1    0    0    0    0  0.00000000000E+00  0.00000000000E+00  0.45593999997E+02  0.45594000000E+02  0.51100000000E-03 0.  1.
         11   -1    0    0    0    0 -0.00000000000E+00 -0.00000000000E+00 -0.45593999997E+02  0.45594000000E+02  0.51100000000E-03 0. -1.
    9900012    2    1    2    0    0  0.16829359824E+02 -0.21742269864E+02 -0.16148326579E+02  0.59301919930E+02  0.49999956051E+02 0.  0.
        -12    1    1    2    0    0 -0.16829359824E+02  0.21742269864E+02  0.16148326579E+02  0.31886080070E+02  0.00000000000E+00 0.  1.
         11    1    3    3    0    0  0.13503078375E+02 -0.87744635623E+01 -0.14531568099E+02  0.21690800080E+02  0.51100000000E-03 0. -1.
        -11    1    3    3    0    0 -0.98999758338E+01 -0.63188235702E+01  0.12502664522E+02  0.17153823866E+02  0.51100000000E-03 0.  1.
        -12    1    3    3    0    0  0.13226257283E+02 -0.66489827320E+01 -0.14119423001E+02  0.20457295984E+02  0.00000000000E+00 0.  1.
</event>
<event>
 7    1  0.5761011E-013  0.5930192E+02  0.7816164E-02  0.1266605E+00
        -11   -1    0    0    0    0  0.00000000000E+00  0.00000000000E+00  0.45593999997E+02  0.45594000000E+02  0.51100000000E-03 0.  1.
         11   -1    0    0    0    0 -0.00000000000E+00 -0.00000000000E+00 -0.45593999997E+02  0.45594000000E+02  0.51100000000E-03 0. -1.
    9900012    2    1    2    0    0 -0.16734662231E+02  0.22091743149E+02 -0.15767947573E+02  0.59301918302E+02  0.49999953083E+02 0.  0.
        -12    1    1    2    0    0  0.16734662231E+02 -0.22091743149E+02  0.15767947573E+02  0.31886081698E+02  0.00000000000E+00 0.  1.
         11    1    3    3    0    0  0.97086717272E+00  0.46566925677E+00 -0.37063559284E+01  0.38595991311E+01  0.51100000000E-03 0. -1.
        -11    1    3    3    0    0 -0.89101010706E+01  0.35142125112E+02 -0.17394670337E+01  0.36295793204E+02  0.51100000000E-03 0.  1.
        -12    1    3    3    0    0 -0.87954283329E+01 -0.13516051220E+02 -0.10322124611E+02  0.19146525967E+02  0.00000000000E+00 0.  1.
</event>
<event>
 7    1  0.5761011E-013  0.5930192E+02  0.7816164E-02  0.1266605E+00
        -11   -1    0    0    0    0  0.00000000000E+00  0.00000000000E+00  0.45593999997E+02  0.45594000000E+02  0.51100000000E-03 0.  1.
         11   -1    0    0    0    0 -0.00000000000E+00 -0.00000000000E+00 -0.45593999997E+02  0.45594000000E+02  0.51100000000E-03 0. -1.
    9900012    2    1    2    0    0  0.15213486792E+02  0.20917015811E+02 -0.18648060815E+02  0.59301923055E+02  0.49999961751E+02 0.  0.
        -12    1    1    2    0    0 -0.15213486792E+02 -0.20917015811E+02  0.18648060815E+02  0.31886076945E+02  0.00000000000E+00 0.  1.
         11    1    3    3    0    0  0.27996336922E+02  0.16908027745E+02 -0.56174331641E+01  0.33184813377E+02  0.51100000000E-03 0. -1.
        -11    1    3    3    0    0 -0.11431395430E+02 -0.22281455382E+01 -0.43428213030E-01  0.11646601233E+02  0.51100000000E-03 0.  1.
        -12    1    3    3    0    0 -0.13514547010E+01  0.62371336046E+01 -0.12987199437E+02  0.14470508444E+02  0.00000000000E+00 0.  1.
</event>
<event>
 7    1  0.9355329E-013  0.5930192E+02  0.7816164E-02  0.1266605E+00
        -11   -1    0    0    0    0  0.00000000000E+00  0.00000000000E+00  0.45593999997E+02  0.45594000000E+02  0.51100000000E-03 0. -1.
         11   -1    0    0    0    0 -0.00000000000E+00 -0.00000000000E+00 -0.45593999997E+02  0.45594000000E+02  0.51100000000E-03 0.  1.
    9900012    2    1    2    0    0 -0.18004530050E+02  0.14368412218E+02  0.22047855350E+02  0.59301916868E+02  0.49999950466E+02 0.  0.
        -12    1    1    2    0    0  0.18004530050E+02 -0.14368412218E+02 -0.22047855350E+02  0.31886083132E+02  0.00000000000E+00 0.  1.
         11    1    3    3    0    0 -0.19520346349E+02 -0.69872715679E+01  0.96584262318E+01  0.22872496215E+02  0.51100000000E-03 0.  1.
        -11    1    3    3    0    0  0.88808133535E+01  0.52733118180E+01 -0.51308947154E+01  0.11532681570E+02  0.51100000000E-03 0. -1.
         12    1    3    3    0    0 -0.73649970544E+01  0.16082371968E+02  0.17520323833E+02  0.24896739083E+02  0.00000000000E+00 0. -1.
</event>
<event>
 7    1  0.5761011E-013  0.5930195E+02  0.7816164E-02  0.1266605E+00
        -11   -1    0    0    0    0  0.00000000000E+00  0.00000000000E+00  0.45593999997E+02  0.45594000000E+02  0.51100000000E-03 0. -1.
         11   -1    0    0    0    0 -0.00000000000E+00 -0.00000000000E+00 -0.45593999997E+02  0.45594000000E+02  0.51100000000E-03 0.  1.
    9900012    2    1    2    0    0 -0.17898360886E+01  0.29975902602E+02  0.10722023720E+02  0.59301952226E+02  0.50000014951E+02 0.  0.
        -12    1    1    2    0    0  0.17898360886E+01 -0.29975902602E+02 -0.10722023720E+02  0.31886047774E+02  0.00000000000E+00 0.  1.
         11    1    3    3    0    0  0.34258881912E+01  0.32335165671E+02 -0.45042651425E+01  0.32826636344E+02  0.51100000000E-03 0. -1.
        -11    1    3    3    0    0 -0.10871049101E+02 -0.40128027811E+01  0.16878733767E+01  0.11710303647E+02  0.51100000000E-03 0.  1.
         12    1    3    3    0    0  0.56553248213E+01  0.16535397112E+01  0.13538415486E+02  0.14765012235E+02  0.00000000000E+00 0. -1.
</event>
<event>
 7    1  0.5761011E-013  0.5930196E+02  0.7816164E-02  0.1266605E+00
        -11   -1    0    0    0    0  0.00000000000E+00  0.00000000000E+00  0.45593999997E+02  0.45594000000E+02  0.51100000000E-03 0.  1.
         11   -1    0    0    0    0 -0.00000000000E+00 -0.00000000000E+00 -0.45593999997E+02  0.45594000000E+02  0.51100000000E-03 0. -1.
    9900012    2    1    2    0    0 -0.21042446007E+02 -0.16131474077E+02 -0.17711880027E+02  0.59301957851E+02  0.50000025210E+02 0.  0.
        -12    1    1    2    0    0  0.21042446007E+02  0.16131474077E+02  0.17711880027E+02  0.31886042149E+02  0.00000000000E+00 0.  1.
         11    1    3    3    0    0 -0.20989636749E+02 -0.20499947799E+02  0.23991243724E-01  0.29339619739E+02  0.51100000000E-03 0. -1.
        -11    1    3    3    0    0  0.16372432522E+01  0.11943759080E+02 -0.18587046735E+02  0.22154282950E+02  0.51100000000E-03 0.  1.
        -12    1    3    3    0    0 -0.16900525105E+01 -0.75752853584E+01  0.85117546397E+00  0.78080551625E+01  0.00000000000E+00 0.  1.
</event>
<event>
 7    1  0.5761011E-013  0.5930193E+02  0.7816164E-02  0.1266605E+00
        -11   -1    0    0    0    0  0.00000000000E+00  0.00000000000E+00  0.45593999997E+02  0.45594000000E+02  0.51100000000E-03 0.  1.
         11   -1    0    0    0    0 -0.00000000000E+00 -0.00000000000E+00 -0.45593999997E+02  0.45594000000E+02  0.51100000000E-03 0. -1.
    9900012    2    1    2    0    0  0.37192107121E-01 -0.13342217398E+02 -0.28960409791E+02  0.59301929631E+02  0.49999973744E+02 0.  0.
        -12    1    1    2    0    0 -0.37192107121E-01  0.13342217398E+02  0.28960409791E+02  0.31886070369E+02  0.00000000000E+00 0.  1.
         11    1    3    3    0    0 -0.71172590594E+01 -0.18090775652E+02 -0.20613379543E+02  0.28334483525E+02  0.51100000000E-03 0. -1.
        -11    1    3    3    0    0 -0.10070121230E+02  0.68093483881E+01 -0.56741961691E+01  0.13415329645E+02  0.51100000000E-03 0.  1.
        -12    1    3    3    0    0  0.17224572397E+02 -0.20607901336E+01 -0.26728340789E+01  0.17552116460E+02  0.00000000000E+00 0.  1.
</event>
<event>
 7    1  0.5761011E-013  0.5930199E+02  0.7816164E-02  0.1266605E+00
        -11   -1    0    0    0    0  0.00000000000E+00  0.00000000000E+00  0.45593999997E+02  0.45594000000E+02  0.51100000000E-03 0.  1.
         11   -1    0    0    0    0 -0.00000000000E+00 -0.00000000000E+00 -0.45593999997E+02  0.45594000000E+02  0.51100000000E-03 0. -1.
    9900012    2    1    2    0    0 -0.66363210207E+01  0.24477307372E+02 -0.19327133030E+02  0.59301993602E+02  0.50000090412E+02 0.  0.
        -12    1    1    2    0    0  0.66363210207E+01 -0.24477307372E+02  0.19327133030E+02  0.31886006398E+02  0.00000000000E+00 0.  1.
         11    1    3    3    0    0 -0.19924949971E+02 -0.47018423930E+01  0.11913800852E+01  0.20506836421E+02  0.51100000000E-03 0. -1.
        -11    1    3    3    0    0  0.36153284024E+01  0.12898686541E+02 -0.49545846961E+01  0.14282668648E+02  0.51100000000E-03 0.  1.
         12    1    3    3    0    0  0.96733005476E+01  0.16280463223E+02 -0.15563928419E+02  0.24512488533E+02  0.00000000000E+00 0. -1.
</event>
<event>
 7    1  0.5761011E-013  0.5930199E+02  0.7816164E-02  0.1266605E+00
        -11   -1    0    0    0    0  0.00000000000E+00  0.00000000000E+00  0.45593999997E+02  0.45594000000E+02  0.51100000000E-03 0.  1.
         11   -1    0    0    0    0 -0.00000000000E+00 -0.00000000000E+00 -0.45593999997E+02  0.45594000000E+02  0.51100000000E-03 0. -1.
    9900012    2    1    2    0    0  0.53230240142E+01 -0.61819934874E+01 -0.30824764501E+02  0.59301988417E+02  0.50000080955E+02 0.  0.
        -12    1    1    2    0    0 -0.53230240142E+01  0.61819934874E+01  0.30824764501E+02  0.31886011583E+02  0.00000000000E+00 0.  1.
         11    1    3    3    0    0  0.12338920808E+02 -0.69563777850E+01 -0.14561233758E+02  0.20314272998E+02  0.51100000000E-03 0. -1.
        -11    1    3    3    0    0 -0.93883965790E+01  0.46438543147E+01 -0.26117038775E+02  0.28139066933E+02  0.51100000000E-03 0.  1.
        -12    1    3    3    0    0  0.23724997851E+01 -0.38694700171E+01  0.98535080322E+01  0.10848648487E+02  0.00000000000E+00 0.  1.
</event>
<event>
 7    1  0.5761011E-013  0.5930194E+02  0.7816164E-02  0.1266605E+00
        -11   -1    0    0    0    0  0.00000000000E+00  0.00000000000E+00  0.45593999997E+02  0.45594000000E+02  0.51100000000E-03 0.  1.
         11   -1    0    0    0    0 -0.00000000000E+00 -0.00000000000E+00 -0.45593999997E+02  0.45594000000E+02  0.51100000000E-03 0. -1.
    9900012    2    1    2    0    0 -0.47797182200E+01  0.22889994777E+02 -0.21677720014E+02  0.59301935455E+02  0.49999984366E+02 0.  0.
        -12    1    1    2    0    0  0.47797182200E+01 -0.22889994777E+02  0.21677720014E+02  0.31886064545E+02  0.00000000000E+00 0.  1.
         11    1    3    3    0    0 -0.28079142908E+01  0.29667334552E+01  0.14272297417E+02  0.14845348223E+02  0.51100000000E-03 0.  1.
        -11    1    3    3    0    0 -0.81644916594E+01  0.62548690355E+01 -0.20405023680E+02  0.22850542714E+02  0.51100000000E-03 0. -1.
         12    1    3    3    0    0  0.61926877302E+01  0.13668392286E+02 -0.15544993751E+02  0.21606044518E+02  0.00000000000E+00 0. -1.
</event>
<event>
 7    1  0.5761011E-013  0.5930194E+02  0.7816164E-02  0.1266605E+00
        -11   -1    0    0    0    0  0.00000000000E+00  0.00000000000E+00  0.45593999997E+02  0.45594000000E+02  0.51100000000E-03 0.  1.
         11   -1    0    0    0    0 -0.00000000000E+00 -0.00000000000E+00 -0.45593999997E+02  0.45594000000E+02  0.51100000000E-03 0. -1.
    9900012    2    1    2    0    0  0.56390300855E+01  0.18186485925E+02 -0.25576822117E+02  0.59301940973E+02  0.49999994430E+02 0.  0.
        -12    1    1    2    0    0 -0.56390300855E+01 -0.18186485925E+02  0.25576822117E+02  0.31886059027E+02  0.00000000000E+00 0.  1.
         11    1    3    3    0    0 -0.18485574402E+02 -0.26083264311E+00 -0.96658781153E+01  0.20861775922E+02  0.51100000000E-03 0.  1.
        -11    1    3    3    0    0  0.16662016985E+02  0.21224101623E+02 -0.11436503951E+02  0.29306636153E+02  0.51100000000E-03 0. -1.
        -12    1    3    3    0    0  0.74625875021E+01 -0.27767830545E+01 -0.44744400514E+01  0.91335288980E+01  0.00000000000E+00 0.  1.
</event>
<event>
 7    1  0.5761011E-013  0.5930196E+02  0.7816164E-02  0.1266605E+00
        -11   -1    0    0    0    0  0.00000000000E+00  0.00000000000E+00  0.45593999997E+02  0.45594000000E+02  0.51100000000E-03 0. -1.
         11   -1    0    0    0    0 -0.00000000000E+00 -0.00000000000E+00 -0.45593999997E+02  0.45594000000E+02  0.51100000000E-03 0.  1.
    9900012    2    1    2    0    0 -0.21659109698E+02  0.23067933002E+02  0.39335886210E+01  0.59301957828E+02  0.50000025169E+02 0.  0.
        -12    1    1    2    0    0  0.21659109698E+02 -0.23067933002E+02 -0.39335886210E+01  0.31886042172E+02  0.00000000000E+00 0.  1.
         11    1    3    3    0    0 -0.10136585836E+02  0.11212669359E+02  0.83955308611E+01  0.17290438550E+02  0.51100000000E-03 0. -1.
        -11    1    3    3    0    0 -0.10812308675E+02  0.14238099449E+02 -0.19682017368E+02  0.26589684142E+02  0.51100000000E-03 0.  1.
        -12    1    3    3    0    0 -0.71021518728E+00 -0.23828358056E+01  0.15220075128E+02  0.15421835137E+02  0.00000000000E+00 0.  1.
</event>
<event>
 7    1  0.5761011E-013  0.5930192E+02  0.7816164E-02  0.1266605E+00
        -11   -1    0    0    0    0  0.00000000000E+00  0.00000000000E+00  0.45593999997E+02  0.45594000000E+02  0.51100000000E-03 0. -1.
         11   -1    0    0    0    0 -0.00000000000E+00 -0.00000000000E+00 -0.45593999997E+02  0.45594000000E+02  0.51100000000E-03 0.  1.
    9900012    2    1    2    0    0 -0.30460337058E+02  0.84330122431E+01  0.42159225903E+01  0.59301924160E+02  0.49999963765E+02 0.  0.
        -12    1    1    2    0    0  0.30460337058E+02 -0.84330122431E+01 -0.42159225903E+01  0.31886075840E+02  0.00000000000E+00 0.  1.
         11    1    3    3    0    0 -0.29081900343E+02 -0.68735890010E+01  0.59806211643E+01  0.30475744177E+02  0.51100000000E-03 0. -1.
        -11    1    3    3    0    0  0.96106851952E+00  0.31291605217E+01  0.10732723985E+02  0.11220813815E+02  0.51100000000E-03 0.  1.
         12    1    3    3    0    0 -0.23395052345E+01  0.12177440722E+02 -0.12497422559E+02  0.17605366168E+02  0.00000000000E+00 0. -1.
</event>
<event>
 7    1  0.5761011E-013  0.5930195E+02  0.7816164E-02  0.1266605E+00
        -11   -1    0    0    0    0  0.00000000000E+00  0.00000000000E+00  0.45593999997E+02  0.45594000000E+02  0.51100000000E-03 0.  1.
         11   -1    0    0    0    0 -0.00000000000E+00 -0.00000000000E+00 -0.45593999997E+02  0.45594000000E+02  0.51100000000E-03 0. -1.
    9900012    2    1    2    0    0 -0.85137853832E+01  0.16787768506E+02 -0.25737260584E+02  0.59301948264E+02  0.50000007725E+02 0.  0.
        -12    1    1    2    0    0  0.85137853832E+01 -0.16787768506E+02  0.25737260584E+02  0.31886051736E+02  0.00000000000E+00 0.  1.
         11    1    3    3    0    0 -0.21486663079E+02 -0.12077877239E+00 -0.13269722982E+02  0.25254243723E+02  0.51100000000E-03 0. -1.
        -11    1    3    3    0    0  0.12888690698E+02  0.19440962930E+02 -0.21506625724E+01  0.23424233975E+02  0.51100000000E-03 0.  1.
         12    1    3    3    0    0  0.84186997238E-01 -0.25324156513E+01 -0.10316875030E+02  0.10623470566E+02  0.00000000000E+00 0. -1.
</event>
<event>
 7    1  0.5761011E-013  0.5930183E+02  0.7816164E-02  0.1266605E+00
        -11   -1    0    0    0    0  0.00000000000E+00  0.00000000000E+00  0.45593999997E+02  0.45594000000E+02  0.51100000000E-03 0. -1.
         11   -1    0    0    0    0 -0.00000000000E+00 -0.00000000000E+00 -0.45593999997E+02  0.45594000000E+02  0.51100000000E-03 0.  1.
    9900012    2    1    2    0    0 -0.18167946348E+02  0.17763956517E+02 -0.19263834650E+02  0.59301831352E+02  0.49999794506E+02 0.  0.
        -12    1    1    2    0    0  0.18167946348E+02 -0.17763956517E+02  0.19263834650E+02  0.31886168648E+02  0.00000000000E+00 0.  1.
         11    1    3    3    0    0 -0.70407909712E+01  0.33431652220E+01  0.18272582857E+01  0.80055208641E+01  0.51100000000E-03 0. -1.
        -11    1    3    3    0    0  0.28627773206E+01  0.14784406365E+02 -0.30785888832E+02  0.34271637209E+02  0.51100000000E-03 0.  1.
        -12    1    3    3    0    0 -0.13989932697E+02 -0.36361507024E+00  0.96947958957E+01  0.17024673279E+02  0.00000000000E+00 0.  1.
</event>
<event>
 7    1  0.5761011E-013  0.5930197E+02  0.7816164E-02  0.1266605E+00
        -11   -1    0    0    0    0  0.00000000000E+00  0.00000000000E+00  0.45593999997E+02  0.45594000000E+02  0.51100000000E-03 0. -1.
         11   -1    0    0    0    0 -0.00000000000E+00 -0.00000000000E+00 -0.45593999997E+02  0.45594000000E+02  0.51100000000E-03 0.  1.
    9900012    2    1    2    0    0 -0.16109380203E+02 -0.24709188257E+02  0.12110447774E+02  0.59301967633E+02  0.50000043050E+02 0.  0.
        -12    1    1    2    0    0  0.16109380203E+02  0.24709188257E+02 -0.12110447774E+02  0.31886032367E+02  0.00000000000E+00 0.  1.
         11    1    3    3    0    0 -0.17146278332E+02 -0.21964656670E+02 -0.33945857674E+00  0.27866758615E+02  0.51100000000E-03 0. -1.
        -11    1    3    3    0    0  0.14842526649E+01 -0.49833675031E+01  0.21490597300E+02  0.22110692667E+02  0.51100000000E-03 0.  1.
        -12    1    3    3    0    0 -0.44735453537E+00  0.22388359166E+01 -0.90406909492E+01  0.93245163510E+01  0.00000000000E+00 0.  1.
</event>
<event>
 7    1  0.5761011E-013  0.5930192E+02  0.7816164E-02  0.1266605E+00
        -11   -1    0    0    0    0  0.00000000000E+00  0.00000000000E+00  0.45593999997E+02  0.45594000000E+02  0.51100000000E-03 0.  1.
         11   -1    0    0    0    0 -0.00000000000E+00 -0.00000000000E+00 -0.45593999997E+02  0.45594000000E+02  0.51100000000E-03 0. -1.
    9900012    2    1    2    0    0  0.55492998964E+01  0.24223164295E+02 -0.19979125601E+02  0.59301923453E+02  0.49999962477E+02 0.  0.
        -12    1    1    2    0    0 -0.55492998964E+01 -0.24223164295E+02  0.19979125601E+02  0.31886076547E+02  0.00000000000E+00 0.  1.
         11    1    3    3    0    0 -0.12415607166E+02  0.21895522422E+02 -0.15845391098E+01  0.25220467241E+02  0.51100000000E-03 0. -1.
        -11    1    3    3    0    0  0.18718225023E+02  0.92289266872E+01 -0.17184992439E+02  0.27034588978E+02  0.51100000000E-03 0.  1.
         12    1    3    3    0    0 -0.75331796142E+00 -0.69012848141E+01 -0.12095940515E+01  0.70468672334E+01  0.00000000000E+00 0. -1.
</event>
<event>
 7    1  0.5761011E-013  0.5930195E+02  0.7816164E-02  0.1266605E+00
        -11   -1    0    0    0    0  0.00000000000E+00  0.00000000000E+00  0.45593999997E+02  0.45594000000E+02  0.51100000000E-03 0.  1.
         11   -1    0    0    0    0 -0.00000000000E+00 -0.00000000000E+00 -0.45593999997E+02  0.45594000000E+02  0.51100000000E-03 0. -1.
    9900012    2    1    2    0    0  0.19524737720E+02  0.24546348001E+02 -0.57429639879E+01  0.59301949467E+02  0.50000009919E+02 0.  0.
        -12    1    1    2    0    0 -0.19524737720E+02 -0.24546348001E+02  0.57429639879E+01  0.31886050533E+02  0.00000000000E+00 0.  1.
         11    1    3    3    0    0 -0.10346301217E+01 -0.55680118866E+01 -0.66676638443E+01  0.87481973720E+01  0.51100000000E-03 0. -1.
        -11    1    3    3    0    0  0.70440336641E+01  0.11307043685E+02  0.17558021386E+02  0.22039776823E+02  0.51100000000E-03 0.  1.
        -12    1    3    3    0    0  0.13515334178E+02  0.18807316203E+02 -0.16633321530E+02  0.28513975272E+02  0.00000000000E+00 0.  1.
</event>
<event>
 7    1  0.5761011E-013  0.5930195E+02  0.7816164E-02  0.1266605E+00
        -11   -1    0    0    0    0  0.00000000000E+00  0.00000000000E+00  0.45593999997E+02  0.45594000000E+02  0.51100000000E-03 0.  1.
         11   -1    0    0    0    0 -0.00000000000E+00 -0.00000000000E+00 -0.45593999997E+02  0.45594000000E+02  0.51100000000E-03 0. -1.
    9900012    2    1    2    0    0 -0.14286599935E+02  0.20029506680E+02 -0.20283794055E+02  0.59301946986E+02  0.50000005395E+02 0.  0.
        -12    1    1    2    0    0  0.14286599935E+02 -0.20029506680E+02  0.20283794055E+02  0.31886053014E+02  0.00000000000E+00 0.  1.
         11    1    3    3    0    0 -0.21193181782E+02  0.23981810720E+02 -0.27858676378E+02  0.42430932694E+02  0.51100000000E-03 0. -1.
        -11    1    3    3    0    0  0.76486064377E+01 -0.18760523852E+01 -0.10715456582E+01  0.79478904968E+01  0.51100000000E-03 0.  1.
         12    1    3    3    0    0 -0.74202459070E+00 -0.20762516547E+01  0.86464279812E+01  0.89231237950E+01  0.00000000000E+00 0. -1.
</event>
<event>
 7    1  0.5761011E-013  0.5930194E+02  0.7816164E-02  0.1266605E+00
        -11   -1    0    0    0    0  0.00000000000E+00  0.00000000000E+00  0.45593999997E+02  0.45594000000E+02  0.51100000000E-03 0.  1.
         11   -1    0    0    0    0 -0.00000000000E+00 -0.00000000000E+00 -0.45593999997E+02  0.45594000000E+02  0.51100000000E-03 0. -1.
    9900012    2    1    2    0    0 -0.29343993095E+01 -0.21995968689E+02 -0.22897320945E+02  0.59301942791E+02  0.49999997744E+02 0.  0.
        -12    1    1    2    0    0  0.29343993095E+01  0.21995968689E+02  0.22897320945E+02  0.31886057209E+02  0.00000000000E+00 0.  1.
         11    1    3    3    0    0 -0.16188096730E+02 -0.24480866765E+02 -0.66636052378E+01  0.30096028780E+02  0.51100000000E-03 0.  1.
        -11    1    3    3    0    0  0.17366408896E+02  0.83729393039E+00 -0.17427652249E+02  0.24617397958E+02  0.51100000000E-03 0. -1.
         12    1    3    3    0    0 -0.41127114750E+01  0.16476041456E+01  0.11939365420E+01  0.45885160524E+01  0.00000000000E+00 0. -1.
</event>
<event>
 7    1  0.5761011E-013  0.5930195E+02  0.7816164E-02  0.1266605E+00
        -11   -1    0    0    0    0  0.00000000000E+00  0.00000000000E+00  0.45593999997E+02  0.45594000000E+02  0.51100000000E-03 0.  1.
         11   -1    0    0    0    0 -0.00000000000E+00 -0.00000000000E+00 -0.45593999997E+02  0.45594000000E+02  0.51100000000E-03 0. -1.
    9900012    2    1    2    0    0 -0.53694829017E+01 -0.29206861031E+02  0.11612398303E+02  0.59301954898E+02  0.50000019824E+02 0.  0.
        -12    1    1    2    0    0  0.53694829017E+01  0.29206861031E+02 -0.11612398303E+02  0.31886045102E+02  0.00000000000E+00 0.  1.
         11    1    3    3    0    0  0.14519790786E+02 -0.81544101737E+01  0.17274755315E+02  0.23994497311E+02  0.51100000000E-03 0. -1.
        -11    1    3    3    0    0 -0.20252354661E+02 -0.10783869973E+02  0.11599369922E+01  0.22973793222E+02  0.51100000000E-03 0.  1.
         12    1    3    3    0    0  0.36308097337E+00 -0.10268580884E+02 -0.68222940043E+01  0.12333664364E+02  0.00000000000E+00 0. -1.
</event>
<event>
 7    1  0.5761011E-013  0.5930195E+02  0.7816164E-02  0.1266605E+00
        -11   -1    0    0    0    0  0.00000000000E+00  0.00000000000E+00  0.45593999997E+02  0.45594000000E+02  0.51100000000E-03 0.  1.
         11   -1    0    0    0    0 -0.00000000000E+00 -0.00000000000E+00 -0.45593999997E+02  0.45594000000E+02  0.51100000000E-03 0. -1.
    9900012    2    1    2    0    0  0.23741877283E+02  0.10084181145E+02 -0.18744410766E+02  0.59301946916E+02  0.50000005268E+02 0.  0.
        -12    1    1    2    0    0 -0.23741877283E+02 -0.10084181145E+02  0.18744410766E+02  0.31886053084E+02  0.00000000000E+00 0.  1.
         11    1    3    3    0    0  0.86682998104E+01  0.14596590502E+02 -0.35394634817E+01  0.17341501604E+02  0.51100000000E-03 0. -1.
        -11    1    3    3    0    0  0.20992289273E+02 -0.13132231891E+02 -0.18597422152E+02  0.30967657876E+02  0.51100000000E-03 0.  1.
        -12    1    3    3    0    0 -0.59187118000E+01  0.86198225333E+01  0.33924748684E+01  0.10992787436E+02  0.00000000000E+00 0.  1.
</event>
<event>
 7    1  0.5761011E-013  0.5930196E+02  0.7816164E-02  0.1266605E+00
        -11   -1    0    0    0    0  0.00000000000E+00  0.00000000000E+00  0.45593999997E+02  0.45594000000E+02  0.51100000000E-03 0.  1.
         11   -1    0    0    0    0 -0.00000000000E+00 -0.00000000000E+00 -0.45593999997E+02  0.45594000000E+02  0.51100000000E-03 0. -1.
    9900012    2    1    2    0    0  0.16729292808E+02  0.24435989119E+02 -0.11820864402E+02  0.59301958582E+02  0.50000026543E+02 0.  0.
        -12    1    1    2    0    0 -0.16729292808E+02 -0.24435989119E+02  0.11820864402E+02  0.31886041418E+02  0.00000000000E+00 0.  1.
         11    1    3    3    0    0  0.13274401537E+02 -0.88842085572E+01 -0.15556749793E+02  0.22296891313E+02  0.51100000000E-03 0. -1.
        -11    1    3    3    0    0 -0.15022898474E+01  0.22009928974E+02  0.86744145611E+01  0.23705259258E+02  0.51100000000E-03 0.  1.
         12    1    3    3    0    0  0.49571811185E+01  0.11310268703E+02 -0.49385291700E+01  0.13299808011E+02  0.00000000000E+00 0. -1.
</event>
<event>
 7    1  0.5761011E-013  0.5930201E+02  0.7816164E-02  0.1266605E+00
        -11   -1    0    0    0    0  0.00000000000E+00  0.00000000000E+00  0.45593999997E+02  0.45594000000E+02  0.51100000000E-03 0.  1.
         11   -1    0    0    0    0 -0.00000000000E+00 -0.00000000000E+00 -0.45593999997E+02  0.45594000000E+02  0.51100000000E-03 0. -1.
    9900012    2    1    2    0    0 -0.14909836670E+02  0.21153416492E+02 -0.18626495664E+02  0.59302006217E+02  0.50000113418E+02 0.  0.
        -12    1    1    2    0    0  0.14909836670E+02 -0.21153416492E+02  0.18626495664E+02  0.31885993783E+02  0.00000000000E+00 0.  1.
         11    1    3    3    0    0 -0.11940782637E+02  0.92763342580E+01  0.31188369245E+01  0.15438905766E+02  0.51100000000E-03 0. -1.
        -11    1    3    3    0    0  0.10906107861E+02  0.16641669865E+02 -0.21354628843E+02  0.29187472276E+02  0.51100000000E-03 0.  1.
        -12    1    3    3    0    0 -0.13875161895E+02 -0.47645876313E+01 -0.39070374536E+00  0.14675628175E+02  0.00000000000E+00 0.  1.
</event>
<event>
 7    1  0.5761011E-013  0.5930194E+02  0.7816164E-02  0.1266605E+00
        -11   -1    0    0    0    0  0.00000000000E+00  0.00000000000E+00  0.45593999997E+02  0.45594000000E+02  0.51100000000E-03 0.  1.
         11   -1    0    0    0    0 -0.00000000000E+00 -0.00000000000E+00 -0.45593999997E+02  0.45594000000E+02  0.51100000000E-03 0. -1.
    9900012    2    1    2    0    0  0.22176515792E+02  0.13621660453E+02  0.18422081615E+02  0.59301943844E+02  0.49999999664E+02 0.  0.
        -12    1    1    2    0    0 -0.22176515792E+02 -0.13621660453E+02 -0.18422081615E+02  0.31886056156E+02  0.00000000000E+00 0.  1.
         11    1    3    3    0    0  0.19504669515E+02  0.20842095300E+02 -0.14127159601E+00  0.28545490490E+02  0.51100000000E-03 0. -1.
        -11    1    3    3    0    0  0.10099776337E+02 -0.49485638225E+01  0.19915703130E+02  0.22872013409E+02  0.51100000000E-03 0.  1.
         12    1    3    3    0    0 -0.74279300601E+01 -0.22718710248E+01 -0.13523499189E+01  0.78844399442E+01  0.00000000000E+00 0. -1.
</event>
<event>
 7    1  0.5761011E-013  0.5930193E+02  0.7816164E-02  0.1266605E+00
        -11   -1    0    0    0    0  0.00000000000E+00  0.00000000000E+00  0.45593999997E+02  0.45594000000E+02  0.51100000000E-03 0.  1.
         11   -1    0    0    0    0 -0.00000000000E+00 -0.00000000000E+00 -0.45593999997E+02  0.45594000000E+02  0.51100000000E-03 0. -1.
    9900012    2    1    2    0    0  0.16118785678E+02 -0.23187803115E+02 -0.14806474150E+02  0.59301934990E+02  0.49999983518E+02 0.  0.
        -12    1    1    2    0    0 -0.16118785678E+02  0.23187803115E+02  0.14806474150E+02  0.31886065010E+02  0.00000000000E+00 0.  1.
         11    1    3    3    0    0  0.24704576861E+02 -0.42112888334E+01 -0.65642674298E+01  0.25906382971E+02  0.51100000000E-03 0. -1.
        -11    1    3    3    0    0 -0.86274586472E+01 -0.20162355272E+02  0.29610351064E+01  0.22129648484E+02  0.51100000000E-03 0.  1.
         12    1    3    3    0    0  0.41667464647E-01  0.11858409907E+01 -0.11203241827E+02  0.11265903535E+02  0.00000000000E+00 0. -1.
</event>
<event>
 7    1  0.5761011E-013  0.5930194E+02  0.7816164E-02  0.1266605E+00
        -11   -1    0    0    0    0  0.00000000000E+00  0.00000000000E+00  0.45593999997E+02  0.45594000000E+02  0.51100000000E-03 0.  1.
         11   -1    0    0    0    0 -0.00000000000E+00 -0.00000000000E+00 -0.45593999997E+02  0.45594000000E+02  0.51100000000E-03 0. -1.
    9900012    2    1    2    0    0  0.12184939994E+02  0.29664528894E+01 -0.29316348035E+02  0.59301939291E+02  0.49999991362E+02 0.  0.
        -12    1    1    2    0    0 -0.12184939994E+02 -0.29664528894E+01  0.29316348035E+02  0.31886060709E+02  0.00000000000E+00 0.  1.
         11    1    3    3    0    0 -0.16203231419E+01  0.11476171904E+02 -0.29966747023E+02  0.32129953254E+02  0.51100000000E-03 0. -1.
        -11    1    3    3    0    0  0.15417579832E+02 -0.51610905811E+01 -0.77314099290E+01  0.18003147603E+02  0.51100000000E-03 0.  1.
         12    1    3    3    0    0 -0.16123166964E+01 -0.33486284330E+01  0.83818089174E+01  0.91688384346E+01  0.00000000000E+00 0. -1.
</event>
<event>
 7    1  0.5761011E-013  0.5930193E+02  0.7816164E-02  0.1266605E+00
        -11   -1    0    0    0    0  0.00000000000E+00  0.00000000000E+00  0.45593999997E+02  0.45594000000E+02  0.51100000000E-03 0.  1.
         11   -1    0    0    0    0 -0.00000000000E+00 -0.00000000000E+00 -0.45593999997E+02  0.45594000000E+02  0.51100000000E-03 0. -1.
    9900012    2    1    2    0    0  0.13029127279E+01 -0.75972061382E+01 -0.30940363864E+02  0.59301933471E+02  0.49999980746E+02 0.  0.
        -12    1    1    2    0    0 -0.13029127279E+01  0.75972061382E+01  0.30940363864E+02  0.31886066529E+02  0.00000000000E+00 0.  1.
         11    1    3    3    0    0 -0.12061726281E+02 -0.17613246259E+02 -0.22283631687E+02  0.30858903514E+02  0.51100000000E-03 0. -1.
        -11    1    3    3    0    0  0.18820627316E+02  0.47191751787E+01 -0.72274866460E+01  0.20705631853E+02  0.51100000000E-03 0.  1.
        -12    1    3    3    0    0 -0.54559883074E+01  0.52968649425E+01 -0.14292455314E+01  0.77373981039E+01  0.00000000000E+00 0.  1.
</event>
<event>
 7    1  0.5761011E-013  0.5930192E+02  0.7816164E-02  0.1266605E+00
        -11   -1    0    0    0    0  0.00000000000E+00  0.00000000000E+00  0.45593999997E+02  0.45594000000E+02  0.51100000000E-03 0.  1.
         11   -1    0    0    0    0 -0.00000000000E+00 -0.00000000000E+00 -0.45593999997E+02  0.45594000000E+02  0.51100000000E-03 0. -1.
    9900012    2    1    2    0    0 -0.19096690767E+02 -0.22797164705E+02 -0.11503389307E+02  0.59301917106E+02  0.49999950900E+02 0.  0.
        -12    1    1    2    0    0  0.19096690767E+02  0.22797164705E+02  0.11503389307E+02  0.31886082894E+02  0.00000000000E+00 0.  1.
         11    1    3    3    0    0  0.60218802331E+01 -0.19931896842E+02 -0.90482495836E+01  0.22702739352E+02  0.51100000000E-03 0. -1.
        -11    1    3    3    0    0 -0.27580984922E+02  0.43507807081E+01  0.15913068956E+01  0.27967343098E+02  0.51100000000E-03 0.  1.
        -12    1    3    3    0    0  0.24624139225E+01 -0.72160485703E+01 -0.40464466187E+01  0.86318346562E+01  0.00000000000E+00 0.  1.
</event>
<event>
 7    1  0.5761011E-013  0.5930196E+02  0.7816164E-02  0.1266605E+00
        -11   -1    0    0    0    0  0.00000000000E+00  0.00000000000E+00  0.45593999997E+02  0.45594000000E+02  0.51100000000E-03 0. -1.
         11   -1    0    0    0    0 -0.00000000000E+00 -0.00000000000E+00 -0.45593999997E+02  0.45594000000E+02  0.51100000000E-03 0.  1.
    9900012    2    1    2    0    0  0.13434563395E+02  0.28689478892E+02 -0.36256832276E+01  0.59301964317E+02  0.50000037003E+02 0.  0.
        -12    1    1    2    0    0 -0.13434563395E+02 -0.28689478892E+02  0.36256832276E+01  0.31886035683E+02  0.00000000000E+00 0.  1.
         11    1    3    3    0    0  0.85972025814E+01 -0.35160770637E+01  0.15780929194E+02  0.18311537801E+02  0.51100000000E-03 0. -1.
        -11    1    3    3    0    0  0.77714910081E+01  0.81412705503E+01 -0.97658664013E+01  0.14901292075E+02  0.51100000000E-03 0.  1.
         12    1    3    3    0    0 -0.29341301949E+01  0.24064285405E+02 -0.96407460206E+01  0.26089134441E+02  0.00000000000E+00 0. -1.
</event>
<event>
 7    1  0.5761011E-013  0.5930196E+02  0.7816164E-02  0.1266605E+00
        -11   -1    0    0    0    0  0.00000000000E+00  0.00000000000E+00  0.45593999997E+02  0.45594000000E+02  0.51100000000E-03 0. -1.
         11   -1    0    0    0    0 -0.00000000000E+00 -0.00000000000E+00 -0.45593999997E+02  0.45594000000E+02  0.51100000000E-03 0.  1.
    9900012    2    1    2    0    0  0.22173444397E+02 -0.93647421919E+01  0.20913137232E+02  0.59301963219E+02  0.50000035000E+02 0.  0.
        -12    1    1    2    0    0 -0.22173444397E+02  0.93647421919E+01 -0.20913137232E+02  0.31886036781E+02  0.00000000000E+00 0.  1.
         11    1    3    3    0    0  0.32231334746E+02 -0.16669026582E+02  0.10599794451E+02  0.37803055820E+02  0.51100000000E-03 0. -1.
        -11    1    3    3    0    0 -0.11546202016E+01 -0.41769162923E+01  0.22637138231E+01  0.48891899183E+01  0.51100000000E-03 0.  1.
         12    1    3    3    0    0 -0.89032701473E+01  0.11481200682E+02  0.80496289581E+01  0.16609717481E+02  0.00000000000E+00 0. -1.
</event>
<event>
 7    1  0.5761011E-013  0.5930186E+02  0.7816164E-02  0.1266605E+00
        -11   -1    0    0    0    0  0.00000000000E+00  0.00000000000E+00  0.45593999997E+02  0.45594000000E+02  0.51100000000E-03 0.  1.
         11   -1    0    0    0    0 -0.00000000000E+00 -0.00000000000E+00 -0.45593999997E+02  0.45594000000E+02  0.51100000000E-03 0. -1.
    9900012    2    1    2    0    0 -0.18342941651E+02 -0.21904146171E+02 -0.14158776743E+02  0.59301857450E+02  0.49999842103E+02 0.  0.
        -12    1    1    2    0    0  0.18342941651E+02  0.21904146171E+02  0.14158776743E+02  0.31886142550E+02  0.00000000000E+00 0.  1.
         11    1    3    3    0    0 -0.19278908419E+02 -0.28925990988E+02  0.45933915437E+01  0.35064062951E+02  0.51100000000E-03 0. -1.
        -11    1    3    3    0    0 -0.39770226710E+01  0.31399134311E+01 -0.16995089285E+02  0.17734396684E+02  0.51100000000E-03 0.  1.
         12    1    3    3    0    0  0.49129894397E+01  0.38819313860E+01 -0.17570790011E+01  0.65033978147E+01  0.00000000000E+00 0. -1.
</event>
<event>
 7    1  0.5761011E-013  0.5930200E+02  0.7816164E-02  0.1266605E+00
        -11   -1    0    0    0    0  0.00000000000E+00  0.00000000000E+00  0.45593999997E+02  0.45594000000E+02  0.51100000000E-03 0. -1.
         11   -1    0    0    0    0 -0.00000000000E+00 -0.00000000000E+00 -0.45593999997E+02  0.45594000000E+02  0.51100000000E-03 0.  1.
    9900012    2    1    2    0    0  0.29144605413E+01  0.31483801854E+02 -0.41222695478E+01  0.59302000476E+02  0.50000102947E+02 0.  0.
        -12    1    1    2    0    0 -0.29144605413E+01 -0.31483801854E+02  0.41222695478E+01  0.31885999524E+02  0.00000000000E+00 0.  1.
         11    1    3    3    0    0 -0.16239110376E+02  0.11261994087E+02  0.61079475286E+01  0.20684492739E+02  0.51100000000E-03 0. -1.
        -11    1    3    3    0    0  0.18735304519E+02  0.25229641373E+02 -0.11450185503E+02  0.33446273149E+02  0.51100000000E-03 0.  1.
         12    1    3    3    0    0  0.41826639766E+00 -0.50078336054E+01  0.12199684263E+01  0.51712345876E+01  0.00000000000E+00 0. -1.
</event>
<event>
 7    1  0.5761011E-013  0.5930195E+02  0.7816164E-02  0.1266605E+00
        -11   -1    0    0    0    0  0.00000000000E+00  0.00000000000E+00  0.45593999997E+02  0.45594000000E+02  0.51100000000E-03 0. -1.
         11   -1    0    0    0    0 -0.00000000000E+00 -0.00000000000E+00 -0.45593999997E+02  0.45594000000E+02  0.51100000000E-03 0.  1.
    9900012    2    1    2    0    0  0.13176323376E+02 -0.28974686876E+02  0.18899627184E+01  0.59301953893E+02  0.50000017991E+02 0.  0.
        -12    1    1    2    0    0 -0.13176323376E+02  0.28974686876E+02 -0.18899627184E+01  0.31886046107E+02  0.00000000000E+00 0.  1.
         11    1    3    3    0    0 -0.25772383813E+01  0.13468506229E+02  0.14252369259E+01  0.13786737042E+02  0.51100000000E-03 0. -1.
        -11    1    3    3    0    0  0.47712151934E+01 -0.13971948729E+02  0.23088795987E+01  0.14943586282E+02  0.51100000000E-03 0.  1.
         12    1    3    3    0    0  0.10982346564E+02 -0.28471244376E+02 -0.18441538061E+01  0.30571630568E+02  0.00000000000E+00 0. -1.
</event>
<event>
 7    1  0.5761011E-013  0.5930193E+02  0.7816164E-02  0.1266605E+00
        -11   -1    0    0    0    0  0.00000000000E+00  0.00000000000E+00  0.45593999997E+02  0.45594000000E+02  0.51100000000E-03 0.  1.
         11   -1    0    0    0    0 -0.00000000000E+00 -0.00000000000E+00 -0.45593999997E+02  0.45594000000E+02  0.51100000000E-03 0. -1.
    9900012    2    1    2    0    0  0.17041793430E+02  0.20717280179E+02 -0.17236392745E+02  0.59301926924E+02  0.49999968808E+02 0.  0.
        -12    1    1    2    0    0 -0.17041793430E+02 -0.20717280179E+02  0.17236392745E+02  0.31886073076E+02  0.00000000000E+00 0.  1.
         11    1    3    3    0    0  0.24582048302E+02  0.38273282214E+00 -0.23316606257E+01  0.24695348240E+02  0.51100000000E-03 0. -1.
        -11    1    3    3    0    0 -0.54148214253E+01 -0.33289022776E+01 -0.72575852544E+01  0.96475087679E+01  0.51100000000E-03 0.  1.
         12    1    3    3    0    0 -0.21254334468E+01  0.23663449634E+02 -0.76471468646E+01  0.24959069917E+02  0.00000000000E+00 0. -1.
</event>
<event>
 7    1  0.5761011E-013  0.5930190E+02  0.7816164E-02  0.1266605E+00
        -11   -1    0    0    0    0  0.00000000000E+00  0.00000000000E+00  0.45593999997E+02  0.45594000000E+02  0.51100000000E-03 0.  1.
         11   -1    0    0    0    0 -0.00000000000E+00 -0.00000000000E+00 -0.45593999997E+02  0.45594000000E+02  0.51100000000E-03 0. -1.
    9900012    2    1    2    0    0 -0.14912408622E+02  0.28164939493E+02 -0.10389349295E+01  0.59301903761E+02  0.49999926563E+02 0.  0.
        -12    1    1    2    0    0  0.14912408622E+02 -0.28164939493E+02  0.10389349295E+01  0.31886096239E+02  0.00000000000E+00 0.  1.
         11    1    3    3    0    0 -0.16632229413E+02  0.54969465649E+01  0.49556305316E+01  0.18204553030E+02  0.51100000000E-03 0. -1.
        -11    1    3    3    0    0  0.42963067437E+01 -0.75264543329E+01 -0.64280629585E+01  0.10790076928E+02  0.51100000000E-03 0.  1.
         12    1    3    3    0    0 -0.25764859527E+01  0.30194447261E+02  0.43349749734E+00  0.30307273803E+02  0.00000000000E+00 0. -1.
</event>
<event>
 7    1  0.5761011E-013  0.5930194E+02  0.7816164E-02  0.1266605E+00
        -11   -1    0    0    0    0  0.00000000000E+00  0.00000000000E+00  0.45593999997E+02  0.45594000000E+02  0.51100000000E-03 0. -1.
         11   -1    0    0    0    0 -0.00000000000E+00 -0.00000000000E+00 -0.45593999997E+02  0.45594000000E+02  0.51100000000E-03 0.  1.
    9900012    2    1    2    0    0  0.28910568511E+01 -0.28705608298E+02  0.13577588411E+02  0.59301936202E+02  0.49999985727E+02 0.  0.
        -12    1    1    2    0    0 -0.28910568511E+01  0.28705608298E+02 -0.13577588411E+02  0.31886063798E+02  0.00000000000E+00 0.  1.
         11    1    3    3    0    0 -0.67242053433E+01 -0.28850091914E+02 -0.55887518675E+01  0.30145926568E+02  0.51100000000E-03 0. -1.
        -11    1    3    3    0    0  0.12942141898E+02 -0.12106264109E+01  0.40444751509E+01  0.13613318211E+02  0.51100000000E-03 0.  1.
         12    1    3    3    0    0 -0.33268797032E+01  0.13551100259E+01  0.15121865127E+02  0.15542691423E+02  0.00000000000E+00 0. -1.
</event>
<event>
 7    1  0.5761011E-013  0.5930202E+02  0.7816164E-02  0.1266604E+00
        -11   -1    0    0    0    0  0.00000000000E+00  0.00000000000E+00  0.45593999997E+02  0.45594000000E+02  0.51100000000E-03 0.  1.
         11   -1    0    0    0    0 -0.00000000000E+00 -0.00000000000E+00 -0.45593999997E+02  0.45594000000E+02  0.51100000000E-03 0. -1.
    9900012    2    1    2    0    0 -0.12130045963E+02 -0.22427166329E+02 -0.19146792064E+02  0.59302024228E+02  0.50000146266E+02 0.  0.
        -12    1    1    2    0    0  0.12130045963E+02  0.22427166329E+02  0.19146792064E+02  0.31885975772E+02  0.00000000000E+00 0.  1.
         11    1    3    3    0    0  0.73701427323E+01 -0.15122153088E+02 -0.20353699349E+02  0.26405900768E+02  0.51100000000E-03 0. -1.
        -11    1    3    3    0    0 -0.12936347093E+02 -0.15645185727E+02  0.61166021770E+01  0.21202210615E+02  0.51100000000E-03 0.  1.
         12    1    3    3    0    0 -0.65638416025E+01  0.83401724861E+01 -0.49096948917E+01  0.11693912844E+02  0.00000000000E+00 0. -1.
</event>
<event>
 7    1  0.5761011E-013  0.5930195E+02  0.7816164E-02  0.1266605E+00
        -11   -1    0    0    0    0  0.00000000000E+00  0.00000000000E+00  0.45593999997E+02  0.45594000000E+02  0.51100000000E-03 0. -1.
         11   -1    0    0    0    0 -0.00000000000E+00 -0.00000000000E+00 -0.45593999997E+02  0.45594000000E+02  0.51100000000E-03 0.  1.
    9900012    2    1    2    0    0 -0.30727110021E+02 -0.66252653680E+01  0.53545298722E+01  0.59301946284E+02  0.50000004115E+02 0.  0.
        -12    1    1    2    0    0  0.30727110021E+02  0.66252653680E+01 -0.53545298722E+01  0.31886053716E+02  0.00000000000E+00 0.  1.
         11    1    3    3    0    0 -0.16955788299E+02 -0.17713770845E+02 -0.52757241293E+00  0.24526613449E+02  0.51100000000E-03 0. -1.
        -11    1    3    3    0    0  0.77938622053E+01  0.47754452963E+01 -0.43051638816E+01  0.10103643014E+02  0.51100000000E-03 0.  1.
         12    1    3    3    0    0 -0.21565183927E+02  0.63130601802E+01  0.10187266167E+02  0.24671689821E+02  0.00000000000E+00 0. -1.
</event>
<event>
 7    1  0.5761011E-013  0.5930197E+02  0.7816164E-02  0.1266605E+00
        -11   -1    0    0    0    0  0.00000000000E+00  0.00000000000E+00  0.45593999997E+02  0.45594000000E+02  0.51100000000E-03 0.  1.
         11   -1    0    0    0    0 -0.00000000000E+00 -0.00000000000E+00 -0.45593999997E+02  0.45594000000E+02  0.51100000000E-03 0. -1.
    9900012    2    1    2    0    0 -0.30250611287E+02  0.82105934864E+01 -0.58485552372E+01  0.59301969721E+02  0.50000046858E+02 0.  0.
        -12    1    1    2    0    0  0.30250611287E+02 -0.82105934864E+01  0.58485552372E+01  0.31886030279E+02  0.00000000000E+00 0.  1.
         11    1    3    3    0    0 -0.35359011812E+02  0.21127716269E+02 -0.25544804175E+00  0.41191083562E+02  0.51100000000E-03 0. -1.
        -11    1    3    3    0    0  0.18814788469E+01  0.11946338181E+01  0.68576414867E+00  0.23318201773E+01  0.51100000000E-03 0.  1.
         12    1    3    3    0    0  0.32269216788E+01 -0.14111756601E+02 -0.62788713441E+01  0.15779065981E+02  0.00000000000E+00 0. -1.
</event>
<event>
 7    1  0.5761011E-013  0.5930191E+02  0.7816164E-02  0.1266605E+00
        -11   -1    0    0    0    0  0.00000000000E+00  0.00000000000E+00  0.45593999997E+02  0.45594000000E+02  0.51100000000E-03 0. -1.
         11   -1    0    0    0    0 -0.00000000000E+00 -0.00000000000E+00 -0.45593999997E+02  0.45594000000E+02  0.51100000000E-03 0.  1.
    9900012    2    1    2    0    0 -0.61889289987E+01  0.50954386735E+01  0.30861897179E+02  0.59301905304E+02  0.49999929378E+02 0.  0.
        -12    1    1    2    0    0  0.61889289987E+01 -0.50954386735E+01 -0.30861897179E+02  0.31886094696E+02  0.00000000000E+00 0.  1.
         11    1    3    3    0    0 -0.17530207172E+02 -0.44021246661E+01  0.16699768108E+02  0.24608314046E+02  0.51100000000E-03 0. -1.
        -11    1    3    3    0    0  0.91165766740E+01  0.92786862556E+01  0.22539146594E+02  0.26023434022E+02  0.51100000000E-03 0.  1.
        -12    1    3    3    0    0  0.22247014992E+01  0.21887708394E+00 -0.83770175220E+01  0.86701572363E+01  0.00000000000E+00 0.  1.
</event>
<event>
 7    1  0.5761011E-013  0.5930190E+02  0.7816164E-02  0.1266605E+00
        -11   -1    0    0    0    0  0.00000000000E+00  0.00000000000E+00  0.45593999997E+02  0.45594000000E+02  0.51100000000E-03 0. -1.
         11   -1    0    0    0    0 -0.00000000000E+00 -0.00000000000E+00 -0.45593999997E+02  0.45594000000E+02  0.51100000000E-03 0.  1.
    9900012    2    1    2    0    0  0.19448681905E+02  0.12436749107E+02  0.21995444107E+02  0.59301897735E+02  0.49999915572E+02 0.  0.
        -12    1    1    2    0    0 -0.19448681905E+02 -0.12436749107E+02 -0.21995444107E+02  0.31886102265E+02  0.00000000000E+00 0.  1.
         11    1    3    3    0    0 -0.13179308571E+02  0.70049998950E+00  0.10288672608E+02  0.16734445284E+02  0.51100000000E-03 0. -1.
        -11    1    3    3    0    0  0.18724818422E+02  0.14495077723E+02  0.14980083742E+02  0.28020153681E+02  0.51100000000E-03 0.  1.
        -12    1    3    3    0    0  0.13903172055E+02 -0.27588286056E+01 -0.32733122430E+01  0.14547298770E+02  0.00000000000E+00 0.  1.
</event>
<event>
 7    1  0.5761011E-013  0.5930191E+02  0.7816164E-02  0.1266605E+00
        -11   -1    0    0    0    0  0.00000000000E+00  0.00000000000E+00  0.45593999997E+02  0.45594000000E+02  0.51100000000E-03 0.  1.
         11   -1    0    0    0    0 -0.00000000000E+00 -0.00000000000E+00 -0.45593999997E+02  0.45594000000E+02  0.51100000000E-03 0. -1.
    9900012    2    1    2    0    0  0.18847687171E+02 -0.21140293892E+02  0.14648383322E+02  0.59301914140E+02  0.49999945491E+02 0.  0.
        -12    1    1    2    0    0 -0.18847687171E+02  0.21140293892E+02 -0.14648383322E+02  0.31886085860E+02  0.00000000000E+00 0.  1.
         11    1    3    3    0    0  0.22115106787E+02 -0.17225413349E+02 -0.44832334228E+01  0.28388240442E+02  0.51100000000E-03 0. -1.
        -11    1    3    3    0    0 -0.65814273704E+01  0.77534280873E+01  0.27596319272E+01  0.10537855663E+02  0.51100000000E-03 0.  1.
        -12    1    3    3    0    0  0.33140077549E+01 -0.11668308631E+02  0.16371984818E+02  0.20375818034E+02  0.00000000000E+00 0.  1.
</event>
<event>
 7    1  0.5761011E-013  0.5930195E+02  0.7816164E-02  0.1266605E+00
        -11   -1    0    0    0    0  0.00000000000E+00  0.00000000000E+00  0.45593999997E+02  0.45594000000E+02  0.51100000000E-03 0.  1.
         11   -1    0    0    0    0 -0.00000000000E+00 -0.00000000000E+00 -0.45593999997E+02  0.45594000000E+02  0.51100000000E-03 0. -1.
    9900012    2    1    2    0    0  0.14646466051E+02  0.27958517856E+02  0.45301500113E+01  0.59301953716E+02  0.50000017669E+02 0.  0.
        -12    1    1    2    0    0 -0.14646466051E+02 -0.27958517856E+02 -0.45301500113E+01  0.31886046284E+02  0.00000000000E+00 0.  1.
         11    1    3    3    0    0  0.73731077806E+01  0.16593859805E+02 -0.65040758702E+01  0.19287869368E+02  0.51100000000E-03 0. -1.
        -11    1    3    3    0    0 -0.43262824459E+01  0.12909247545E+02  0.20740866982E+02  0.24810259076E+02  0.51100000000E-03 0.  1.
        -12    1    3    3    0    0  0.11599640717E+02 -0.15445894940E+01 -0.97066411003E+01  0.15203825272E+02  0.00000000000E+00 0.  1.
</event>
<event>
 7    1  0.5761011E-013  0.5930195E+02  0.7816164E-02  0.1266605E+00
        -11   -1    0    0    0    0  0.00000000000E+00  0.00000000000E+00  0.45593999997E+02  0.45594000000E+02  0.51100000000E-03 0.  1.
         11   -1    0    0    0    0 -0.00000000000E+00 -0.00000000000E+00 -0.45593999997E+02  0.45594000000E+02  0.51100000000E-03 0. -1.
    9900012    2    1    2    0    0 -0.11405977098E+02 -0.75849322058E+01 -0.28793974563E+02  0.59301945348E+02  0.50000002408E+02 0.  0.
        -12    1    1    2    0    0  0.11405977098E+02  0.75849322058E+01  0.28793974563E+02  0.31886054652E+02  0.00000000000E+00 0.  1.
         11    1    3    3    0    0 -0.11648051442E+02  0.71735762503E+00 -0.25778518272E+02  0.28297061843E+02  0.51100000000E-03 0. -1.
        -11    1    3    3    0    0  0.14817390380E+02 -0.40113175509E+01  0.68818199019E+00  0.15366174569E+02  0.51100000000E-03 0.  1.
        -12    1    3    3    0    0 -0.14575316037E+02 -0.42909722800E+01 -0.37036382810E+01  0.15638708936E+02  0.00000000000E+00 0.  1.
</event>
<event>
 7    1  0.5761011E-013  0.5930195E+02  0.7816164E-02  0.1266605E+00
        -11   -1    0    0    0    0  0.00000000000E+00  0.00000000000E+00  0.45593999997E+02  0.45594000000E+02  0.51100000000E-03 0.  1.
         11   -1    0    0    0    0 -0.00000000000E+00 -0.00000000000E+00 -0.45593999997E+02  0.45594000000E+02  0.51100000000E-03 0. -1.
    9900012    2    1    2    0    0  0.29085179462E+02 -0.91848344296E+01  0.92957850698E+01  0.59301945558E+02  0.50000002791E+02 0.  0.
        -12    1    1    2    0    0 -0.29085179462E+02  0.91848344296E+01 -0.92957850698E+01  0.31886054442E+02  0.00000000000E+00 0.  1.
         11    1    3    3    0    0  0.31865034980E+02 -0.16747395676E+02  0.12798268692E+02  0.38205384411E+02  0.51100000000E-03 0. -1.
        -11    1    3    3    0    0  0.16563522362E+01  0.11392445434E+02 -0.77331264964E+01  0.13868401543E+02  0.51100000000E-03 0.  1.
        -12    1    3    3    0    0 -0.44362077545E+01 -0.38298841874E+01  0.42306428738E+01  0.72281596036E+01  0.00000000000E+00 0.  1.
</event>
<event>
 7    1  0.5761011E-013  0.5930229E+02  0.7816164E-02  0.1266604E+00
        -11   -1    0    0    0    0  0.00000000000E+00  0.00000000000E+00  0.45593999997E+02  0.45594000000E+02  0.51100000000E-03 0. -1.
         11   -1    0    0    0    0 -0.00000000000E+00 -0.00000000000E+00 -0.45593999997E+02  0.45594000000E+02  0.51100000000E-03 0.  1.
    9900012    2    1    2    0    0 -0.13193949426E+02 -0.76407576496E+01  0.28004231008E+02  0.59302291081E+02  0.50000632938E+02 0.  0.
        -12    1    1    2    0    0  0.13193949426E+02  0.76407576496E+01 -0.28004231008E+02  0.31885708919E+02  0.00000000000E+00 0.  1.
         11    1    3    3    0    0 -0.61183242557E+01 -0.15841686616E+02  0.42999926871E+01  0.17518072494E+02  0.51100000000E-03 0. -1.
        -11    1    3    3    0    0  0.33574047217E+01  0.57176927178E+01  0.29052919925E+02  0.29799938471E+02  0.51100000000E-03 0.  1.
        -12    1    3    3    0    0 -0.10433029892E+02  0.24832362485E+01 -0.53486816038E+01  0.11984280116E+02  0.00000000000E+00 0.  1.
</event>
<event>
 7    1  0.5761011E-013  0.5930192E+02  0.7816164E-02  0.1266605E+00
        -11   -1    0    0    0    0  0.00000000000E+00  0.00000000000E+00  0.45593999997E+02  0.45594000000E+02  0.51100000000E-03 0. -1.
         11   -1    0    0    0    0 -0.00000000000E+00 -0.00000000000E+00 -0.45593999997E+02  0.45594000000E+02  0.51100000000E-03 0.  1.
    9900012    2    1    2    0    0  0.14257720696E+02 -0.27869001697E+02 -0.60628461548E+01  0.59301922184E+02  0.49999960162E+02 0.  0.
        -12    1    1    2    0    0 -0.14257720696E+02  0.27869001697E+02  0.60628461548E+01  0.31886077816E+02  0.00000000000E+00 0.  1.
         11    1    3    3    0    0  0.22300035096E+02 -0.15971592406E+02  0.32060807339E+01  0.27616340873E+02  0.51100000000E-03 0. -1.
        -11    1    3    3    0    0 -0.32026604626E+01  0.11604938825E+01 -0.15900495244E+02  0.16261289289E+02  0.51100000000E-03 0.  1.
         12    1    3    3    0    0 -0.48396539373E+01 -0.13057903174E+02  0.66315683551E+01  0.15424292022E+02  0.00000000000E+00 0. -1.
</event>
<event>
 7    1  0.5761011E-013  0.5930196E+02  0.7816164E-02  0.1266605E+00
        -11   -1    0    0    0    0  0.00000000000E+00  0.00000000000E+00  0.45593999997E+02  0.45594000000E+02  0.51100000000E-03 0.  1.
         11   -1    0    0    0    0 -0.00000000000E+00 -0.00000000000E+00 -0.45593999997E+02  0.45594000000E+02  0.51100000000E-03 0. -1.
    9900012    2    1    2    0    0 -0.14739718549E+02  0.13995516744E+02 -0.24567977386E+02  0.59301963798E+02  0.50000036057E+02 0.  0.
        -12    1    1    2    0    0  0.14739718549E+02 -0.13995516744E+02  0.24567977386E+02  0.31886036202E+02  0.00000000000E+00 0.  1.
         11    1    3    3    0    0 -0.26319549630E+02  0.48721633752E+01 -0.31900228656E+02  0.41642301296E+02  0.51100000000E-03 0. -1.
        -11    1    3    3    0    0  0.36696836787E+01  0.12578989471E+01 -0.66259987710E+00  0.39354703558E+01  0.51100000000E-03 0.  1.
         12    1    3    3    0    0  0.79101474031E+01  0.78654544217E+01  0.79948511473E+01  0.13724192146E+02  0.00000000000E+00 0. -1.
</event>
<event>
 7    1  0.5761011E-013  0.5930194E+02  0.7816164E-02  0.1266605E+00
        -11   -1    0    0    0    0  0.00000000000E+00  0.00000000000E+00  0.45593999997E+02  0.45594000000E+02  0.51100000000E-03 0.  1.
         11   -1    0    0    0    0 -0.00000000000E+00 -0.00000000000E+00 -0.45593999997E+02  0.45594000000E+02  0.51100000000E-03 0. -1.
    9900012    2    1    2    0    0  0.18439186519E+02  0.57177203081E+01 -0.25377647831E+02  0.59301938242E+02  0.49999989448E+02 0.  0.
        -12    1    1    2    0    0 -0.18439186519E+02 -0.57177203081E+01  0.25377647831E+02  0.31886061758E+02  0.00000000000E+00 0.  1.
         11    1    3    3    0    0  0.17631567683E+02 -0.16711598392E+02 -0.23188893112E+02  0.33583842302E+02  0.51100000000E-03 0. -1.
        -11    1    3    3    0    0  0.58102207353E+01  0.85295602996E+01  0.16581937077E+01  0.10452830742E+02  0.51100000000E-03 0.  1.
         12    1    3    3    0    0 -0.50026018995E+01  0.13899758400E+02 -0.38469484268E+01  0.15265265197E+02  0.00000000000E+00 0. -1.
</event>
<event>
 7    1  0.5761011E-013  0.5930196E+02  0.7816164E-02  0.1266605E+00
        -11   -1    0    0    0    0  0.00000000000E+00  0.00000000000E+00  0.45593999997E+02  0.45594000000E+02  0.51100000000E-03 0. -1.
         11   -1    0    0    0    0 -0.00000000000E+00 -0.00000000000E+00 -0.45593999997E+02  0.45594000000E+02  0.51100000000E-03 0.  1.
    9900012    2    1    2    0    0 -0.13931412954E+02  0.16718723158E+02  0.23304930187E+02  0.59301956941E+02  0.50000023551E+02 0.  0.
        -12    1    1    2    0    0  0.13931412954E+02 -0.16718723158E+02 -0.23304930187E+02  0.31886043059E+02  0.00000000000E+00 0.  1.
         11    1    3    3    0    0 -0.24060950711E+02  0.25361767593E+02  0.15241434053E+02  0.38137251039E+02  0.51100000000E-03 0. -1.
        -11    1    3    3    0    0  0.87966460390E+01 -0.10991307325E+02  0.10472565236E+02  0.17546066258E+02  0.51100000000E-03 0.  1.
         12    1    3    3    0    0  0.13328917175E+01  0.23482628904E+01 -0.24090691027E+01  0.36186396442E+01  0.00000000000E+00 0. -1.
</event>
<event>
 7    1  0.5761011E-013  0.5930196E+02  0.7816164E-02  0.1266605E+00
        -11   -1    0    0    0    0  0.00000000000E+00  0.00000000000E+00  0.45593999997E+02  0.45594000000E+02  0.51100000000E-03 0. -1.
         11   -1    0    0    0    0 -0.00000000000E+00 -0.00000000000E+00 -0.45593999997E+02  0.45594000000E+02  0.51100000000E-03 0.  1.
    9900012    2    1    2    0    0 -0.15031627727E+02 -0.19424690235E+02  0.20333500831E+02  0.59301957930E+02  0.50000025354E+02 0.  0.
        -12    1    1    2    0    0  0.15031627727E+02  0.19424690235E+02 -0.20333500831E+02  0.31886042070E+02  0.00000000000E+00 0.  1.
         11    1    3    3    0    0 -0.12926965743E+02 -0.18497493263E+02  0.34035725521E+01  0.22822094705E+02  0.51100000000E-03 0. -1.
        -11    1    3    3    0    0 -0.49947042163E+01  0.13772907247E+02  0.11110647528E+01  0.14692668559E+02  0.51100000000E-03 0.  1.
        -12    1    3    3    0    0  0.28900422330E+01 -0.14700104219E+02  0.15818863526E+02  0.21787194666E+02  0.00000000000E+00 0.  1.
</event>
<event>
 7    1  0.5761011E-013  0.5930193E+02  0.7816164E-02  0.1266605E+00
        -11   -1    0    0    0    0  0.00000000000E+00  0.00000000000E+00  0.45593999997E+02  0.45594000000E+02  0.51100000000E-03 0.  1.
         11   -1    0    0    0    0 -0.00000000000E+00 -0.00000000000E+00 -0.45593999997E+02  0.45594000000E+02  0.51100000000E-03 0. -1.
    9900012    2    1    2    0    0  0.19895522649E+02  0.24832147867E+02 -0.20624767538E+01  0.59301934085E+02  0.49999981867E+02 0.  0.
        -12    1    1    2    0    0 -0.19895522649E+02 -0.24832147867E+02  0.20624767538E+01  0.31886065915E+02  0.00000000000E+00 0.  1.
         11    1    3    3    0    0  0.23542199846E+02  0.82835190635E+01 -0.16620161299E+02  0.29984689819E+02  0.51100000000E-03 0. -1.
        -11    1    3    3    0    0 -0.62036518856E+01 -0.11963355266E+01  0.15424825285E+00  0.63198345069E+01  0.51100000000E-03 0.  1.
         12    1    3    3    0    0  0.25569746886E+01  0.17744964330E+02  0.14403436292E+02  0.22997409760E+02  0.00000000000E+00 0. -1.
</event>
<event>
 7    1  0.5761011E-013  0.5930193E+02  0.7816164E-02  0.1266605E+00
        -11   -1    0    0    0    0  0.00000000000E+00  0.00000000000E+00  0.45593999997E+02  0.45594000000E+02  0.51100000000E-03 0. -1.
         11   -1    0    0    0    0 -0.00000000000E+00 -0.00000000000E+00 -0.45593999997E+02  0.45594000000E+02  0.51100000000E-03 0.  1.
    9900012    2    1    2    0    0  0.12950148267E+02  0.24552495378E+02 -0.15690440522E+02  0.59301932617E+02  0.49999979189E+02 0.  0.
        -12    1    1    2    0    0 -0.12950148267E+02 -0.24552495378E+02  0.15690440522E+02  0.31886067383E+02  0.00000000000E+00 0.  1.
         11    1    3    3    0    0  0.28279684414E+02  0.88771175876E+01 -0.10754290909E+02  0.31530914044E+02  0.51100000000E-03 0. -1.
        -11    1    3    3    0    0 -0.63910424902E+01 -0.89808269923E+00  0.32646192767E+01  0.72325456050E+01  0.51100000000E-03 0.  1.
         12    1    3    3    0    0 -0.89384936572E+01  0.16573460489E+02 -0.82007688890E+01  0.20538472967E+02  0.00000000000E+00 0. -1.
</event>
<event>
 7    1  0.5761011E-013  0.5930203E+02  0.7816164E-02  0.1266604E+00
        -11   -1    0    0    0    0  0.00000000000E+00  0.00000000000E+00  0.45593999997E+02  0.45594000000E+02  0.51100000000E-03 0.  1.
         11   -1    0    0    0    0 -0.00000000000E+00 -0.00000000000E+00 -0.45593999997E+02  0.45594000000E+02  0.51100000000E-03 0. -1.
    9900012    2    1    2    0    0 -0.29241667710E+02  0.71769508426E+01 -0.10494354128E+02  0.59302027811E+02  0.50000152801E+02 0.  0.
        -12    1    1    2    0    0  0.29241667710E+02 -0.71769508426E+01  0.10494354128E+02  0.31885972189E+02  0.00000000000E+00 0.  1.
         11    1    3    3    0    0 -0.32141073278E+02  0.12438020501E+02  0.40678750310E+01  0.34703033772E+02  0.51100000000E-03 0.  1.
        -11    1    3    3    0    0  0.10559514715E+02 -0.99492823337E-01 -0.71060395229E+01  0.12728277487E+02  0.51100000000E-03 0. -1.
        -12    1    3    3    0    0 -0.76601091472E+01 -0.51615768353E+01 -0.74561896361E+01  0.11870716552E+02  0.00000000000E+00 0.  1.
</event>
<event>
 7    1  0.5761011E-013  0.5930193E+02  0.7816164E-02  0.1266605E+00
        -11   -1    0    0    0    0  0.00000000000E+00  0.00000000000E+00  0.45593999997E+02  0.45594000000E+02  0.51100000000E-03 0. -1.
         11   -1    0    0    0    0 -0.00000000000E+00 -0.00000000000E+00 -0.45593999997E+02  0.45594000000E+02  0.51100000000E-03 0.  1.
    9900012    2    1    2    0    0  0.25469709841E+02  0.16623997832E+02  0.95738098258E+01  0.59301933170E+02  0.49999980198E+02 0.  0.
        -12    1    1    2    0    0 -0.25469709841E+02 -0.16623997832E+02 -0.95738098258E+01  0.31886066830E+02  0.00000000000E+00 0.  1.
         11    1    3    3    0    0 -0.19844686042E+00 -0.16293210122E+02  0.22943879523E+01  0.16455160090E+02  0.51100000000E-03 0. -1.
        -11    1    3    3    0    0  0.14909880517E+02  0.16968173957E+02  0.10024635481E+01  0.22610360411E+02  0.51100000000E-03 0.  1.
         12    1    3    3    0    0  0.10758276184E+02  0.15949033997E+02  0.62769583254E+01  0.20236412669E+02  0.00000000000E+00 0. -1.
</event>
<event>
 7    1  0.5761011E-013  0.5930194E+02  0.7816164E-02  0.1266605E+00
        -11   -1    0    0    0    0  0.00000000000E+00  0.00000000000E+00  0.45593999997E+02  0.45594000000E+02  0.51100000000E-03 0.  1.
         11   -1    0    0    0    0 -0.00000000000E+00 -0.00000000000E+00 -0.45593999997E+02  0.45594000000E+02  0.51100000000E-03 0. -1.
    9900012    2    1    2    0    0  0.57706860244E+01 -0.28596206260E+02  0.12871563746E+02  0.59301937482E+02  0.49999988061E+02 0.  0.
        -12    1    1    2    0    0 -0.57706860244E+01  0.28596206260E+02 -0.12871563746E+02  0.31886062518E+02  0.00000000000E+00 0.  1.
         11    1    3    3    0    0  0.13590785591E+02 -0.26916443373E+02 -0.69214055619E+01  0.30937198193E+02  0.51100000000E-03 0. -1.
        -11    1    3    3    0    0 -0.91919519545E+00 -0.23301792896E+01  0.21153241044E+02  0.21301038995E+02  0.51100000000E-03 0.  1.
        -12    1    3    3    0    0 -0.69009043716E+01  0.65041640224E+00 -0.13602717363E+01  0.70637002936E+01  0.00000000000E+00 0.  1.
</event>
<event>
 7    1  0.5761011E-013  0.5930197E+02  0.7816164E-02  0.1266605E+00
        -11   -1    0    0    0    0  0.00000000000E+00  0.00000000000E+00  0.45593999997E+02  0.45594000000E+02  0.51100000000E-03 0.  1.
         11   -1    0    0    0    0 -0.00000000000E+00 -0.00000000000E+00 -0.45593999997E+02  0.45594000000E+02  0.51100000000E-03 0. -1.
    9900012    2    1    2    0    0  0.73820035889E+01 -0.23746707126E+02 -0.19957924278E+02  0.59301971433E+02  0.50000049980E+02 0.  0.
        -12    1    1    2    0    0 -0.73820035889E+01  0.23746707126E+02  0.19957924278E+02  0.31886028567E+02  0.00000000000E+00 0.  1.
         11    1    3    3    0    0 -0.11579249059E+02  0.99359083157E+01 -0.10558032958E+02  0.18554604362E+02  0.51100000000E-03 0. -1.
        -11    1    3    3    0    0  0.42825309517E+01 -0.16446067362E+02 -0.45660525033E+01  0.17597216790E+02  0.51100000000E-03 0.  1.
         12    1    3    3    0    0  0.14678721696E+02 -0.17236548079E+02 -0.48338388172E+01  0.23150150281E+02  0.00000000000E+00 0. -1.
</event>
<event>
 7    1  0.5761011E-013  0.5930196E+02  0.7816164E-02  0.1266605E+00
        -11   -1    0    0    0    0  0.00000000000E+00  0.00000000000E+00  0.45593999997E+02  0.45594000000E+02  0.51100000000E-03 0.  1.
         11   -1    0    0    0    0 -0.00000000000E+00 -0.00000000000E+00 -0.45593999997E+02  0.45594000000E+02  0.51100000000E-03 0. -1.
    9900012    2    1    2    0    0  0.82511183638E+01 -0.13593296110E+02 -0.27638031273E+02  0.59301961895E+02  0.50000032585E+02 0.  0.
        -12    1    1    2    0    0 -0.82511183638E+01  0.13593296110E+02  0.27638031273E+02  0.31886038105E+02  0.00000000000E+00 0.  1.
         11    1    3    3    0    0 -0.13468549776E+02 -0.19423045198E+02 -0.62044428292E+01  0.24436686128E+02  0.51100000000E-03 0. -1.
        -11    1    3    3    0    0  0.14087076926E+02  0.10676157577E+01 -0.31296620213E+01  0.14469980109E+02  0.51100000000E-03 0.  1.
         12    1    3    3    0    0  0.76325912137E+01  0.47621333299E+01 -0.18303926422E+02  0.20395295658E+02  0.00000000000E+00 0. -1.
</event>
<event>
 7    1  0.5761011E-013  0.5930194E+02  0.7816164E-02  0.1266605E+00
        -11   -1    0    0    0    0  0.00000000000E+00  0.00000000000E+00  0.45593999997E+02  0.45594000000E+02  0.51100000000E-03 0. -1.
         11   -1    0    0    0    0 -0.00000000000E+00 -0.00000000000E+00 -0.45593999997E+02  0.45594000000E+02  0.51100000000E-03 0.  1.
    9900012    2    1    2    0    0  0.18982463786E+02 -0.17688251895E+01  0.25558912487E+02  0.59301942209E+02  0.49999996684E+02 0.  0.
        -12    1    1    2    0    0 -0.18982463786E+02  0.17688251895E+01 -0.25558912487E+02  0.31886057791E+02  0.00000000000E+00 0.  1.
         11    1    3    3    0    0 -0.98484990102E+01  0.91447899298E+01  0.88134103759E+01  0.16071599744E+02  0.51100000000E-03 0. -1.
        -11    1    3    3    0    0  0.22375021399E+02 -0.12530755231E+02  0.22738808643E+02  0.34274113089E+02  0.51100000000E-03 0.  1.
        -12    1    3    3    0    0  0.64559413966E+01  0.16171401113E+01 -0.59933065321E+01  0.89562293764E+01  0.00000000000E+00 0.  1.
</event>
<event>
 7    1  0.6040132E-013  0.5930203E+02  0.7816164E-02  0.1266604E+00
        -11   -1    0    0    0    0  0.00000000000E+00  0.00000000000E+00  0.45593999997E+02  0.45594000000E+02  0.51100000000E-03 0.  1.
         11   -1    0    0    0    0 -0.00000000000E+00 -0.00000000000E+00 -0.45593999997E+02  0.45594000000E+02  0.51100000000E-03 0. -1.
    9900012    2    1    2    0    0 -0.27130588924E+02 -0.12149847691E+02 -0.11533751205E+02  0.59302030183E+02  0.50000157126E+02 0.  0.
        -12    1    1    2    0    0  0.27130588924E+02  0.12149847691E+02  0.11533751205E+02  0.31885969817E+02  0.00000000000E+00 0.  1.
         11    1    3    3    0    0 -0.33466441690E+01  0.11092920497E+02 -0.13868523020E+02  0.18071769237E+02  0.51100000000E-03 0. -1.
        -11    1    3    3    0    0 -0.12887534030E+02 -0.98965471895E+01  0.13136399329E+02  0.20894859829E+02  0.51100000000E-03 0.  1.
         12    1    3    3    0    0 -0.10896410725E+02 -0.13346220999E+02 -0.10801627515E+02  0.20335401117E+02  0.00000000000E+00 0. -1.
</event>
<event>
 7    1  0.5761011E-013  0.5930202E+02  0.7816164E-02  0.1266605E+00
        -11   -1    0    0    0    0  0.00000000000E+00  0.00000000000E+00  0.45593999997E+02  0.45594000000E+02  0.51100000000E-03 0. -1.
         11   -1    0    0    0    0 -0.00000000000E+00 -0.00000000000E+00 -0.45593999997E+02  0.45594000000E+02  0.51100000000E-03 0.  1.
    9900012    2    1    2    0    0  0.29549162034E+02 -0.78942658117E+01  0.90135168999E+01  0.59302017241E+02  0.50000133522E+02 0.  0.
        -12    1    1    2    0    0 -0.29549162034E+02  0.78942658117E+01 -0.90135168999E+01  0.31885982759E+02  0.00000000000E+00 0.  1.
         11    1    3    3    0    0  0.17664063931E+02 -0.25624530691E+01  0.16102965811E+02  0.24039359984E+02  0.51100000000E-03 0. -1.
        -11    1    3    3    0    0  0.17347801478E+02 -0.42235288207E+00 -0.16077008525E+02  0.23655756201E+02  0.51100000000E-03 0.  1.
        -12    1    3    3    0    0 -0.54627033752E+01 -0.49094598605E+01  0.89875596140E+01  0.11606901055E+02  0.00000000000E+00 0.  1.
</event>
<event>
 7    1  0.5761011E-013  0.5930195E+02  0.7816164E-02  0.1266605E+00
        -11   -1    0    0    0    0  0.00000000000E+00  0.00000000000E+00  0.45593999997E+02  0.45594000000E+02  0.51100000000E-03 0. -1.
         11   -1    0    0    0    0 -0.00000000000E+00 -0.00000000000E+00 -0.45593999997E+02  0.45594000000E+02  0.51100000000E-03 0.  1.
    9900012    2    1    2    0    0 -0.30394472148E+02 -0.82442067051E+01 -0.49929359278E+01  0.59301948339E+02  0.50000007863E+02 0.  0.
        -12    1    1    2    0    0  0.30394472148E+02  0.82442067051E+01  0.49929359278E+01  0.31886051661E+02  0.00000000000E+00 0.  1.
         11    1    3    3    0    0 -0.10287795049E+02 -0.13956390786E+02  0.10860400035E+02  0.20458931055E+02  0.51100000000E-03 0. -1.
        -11    1    3    3    0    0  0.43113016358E+00  0.12472709465E+02 -0.11105730359E+02  0.16706034888E+02  0.51100000000E-03 0.  1.
         12    1    3    3    0    0 -0.20537807263E+02 -0.67605253840E+01 -0.47476056038E+01  0.22136982396E+02  0.00000000000E+00 0. -1.
</event>
<event>
 7    1  0.5761011E-013  0.5930196E+02  0.7816164E-02  0.1266605E+00
        -11   -1    0    0    0    0  0.00000000000E+00  0.00000000000E+00  0.45593999997E+02  0.45594000000E+02  0.51100000000E-03 0.  1.
         11   -1    0    0    0    0 -0.00000000000E+00 -0.00000000000E+00 -0.45593999997E+02  0.45594000000E+02  0.51100000000E-03 0. -1.
    9900012    2    1    2    0    0 -0.11687838621E+02 -0.16196406830E+02 -0.24855385083E+02  0.59301963347E+02  0.50000035233E+02 0.  0.
        -12    1    1    2    0    0  0.11687838621E+02  0.16196406830E+02  0.24855385083E+02  0.31886036653E+02  0.00000000000E+00 0.  1.
         11    1    3    3    0    0 -0.20721912399E+02  0.22403607574E+01 -0.10904521672E+02  0.23522871061E+02  0.51100000000E-03 0. -1.
        -11    1    3    3    0    0  0.11898147476E+02 -0.75266190286E+00  0.16350660183E+01  0.12033530423E+02  0.51100000000E-03 0.  1.
         12    1    3    3    0    0 -0.28640736979E+01 -0.17684105684E+02 -0.15585929430E+02  0.23745561863E+02  0.00000000000E+00 0. -1.
</event>
<event>
 7    1  0.5761011E-013  0.5930194E+02  0.7816164E-02  0.1266605E+00
        -11   -1    0    0    0    0  0.00000000000E+00  0.00000000000E+00  0.45593999997E+02  0.45594000000E+02  0.51100000000E-03 0.  1.
         11   -1    0    0    0    0 -0.00000000000E+00 -0.00000000000E+00 -0.45593999997E+02  0.45594000000E+02  0.51100000000E-03 0. -1.
    9900012    2    1    2    0    0 -0.26014568816E+02  0.66953683827E+01 -0.17179498044E+02  0.59301938758E+02  0.49999990389E+02 0.  0.
        -12    1    1    2    0    0  0.26014568816E+02 -0.66953683827E+01  0.17179498044E+02  0.31886061242E+02  0.00000000000E+00 0.  1.
         11    1    3    3    0    0 -0.15738929210E+02  0.19741635807E+01  0.49951708215E+01  0.16630181788E+02  0.51100000000E-03 0. -1.
        -11    1    3    3    0    0 -0.79655325543E+01  0.12984182775E+02 -0.28293554669E+02  0.32133533066E+02  0.51100000000E-03 0.  1.
        -12    1    3    3    0    0 -0.23101070521E+01 -0.82629779735E+01  0.61188858029E+01  0.10538223904E+02  0.00000000000E+00 0.  1.
</event>
<event>
 7    1  0.5761011E-013  0.5930195E+02  0.7816164E-02  0.1266605E+00
        -11   -1    0    0    0    0  0.00000000000E+00  0.00000000000E+00  0.45593999997E+02  0.45594000000E+02  0.51100000000E-03 0.  1.
         11   -1    0    0    0    0 -0.00000000000E+00 -0.00000000000E+00 -0.45593999997E+02  0.45594000000E+02  0.51100000000E-03 0. -1.
    9900012    2    1    2    0    0  0.30439071620E+02  0.86724266485E+01 -0.38694126345E+01  0.59301946321E+02  0.50000004183E+02 0.  0.
        -12    1    1    2    0    0 -0.30439071620E+02 -0.86724266485E+01  0.38694126345E+01  0.31886053679E+02  0.00000000000E+00 0.  1.
         11    1    3    3    0    0  0.35734240104E+02  0.22231800497E+01  0.52367399101E+01  0.36184276840E+02  0.51100000000E-03 0. -1.
        -11    1    3    3    0    0 -0.30844951246E+01 -0.69188893094E+01 -0.44752873856E+01  0.87984849204E+01  0.51100000000E-03 0.  1.
         12    1    3    3    0    0 -0.22106733588E+01  0.13368135908E+02 -0.46308651591E+01  0.14319184561E+02  0.00000000000E+00 0. -1.
</event>
<event>
 7    1  0.5761011E-013  0.5930195E+02  0.7816164E-02  0.1266605E+00
        -11   -1    0    0    0    0  0.00000000000E+00  0.00000000000E+00  0.45593999997E+02  0.45594000000E+02  0.51100000000E-03 0.  1.
         11   -1    0    0    0    0 -0.00000000000E+00 -0.00000000000E+00 -0.45593999997E+02  0.45594000000E+02  0.51100000000E-03 0. -1.
    9900012    2    1    2    0    0 -0.18903762194E+02  0.63177726264E+01 -0.24888829639E+02  0.59301947926E+02  0.50000007110E+02 0.  0.
        -12    1    1    2    0    0  0.18903762194E+02 -0.63177726264E+01  0.24888829639E+02  0.31886052074E+02  0.00000000000E+00 0.  1.
         11    1    3    3    0    0  0.60392862231E+01  0.25374589154E+01 -0.26547501122E+02  0.27343765138E+02  0.51100000000E-03 0. -1.
        -11    1    3    3    0    0 -0.13890620698E+02 -0.55817794046E+01 -0.53104768872E+01  0.15884167266E+02  0.51100000000E-03 0.  1.
         12    1    3    3    0    0 -0.11052427719E+02  0.93620931157E+01  0.69691483709E+01  0.16074015522E+02  0.00000000000E+00 0. -1.
</event>
<event>
 7    1  0.5761011E-013  0.5930193E+02  0.7816164E-02  0.1266605E+00
        -11   -1    0    0    0    0  0.00000000000E+00  0.00000000000E+00  0.45593999997E+02  0.45594000000E+02  0.51100000000E-03 0. -1.
         11   -1    0    0    0    0 -0.00000000000E+00 -0.00000000000E+00 -0.45593999997E+02  0.45594000000E+02  0.51100000000E-03 0.  1.
    9900012    2    1    2    0    0  0.62692192417E+01 -0.22646508775E+02  0.21553514176E+02  0.59301930269E+02  0.49999974907E+02 0.  0.
        -12    1    1    2    0    0 -0.62692192417E+01  0.22646508775E+02 -0.21553514176E+02  0.31886069731E+02  0.00000000000E+00 0.  1.
         11    1    3    3    0    0 -0.13626577648E+02  0.24157291029E+00  0.12515766765E+02  0.18503685953E+02  0.51100000000E-03 0. -1.
        -11    1    3    3    0    0  0.14004149178E+02 -0.20668442690E+02  0.17326669265E+02  0.30389376195E+02  0.51100000000E-03 0.  1.
        -12    1    3    3    0    0  0.58916477121E+01 -0.22196389955E+01 -0.82889218547E+01  0.10408868120E+02  0.00000000000E+00 0.  1.
</event>
<event>
 7    1  0.5761011E-013  0.5930193E+02  0.7816164E-02  0.1266605E+00
        -11   -1    0    0    0    0  0.00000000000E+00  0.00000000000E+00  0.45593999997E+02  0.45594000000E+02  0.51100000000E-03 0. -1.
         11   -1    0    0    0    0 -0.00000000000E+00 -0.00000000000E+00 -0.45593999997E+02  0.45594000000E+02  0.51100000000E-03 0.  1.
    9900012    2    1    2    0    0  0.88704216932E+01 -0.13031051439E+02  0.27716941946E+02  0.59301928535E+02  0.49999971746E+02 0.  0.
        -12    1    1    2    0    0 -0.88704216932E+01  0.13031051439E+02 -0.27716941946E+02  0.31886071465E+02  0.00000000000E+00 0.  1.
         11    1    3    3    0    0  0.12004086233E+02 -0.52738125225E+01 -0.66627000598E+01  0.14707234857E+02  0.51100000000E-03 0.  1.
        -11    1    3    3    0    0 -0.12709082043E+02  0.36373428246E+01  0.12967178894E+02  0.18517525697E+02  0.51100000000E-03 0. -1.
         12    1    3    3    0    0  0.95754175033E+01 -0.11394581741E+02  0.21412463112E+02  0.26077167981E+02  0.00000000000E+00 0. -1.
</event>
<event>
 7    1  0.5761011E-013  0.5930195E+02  0.7816164E-02  0.1266605E+00
        -11   -1    0    0    0    0  0.00000000000E+00  0.00000000000E+00  0.45593999997E+02  0.45594000000E+02  0.51100000000E-03 0.  1.
         11   -1    0    0    0    0 -0.00000000000E+00 -0.00000000000E+00 -0.45593999997E+02  0.45594000000E+02  0.51100000000E-03 0. -1.
    9900012    2    1    2    0    0 -0.20472692285E+02  0.20617441784E+02 -0.13134318828E+02  0.59301947153E+02  0.50000005699E+02 0.  0.
        -12    1    1    2    0    0  0.20472692285E+02 -0.20617441784E+02  0.13134318828E+02  0.31886052847E+02  0.00000000000E+00 0.  1.
         11    1    3    3    0    0 -0.24330852069E+02  0.21328013200E+02 -0.16568378223E+02  0.36350868857E+02  0.51100000000E-03 0. -1.
        -11    1    3    3    0    0 -0.83580176241E+01 -0.45051882054E+01  0.36097239186E+01  0.10157917424E+02  0.51100000000E-03 0.  1.
         12    1    3    3    0    0  0.12216177408E+02  0.37946167889E+01 -0.17566452363E+00  0.12793160871E+02  0.00000000000E+00 0. -1.
</event>
<event>
 7    1  0.5761011E-013  0.5930196E+02  0.7816164E-02  0.1266605E+00
        -11   -1    0    0    0    0  0.00000000000E+00  0.00000000000E+00  0.45593999997E+02  0.45594000000E+02  0.51100000000E-03 0.  1.
         11   -1    0    0    0    0 -0.00000000000E+00 -0.00000000000E+00 -0.45593999997E+02  0.45594000000E+02  0.51100000000E-03 0. -1.
    9900012    2    1    2    0    0 -0.18894384886E+02 -0.24846336218E+02  0.65100744577E+01  0.59301964293E+02  0.50000036959E+02 0.  0.
        -12    1    1    2    0    0  0.18894384886E+02  0.24846336218E+02 -0.65100744577E+01  0.31886035707E+02  0.00000000000E+00 0.  1.
         11    1    3    3    0    0 -0.17470468266E+02  0.10062816566E+02 -0.14724688866E+01  0.20214987103E+02  0.51100000000E-03 0. -1.
        -11    1    3    3    0    0  0.61655541673E+01 -0.15524801664E+02 -0.23671334890E+00  0.16705973733E+02  0.51100000000E-03 0.  1.
         12    1    3    3    0    0 -0.75894707874E+01 -0.19384351120E+02  0.82192566932E+01  0.22381003457E+02  0.00000000000E+00 0. -1.
</event>
<event>
 7    1  0.5761011E-013  0.5930194E+02  0.7816164E-02  0.1266605E+00
        -11   -1    0    0    0    0  0.00000000000E+00  0.00000000000E+00  0.45593999997E+02  0.45594000000E+02  0.51100000000E-03 0.  1.
         11   -1    0    0    0    0 -0.00000000000E+00 -0.00000000000E+00 -0.45593999997E+02  0.45594000000E+02  0.51100000000E-03 0. -1.
    9900012    2    1    2    0    0 -0.19337578379E+02  0.25352981734E+02  0.70389260672E-01  0.59301943878E+02  0.49999999727E+02 0.  0.
        -12    1    1    2    0    0  0.19337578379E+02 -0.25352981734E+02 -0.70389260672E-01  0.31886056122E+02  0.00000000000E+00 0.  1.
         11    1    3    3    0    0 -0.30925291602E+02  0.13316029512E+02  0.49831886507E+01  0.34037074962E+02  0.51100000000E-03 0.  1.
        -11    1    3    3    0    0  0.75255914882E+01  0.16859365803E+02 -0.32829173506E+01  0.18752340897E+02  0.51100000000E-03 0. -1.
        -12    1    3    3    0    0  0.40621217341E+01 -0.48224135811E+01 -0.16298820395E+01  0.65125280185E+01  0.00000000000E+00 0.  1.
</event>
<event>
 7    1  0.5761011E-013  0.5930189E+02  0.7816164E-02  0.1266605E+00
        -11   -1    0    0    0    0  0.00000000000E+00  0.00000000000E+00  0.45593999997E+02  0.45594000000E+02  0.51100000000E-03 0. -1.
         11   -1    0    0    0    0 -0.00000000000E+00 -0.00000000000E+00 -0.45593999997E+02  0.45594000000E+02  0.51100000000E-03 0.  1.
    9900012    2    1    2    0    0  0.19694239814E+02  0.92788443698E+01  0.23297292576E+02  0.59301892115E+02  0.49999905323E+02 0.  0.
        -12    1    1    2    0    0 -0.19694239814E+02 -0.92788443698E+01 -0.23297292576E+02  0.31886107885E+02  0.00000000000E+00 0.  1.
         11    1    3    3    0    0  0.13207115297E+02  0.11975477588E+02  0.30831536275E+02  0.35614934890E+02  0.51100000000E-03 0. -1.
        -11    1    3    3    0    0  0.81382890456E+01 -0.10008752684E+02 -0.94007378074E+01  0.15961852977E+02  0.51100000000E-03 0.  1.
         12    1    3    3    0    0 -0.16511645286E+01  0.73121194656E+01  0.18664941093E+01  0.77251042479E+01  0.00000000000E+00 0. -1.
</event>
<event>
 7    1  0.5761011E-013  0.5930195E+02  0.7816164E-02  0.1266605E+00
        -11   -1    0    0    0    0  0.00000000000E+00  0.00000000000E+00  0.45593999997E+02  0.45594000000E+02  0.51100000000E-03 0.  1.
         11   -1    0    0    0    0 -0.00000000000E+00 -0.00000000000E+00 -0.45593999997E+02  0.45594000000E+02  0.51100000000E-03 0. -1.
    9900012    2    1    2    0    0  0.16272909908E+02 -0.27137675735E+02  0.39318365421E+01  0.59301946940E+02  0.50000005311E+02 0.  0.
        -12    1    1    2    0    0 -0.16272909908E+02  0.27137675735E+02 -0.39318365421E+01  0.31886053060E+02  0.00000000000E+00 0.  1.
         11    1    3    3    0    0 -0.24327174280E+01 -0.18117534406E+01 -0.76699059866E+01  0.82479102031E+01  0.51100000000E-03 0. -1.
        -11    1    3    3    0    0  0.26922768997E+02 -0.49591757219E+01  0.95620100165E+01  0.28997602489E+02  0.51100000000E-03 0.  1.
        -12    1    3    3    0    0 -0.82171416608E+01 -0.20366746572E+02  0.20397325122E+01  0.22056434248E+02  0.00000000000E+00 0.  1.
</event>
<event>
 7    1  0.5761011E-013  0.5930194E+02  0.7816164E-02  0.1266605E+00
        -11   -1    0    0    0    0  0.00000000000E+00  0.00000000000E+00  0.45593999997E+02  0.45594000000E+02  0.51100000000E-03 0.  1.
         11   -1    0    0    0    0 -0.00000000000E+00 -0.00000000000E+00 -0.45593999997E+02  0.45594000000E+02  0.51100000000E-03 0. -1.
    9900012    2    1    2    0    0  0.26241080438E+02 -0.17808735467E+02 -0.33129448654E+01  0.59301937760E+02  0.49999988569E+02 0.  0.
        -12    1    1    2    0    0 -0.26241080438E+02  0.17808735467E+02  0.33129448654E+01  0.31886062240E+02  0.00000000000E+00 0.  1.
         11    1    3    3    0    0  0.34797344424E+01 -0.77636203500E+01 -0.12796335127E+01  0.86034769086E+01  0.51100000000E-03 0. -1.
        -11    1    3    3    0    0  0.22607095063E+02  0.12459711038E+02 -0.86775734314E+01  0.27232800576E+02  0.51100000000E-03 0.  1.
        -12    1    3    3    0    0  0.15425093317E+00 -0.22504826154E+02  0.66442620787E+01  0.23465660275E+02  0.00000000000E+00 0.  1.
</event>
<event>
 7    1  0.5761011E-013  0.5930196E+02  0.7816164E-02  0.1266605E+00
        -11   -1    0    0    0    0  0.00000000000E+00  0.00000000000E+00  0.45593999997E+02  0.45594000000E+02  0.51100000000E-03 0. -1.
         11   -1    0    0    0    0 -0.00000000000E+00 -0.00000000000E+00 -0.45593999997E+02  0.45594000000E+02  0.51100000000E-03 0.  1.
    9900012    2    1    2    0    0  0.98211046874E+01  0.14700539269E+02  0.26536006323E+02  0.59301959423E+02  0.50000028078E+02 0.  0.
        -12    1    1    2    0    0 -0.98211046874E+01 -0.14700539269E+02 -0.26536006323E+02  0.31886040577E+02  0.00000000000E+00 0.  1.
         11    1    3    3    0    0 -0.23550363797E+01  0.24873798747E+02  0.11256632784E+02  0.27403719499E+02  0.51100000000E-03 0. -1.
        -11    1    3    3    0    0 -0.59761616790E+01 -0.35286142305E+01  0.94180035106E+01  0.11698906666E+02  0.51100000000E-03 0.  1.
         12    1    3    3    0    0  0.18152302746E+02 -0.66446452479E+01  0.58613700287E+01  0.20199333258E+02  0.00000000000E+00 0. -1.
</event>
<event>
 7    1  0.5761011E-013  0.5930186E+02  0.7816164E-02  0.1266605E+00
        -11   -1    0    0    0    0  0.00000000000E+00  0.00000000000E+00  0.45593999997E+02  0.45594000000E+02  0.51100000000E-03 0. -1.
         11   -1    0    0    0    0 -0.00000000000E+00 -0.00000000000E+00 -0.45593999997E+02  0.45594000000E+02  0.51100000000E-03 0.  1.
    9900012    2    1    2    0    0  0.24824701097E+02  0.17803117198E+02  0.91383380309E+01  0.59301858990E+02  0.49999844912E+02 0.  0.
        -12    1    1    2    0    0 -0.24824701097E+02 -0.17803117198E+02 -0.91383380309E+01  0.31886141010E+02  0.00000000000E+00 0.  1.
         11    1    3    3    0    0  0.21872358366E+02 -0.10370162489E+02 -0.22136975526E+01  0.24307216781E+02  0.51100000000E-03 0.  1.
        -11    1    3    3    0    0 -0.70301880400E+01  0.95390780789E+01  0.27034030415E+01  0.12154256157E+02  0.51100000000E-03 0. -1.
        -12    1    3    3    0    0  0.99825307715E+01  0.18634201608E+02  0.86486325421E+01  0.22840386052E+02  0.00000000000E+00 0.  1.
</event>
<event>
 7    1  0.5761011E-013  0.5930198E+02  0.7816164E-02  0.1266605E+00
        -11   -1    0    0    0    0  0.00000000000E+00  0.00000000000E+00  0.45593999997E+02  0.45594000000E+02  0.51100000000E-03 0. -1.
         11   -1    0    0    0    0 -0.00000000000E+00 -0.00000000000E+00 -0.45593999997E+02  0.45594000000E+02  0.51100000000E-03 0.  1.
    9900012    2    1    2    0    0  0.18594274196E+02 -0.12914746702E+02  0.22453967887E+02  0.59301978155E+02  0.50000062239E+02 0.  0.
        -12    1    1    2    0    0 -0.18594274196E+02  0.12914746702E+02 -0.22453967887E+02  0.31886021845E+02  0.00000000000E+00 0.  1.
         11    1    3    3    0    0  0.16289147606E+02 -0.20764384347E+02  0.11647457588E+02  0.28847170668E+02  0.51100000000E-03 0. -1.
        -11    1    3    3    0    0 -0.99430641570E+01  0.73570848221E+01 -0.22211411578E+01  0.12566809070E+02  0.51100000000E-03 0.  1.
        -12    1    3    3    0    0  0.12248190747E+02  0.49255282297E+00  0.13027651457E+02  0.17887998416E+02  0.00000000000E+00 0.  1.
</event>
<event>
 7    1  0.5761011E-013  0.5930167E+02  0.7816164E-02  0.1266606E+00
        -11   -1    0    0    0    0  0.00000000000E+00  0.00000000000E+00  0.45593999997E+02  0.45594000000E+02  0.51100000000E-03 0. -1.
         11   -1    0    0    0    0 -0.00000000000E+00 -0.00000000000E+00 -0.45593999997E+02  0.45594000000E+02  0.51100000000E-03 0.  1.
    9900012    2    1    2    0    0 -0.75632370138E+01 -0.30974971091E+02 -0.29435534657E+00  0.59301670119E+02  0.49999500454E+02 0.  0.
        -12    1    1    2    0    0  0.75632370138E+01  0.30974971091E+02  0.29435534657E+00  0.31886329881E+02  0.00000000000E+00 0.  1.
         11    1    3    3    0    0  0.86136858202E+01 -0.21594874188E+02  0.94765749577E+01  0.25106565831E+02  0.51100000000E-03 0. -1.
        -11    1    3    3    0    0 -0.12684957920E+02  0.45839683064E+01  0.42092466420E+01  0.14129355273E+02  0.51100000000E-03 0.  1.
         12    1    3    3    0    0 -0.34919649141E+01 -0.13964065209E+02 -0.13980176946E+02  0.20065749016E+02  0.00000000000E+00 0. -1.
</event>
<event>
 7    1  0.5761011E-013  0.5930194E+02  0.7816164E-02  0.1266605E+00
        -11   -1    0    0    0    0  0.00000000000E+00  0.00000000000E+00  0.45593999997E+02  0.45594000000E+02  0.51100000000E-03 0.  1.
         11   -1    0    0    0    0 -0.00000000000E+00 -0.00000000000E+00 -0.45593999997E+02  0.45594000000E+02  0.51100000000E-03 0. -1.
    9900012    2    1    2    0    0 -0.19604125071E+02  0.16582737230E+02 -0.18905348924E+02  0.59301935461E+02  0.49999984376E+02 0.  0.
        -12    1    1    2    0    0  0.19604125071E+02 -0.16582737230E+02  0.18905348924E+02  0.31886064539E+02  0.00000000000E+00 0.  1.
         11    1    3    3    0    0 -0.11740432712E+02  0.53850074325E+01 -0.22280842827E+02  0.25754068079E+02  0.51100000000E-03 0. -1.
        -11    1    3    3    0    0 -0.38599215435E+01  0.21729086993E+02  0.30255314882E+01  0.22275683085E+02  0.51100000000E-03 0.  1.
        -12    1    3    3    0    0 -0.40037708159E+01 -0.10531357196E+02  0.34996241420E+00  0.11272184297E+02  0.00000000000E+00 0.  1.
</event>
<event>
 7    1  0.5761011E-013  0.5930193E+02  0.7816164E-02  0.1266605E+00
        -11   -1    0    0    0    0  0.00000000000E+00  0.00000000000E+00  0.45593999997E+02  0.45594000000E+02  0.51100000000E-03 0.  1.
         11   -1    0    0    0    0 -0.00000000000E+00 -0.00000000000E+00 -0.45593999997E+02  0.45594000000E+02  0.51100000000E-03 0. -1.
    9900012    2    1    2    0    0 -0.19764671274E+02  0.19335989674E+02 -0.15880775634E+02  0.59301925266E+02  0.49999965783E+02 0.  0.
        -12    1    1    2    0    0  0.19764671274E+02 -0.19335989674E+02  0.15880775634E+02  0.31886074734E+02  0.00000000000E+00 0.  1.
         11    1    3    3    0    0 -0.82517872550E+01  0.55715224757E+01 -0.61709810667E+01  0.11713874815E+02  0.51100000000E-03 0. -1.
        -11    1    3    3    0    0  0.13270770510E+02 -0.58626760553E+01  0.28197792424E-01  0.14508105177E+02  0.51100000000E-03 0.  1.
        -12    1    3    3    0    0 -0.24783654529E+02  0.19627143253E+02 -0.97379923595E+01  0.33079945273E+02  0.00000000000E+00 0.  1.
</event>
<event>
 7    1  0.5761011E-013  0.5930194E+02  0.7816164E-02  0.1266605E+00
        -11   -1    0    0    0    0  0.00000000000E+00  0.00000000000E+00  0.45593999997E+02  0.45594000000E+02  0.51100000000E-03 0.  1.
         11   -1    0    0    0    0 -0.00000000000E+00 -0.00000000000E+00 -0.45593999997E+02  0.45594000000E+02  0.51100000000E-03 0. -1.
    9900012    2    1    2    0    0  0.64354568117E+00  0.18276046038E+02 -0.26120731396E+02  0.59301943196E+02  0.49999998483E+02 0.  0.
        -12    1    1    2    0    0 -0.64354568117E+00 -0.18276046038E+02  0.26120731396E+02  0.31886056804E+02  0.00000000000E+00 0.  1.
         11    1    3    3    0    0  0.14947656745E+02  0.13023430895E+02 -0.43922135131E+01  0.20306002419E+02  0.51100000000E-03 0. -1.
        -11    1    3    3    0    0 -0.13210362936E+02  0.15277160758E+02 -0.20599907532E+02  0.28848943140E+02  0.51100000000E-03 0.  1.
        -12    1    3    3    0    0 -0.10937481277E+01 -0.10024545614E+02 -0.11286103514E+01  0.10146997637E+02  0.00000000000E+00 0.  1.
</event>
<event>
 7    1  0.5761011E-013  0.5930196E+02  0.7816164E-02  0.1266605E+00
        -11   -1    0    0    0    0  0.00000000000E+00  0.00000000000E+00  0.45593999997E+02  0.45594000000E+02  0.51100000000E-03 0.  1.
         11   -1    0    0    0    0 -0.00000000000E+00 -0.00000000000E+00 -0.45593999997E+02  0.45594000000E+02  0.51100000000E-03 0. -1.
    9900012    2    1    2    0    0 -0.86699950068E+01 -0.26652302185E+02  0.15205452157E+02  0.59301956024E+02  0.50000021878E+02 0.  0.
        -12    1    1    2    0    0  0.86699950068E+01  0.26652302185E+02 -0.15205452157E+02  0.31886043976E+02  0.00000000000E+00 0.  1.
         11    1    3    3    0    0  0.16239255534E+02 -0.10591033993E+02 -0.53749220929E+01  0.20118976343E+02  0.51100000000E-03 0. -1.
        -11    1    3    3    0    0 -0.12688848560E+02 -0.55945846259E+01  0.18256314802E+02  0.22925952222E+02  0.51100000000E-03 0.  1.
         12    1    3    3    0    0 -0.12220401981E+02 -0.10466683566E+02  0.23240594484E+01  0.16257027458E+02  0.00000000000E+00 0. -1.
</event>
<event>
 7    1  0.5761011E-013  0.5930195E+02  0.7816164E-02  0.1266605E+00
        -11   -1    0    0    0    0  0.00000000000E+00  0.00000000000E+00  0.45593999997E+02  0.45594000000E+02  0.51100000000E-03 0.  1.
         11   -1    0    0    0    0 -0.00000000000E+00 -0.00000000000E+00 -0.45593999997E+02  0.45594000000E+02  0.51100000000E-03 0. -1.
    9900012    2    1    2    0    0  0.12377156744E+02  0.24484330728E+02 -0.16249426228E+02  0.59301947987E+02  0.50000007221E+02 0.  0.
        -12    1    1    2    0    0 -0.12377156744E+02 -0.24484330728E+02  0.16249426228E+02  0.31886052013E+02  0.00000000000E+00 0.  1.
         11    1    3    3    0    0 -0.13243706450E+02 -0.49812049251E+01 -0.11644886817E+02  0.18325161726E+02  0.51100000000E-03 0. -1.
        -11    1    3    3    0    0  0.15170914073E+02  0.13665762695E+02 -0.76228708185E+01  0.21794904533E+02  0.51100000000E-03 0.  1.
         12    1    3    3    0    0  0.10449949121E+02  0.15799772958E+02  0.30183314075E+01  0.19181881728E+02  0.00000000000E+00 0. -1.
</event>
<event>
 7    1  0.5761011E-013  0.5930199E+02  0.7816164E-02  0.1266605E+00
        -11   -1    0    0    0    0  0.00000000000E+00  0.00000000000E+00  0.45593999997E+02  0.45594000000E+02  0.51100000000E-03 0.  1.
         11   -1    0    0    0    0 -0.00000000000E+00 -0.00000000000E+00 -0.45593999997E+02  0.45594000000E+02  0.51100000000E-03 0. -1.
    9900012    2    1    2    0    0 -0.12149458214E+02  0.26976007793E+02 -0.11891299539E+02  0.59301994667E+02  0.50000092354E+02 0.  0.
        -12    1    1    2    0    0  0.12149458214E+02 -0.26976007793E+02  0.11891299539E+02  0.31886005333E+02  0.00000000000E+00 0.  1.
         11    1    3    3    0    0 -0.15265969561E+02  0.23809226483E+02 -0.25561310684E+02  0.38122299203E+02  0.51100000000E-03 0. -1.
        -11    1    3    3    0    0  0.83189598216E+01  0.16237117056E+01  0.13260331717E+02  0.15737786684E+02  0.51100000000E-03 0.  1.
         12    1    3    3    0    0 -0.52024484750E+01  0.15430696040E+01  0.40967942776E+00  0.54419087801E+01  0.00000000000E+00 0. -1.
</event>
<event>
 7    1  0.5761011E-013  0.5930196E+02  0.7816164E-02  0.1266605E+00
        -11   -1    0    0    0    0  0.00000000000E+00  0.00000000000E+00  0.45593999997E+02  0.45594000000E+02  0.51100000000E-03 0.  1.
         11   -1    0    0    0    0 -0.00000000000E+00 -0.00000000000E+00 -0.45593999997E+02  0.45594000000E+02  0.51100000000E-03 0. -1.
    9900012    2    1    2    0    0  0.25297893136E+02 -0.10908444550E+01 -0.19379019608E+02  0.59301956976E+02  0.50000023615E+02 0.  0.
        -12    1    1    2    0    0 -0.25297893136E+02  0.10908444550E+01  0.19379019608E+02  0.31886043024E+02  0.00000000000E+00 0.  1.
         11    1    3    3    0    0  0.10701126236E+02 -0.60432794551E+01 -0.18027332034E+02  0.21817883257E+02  0.51100000000E-03 0. -1.
        -11    1    3    3    0    0  0.17361123253E+02  0.17276200570E+02  0.14924902653E+01  0.24537791958E+02  0.51100000000E-03 0.  1.
        -12    1    3    3    0    0 -0.27643563537E+01 -0.12323765569E+02 -0.28441778397E+01  0.12946281761E+02  0.00000000000E+00 0.  1.
</event>
<event>
 7    1  0.5761011E-013  0.5930193E+02  0.7816164E-02  0.1266605E+00
        -11   -1    0    0    0    0  0.00000000000E+00  0.00000000000E+00  0.45593999997E+02  0.45594000000E+02  0.51100000000E-03 0. -1.
         11   -1    0    0    0    0 -0.00000000000E+00 -0.00000000000E+00 -0.45593999997E+02  0.45594000000E+02  0.51100000000E-03 0.  1.
    9900012    2    1    2    0    0  0.62915448375E+01  0.56336167068E+01  0.30747363492E+02  0.59301928820E+02  0.49999972264E+02 0.  0.
        -12    1    1    2    0    0 -0.62915448375E+01 -0.56336167068E+01 -0.30747363492E+02  0.31886071180E+02  0.00000000000E+00 0.  1.
         11    1    3    3    0    0 -0.64357809278E+01 -0.56605182216E+01  0.84453366887E+01  0.12032641220E+02  0.51100000000E-03 0. -1.
        -11    1    3    3    0    0  0.18105390007E+02  0.22125095276E+02  0.10743017901E+02  0.30540750190E+02  0.51100000000E-03 0.  1.
        -12    1    3    3    0    0 -0.53780642422E+01 -0.10830960348E+02  0.11559008902E+02  0.16728537409E+02  0.00000000000E+00 0.  1.
</event>
<event>
 7    1  0.5761011E-013  0.5930193E+02  0.7816164E-02  0.1266605E+00
        -11   -1    0    0    0    0  0.00000000000E+00  0.00000000000E+00  0.45593999997E+02  0.45594000000E+02  0.51100000000E-03 0. -1.
         11   -1    0    0    0    0 -0.00000000000E+00 -0.00000000000E+00 -0.45593999997E+02  0.45594000000E+02  0.51100000000E-03 0.  1.
    9900012    2    1    2    0    0 -0.69936861757E+01  0.19180551129E+02  0.24493181918E+02  0.59301934887E+02  0.49999983329E+02 0.  0.
        -12    1    1    2    0    0  0.69936861757E+01 -0.19180551129E+02 -0.24493181918E+02  0.31886065113E+02  0.00000000000E+00 0.  1.
         11    1    3    3    0    0  0.28330033430E+01  0.20647384212E+02  0.26519225384E+01  0.21008880888E+02  0.51100000000E-03 0. -1.
        -11    1    3    3    0    0 -0.31838735860E+01 -0.15487539525E+02  0.93027301681E+01  0.18345073464E+02  0.51100000000E-03 0.  1.
        -12    1    3    3    0    0 -0.66428159327E+01  0.14020706442E+02  0.12538529211E+02  0.19947980535E+02  0.00000000000E+00 0.  1.
</event>
<event>
 7    1  0.5761011E-013  0.5930189E+02  0.7816164E-02  0.1266605E+00
        -11   -1    0    0    0    0  0.00000000000E+00  0.00000000000E+00  0.45593999997E+02  0.45594000000E+02  0.51100000000E-03 0.  1.
         11   -1    0    0    0    0 -0.00000000000E+00 -0.00000000000E+00 -0.45593999997E+02  0.45594000000E+02  0.51100000000E-03 0. -1.
    9900012    2    1    2    0    0 -0.24828295386E+02 -0.75896900575E+00 -0.19992586351E+02  0.59301893390E+02  0.49999907649E+02 0.  0.
        -12    1    1    2    0    0  0.24828295386E+02  0.75896900575E+00  0.19992586351E+02  0.31886106610E+02  0.00000000000E+00 0.  1.
         11    1    3    3    0    0  0.35945424871E+01  0.92968402877E+01  0.68461810344E+01  0.12092235941E+02  0.51100000000E-03 0.  1.
        -11    1    3    3    0    0 -0.25987243891E+02  0.46631106914E+00 -0.11432234149E+02  0.28394546465E+02  0.51100000000E-03 0. -1.
         12    1    3    3    0    0 -0.24355939816E+01 -0.10522120363E+02 -0.15406533237E+02  0.18815110984E+02  0.00000000000E+00 0. -1.
</event>
<event>
 7    1  0.5761011E-013  0.5930192E+02  0.7816164E-02  0.1266605E+00
        -11   -1    0    0    0    0  0.00000000000E+00  0.00000000000E+00  0.45593999997E+02  0.45594000000E+02  0.51100000000E-03 0. -1.
         11   -1    0    0    0    0 -0.00000000000E+00 -0.00000000000E+00 -0.45593999997E+02  0.45594000000E+02  0.51100000000E-03 0.  1.
    9900012    2    1    2    0    0  0.16310788736E+02 -0.32122140470E+01  0.27209589367E+02  0.59301923073E+02  0.49999961784E+02 0.  0.
        -12    1    1    2    0    0 -0.16310788736E+02  0.32122140470E+01 -0.27209589367E+02  0.31886076927E+02  0.00000000000E+00 0.  1.
         11    1    3    3    0    0 -0.10273841353E+02  0.12137200408E+02  0.12449405283E+02  0.20195324757E+02  0.51100000000E-03 0. -1.
        -11    1    3    3    0    0  0.17862839467E+02 -0.16966396002E+02  0.36742405248E+01  0.24908626434E+02  0.51100000000E-03 0.  1.
        -12    1    3    3    0    0  0.87217906221E+01  0.16169815471E+01  0.11085943559E+02  0.14197971882E+02  0.00000000000E+00 0.  1.
</event>
<event>
 7    1  0.5761011E-013  0.5930198E+02  0.7816164E-02  0.1266605E+00
        -11   -1    0    0    0    0  0.00000000000E+00  0.00000000000E+00  0.45593999997E+02  0.45594000000E+02  0.51100000000E-03 0. -1.
         11   -1    0    0    0    0 -0.00000000000E+00 -0.00000000000E+00 -0.45593999997E+02  0.45594000000E+02  0.51100000000E-03 0.  1.
    9900012    2    1    2    0    0 -0.29282100420E+02  0.38254350740E+01  0.12026763342E+02  0.59301978062E+02  0.50000062071E+02 0.  0.
        -12    1    1    2    0    0  0.29282100420E+02 -0.38254350740E+01 -0.12026763342E+02  0.31886021938E+02  0.00000000000E+00 0.  1.
         11    1    3    3    0    0 -0.31945127567E+02  0.10682728537E+02  0.21301991090E+02  0.39854569235E+02  0.51100000000E-03 0. -1.
        -11    1    3    3    0    0 -0.52397399733E+01 -0.66653413387E+01 -0.75577932935E+01  0.11357899889E+02  0.51100000000E-03 0.  1.
         12    1    3    3    0    0  0.79027671197E+01 -0.19195212403E+00 -0.17174344544E+01  0.80895089388E+01  0.00000000000E+00 0. -1.
</event>
<event>
 7    1  0.5761011E-013  0.5930197E+02  0.7816164E-02  0.1266605E+00
        -11   -1    0    0    0    0  0.00000000000E+00  0.00000000000E+00  0.45593999997E+02  0.45594000000E+02  0.51100000000E-03 0.  1.
         11   -1    0    0    0    0 -0.00000000000E+00 -0.00000000000E+00 -0.45593999997E+02  0.45594000000E+02  0.51100000000E-03 0. -1.
    9900012    2    1    2    0    0  0.45864287026E+01 -0.15577222243E+02 -0.27441459535E+02  0.59301970418E+02  0.50000048130E+02 0.  0.
        -12    1    1    2    0    0 -0.45864287026E+01  0.15577222243E+02  0.27441459535E+02  0.31886029582E+02  0.00000000000E+00 0.  1.
         11    1    3    3    0    0 -0.78304272671E+01 -0.72231510553E+01 -0.30087760543E+02  0.31918064432E+02  0.51100000000E-03 0. -1.
        -11    1    3    3    0    0  0.15614565923E+02 -0.71776112829E+01  0.95678403954E+01  0.19669172397E+02  0.51100000000E-03 0.  1.
        -12    1    3    3    0    0 -0.31977099532E+01 -0.11764599051E+01 -0.69215393876E+01  0.77147335889E+01  0.00000000000E+00 0.  1.
</event>
<event>
 7    1  0.5761011E-013  0.5930199E+02  0.7816164E-02  0.1266605E+00
        -11   -1    0    0    0    0  0.00000000000E+00  0.00000000000E+00  0.45593999997E+02  0.45594000000E+02  0.51100000000E-03 0.  1.
         11   -1    0    0    0    0 -0.00000000000E+00 -0.00000000000E+00 -0.45593999997E+02  0.45594000000E+02  0.51100000000E-03 0. -1.
    9900012    2    1    2    0    0 -0.11931112049E+01  0.81694825371E+01 -0.30798599751E+02  0.59301988868E+02  0.50000081778E+02 0.  0.
        -12    1    1    2    0    0  0.11931112049E+01 -0.81694825371E+01  0.30798599751E+02  0.31886011132E+02  0.00000000000E+00 0.  1.
         11    1    3    3    0    0  0.28583944978E+01 -0.12508950764E+02 -0.29822922997E+02  0.32466151677E+02  0.51100000000E-03 0. -1.
        -11    1    3    3    0    0 -0.96733936861E+01  0.17833486002E+02 -0.22337650902E+01  0.20410719613E+02  0.51100000000E-03 0.  1.
        -12    1    3    3    0    0  0.56218879834E+01  0.28449472992E+01  0.12580883362E+01  0.64251175783E+01  0.00000000000E+00 0.  1.
</event>
<event>
 7    1  0.5761011E-013  0.5930195E+02  0.7816164E-02  0.1266605E+00
        -11   -1    0    0    0    0  0.00000000000E+00  0.00000000000E+00  0.45593999997E+02  0.45594000000E+02  0.51100000000E-03 0. -1.
         11   -1    0    0    0    0 -0.00000000000E+00 -0.00000000000E+00 -0.45593999997E+02  0.45594000000E+02  0.51100000000E-03 0.  1.
    9900012    2    1    2    0    0  0.22001764480E+02 -0.15764597448E+01  0.23025150425E+02  0.59301946346E+02  0.50000004227E+02 0.  0.
        -12    1    1    2    0    0 -0.22001764480E+02  0.15764597448E+01 -0.23025150425E+02  0.31886053654E+02  0.00000000000E+00 0.  1.
         11    1    3    3    0    0  0.10196751940E+02  0.89385746049E+01  0.12639231555E+02  0.18537045090E+02  0.51100000000E-03 0. -1.
        -11    1    3    3    0    0  0.12592420069E+02 -0.16823666961E+02  0.20149619587E+02  0.29113776515E+02  0.51100000000E-03 0.  1.
        -12    1    3    3    0    0 -0.78740752991E+00  0.63086326109E+01 -0.97637007169E+01  0.11651124741E+02  0.00000000000E+00 0.  1.
</event>
<event>
 7    1  0.5761011E-013  0.5930194E+02  0.7816164E-02  0.1266605E+00
        -11   -1    0    0    0    0  0.00000000000E+00  0.00000000000E+00  0.45593999997E+02  0.45594000000E+02  0.51100000000E-03 0.  1.
         11   -1    0    0    0    0 -0.00000000000E+00 -0.00000000000E+00 -0.45593999997E+02  0.45594000000E+02  0.51100000000E-03 0. -1.
    9900012    2    1    2    0    0 -0.37731735437E+01 -0.53388569271E+00 -0.31657528643E+02  0.59301937334E+02  0.49999987793E+02 0.  0.
        -12    1    1    2    0    0  0.37731735437E+01  0.53388569271E+00  0.31657528643E+02  0.31886062666E+02  0.00000000000E+00 0.  1.
         11    1    3    3    0    0  0.17951016849E+02  0.13129043412E+02 -0.23320561067E+02  0.32225135463E+02  0.51100000000E-03 0. -1.
        -11    1    3    3    0    0 -0.11607501295E+02 -0.81753989436E+01 -0.37260327465E+01  0.14678370294E+02  0.51100000000E-03 0.  1.
         12    1    3    3    0    0 -0.10116689098E+02 -0.54875301615E+01 -0.46109348301E+01  0.12398431578E+02  0.00000000000E+00 0. -1.
</event>
<event>
 7    1  0.5761011E-013  0.5930195E+02  0.7816164E-02  0.1266605E+00
        -11   -1    0    0    0    0  0.00000000000E+00  0.00000000000E+00  0.45593999997E+02  0.45594000000E+02  0.51100000000E-03 0. -1.
         11   -1    0    0    0    0 -0.00000000000E+00 -0.00000000000E+00 -0.45593999997E+02  0.45594000000E+02  0.51100000000E-03 0.  1.
    9900012    2    1    2    0    0 -0.35715603311E+00 -0.23702458825E+02  0.21325717965E+02  0.59301947226E+02  0.50000005833E+02 0.  0.
        -12    1    1    2    0    0  0.35715603311E+00  0.23702458825E+02 -0.21325717965E+02  0.31886052774E+02  0.00000000000E+00 0.  1.
         11    1    3    3    0    0 -0.14778791465E+02 -0.17825160471E+02 -0.47309220825E+01  0.23633252992E+02  0.51100000000E-03 0.  1.
        -11    1    3    3    0    0  0.14661004790E+01  0.54929436972E+01  0.19034971819E+01  0.59954301645E+01  0.51100000000E-03 0. -1.
         12    1    3    3    0    0  0.12955534953E+02 -0.11370242051E+02  0.24153142866E+02  0.29673264069E+02  0.00000000000E+00 0. -1.
</event>
<event>
 7    1  0.5761011E-013  0.5930195E+02  0.7816164E-02  0.1266605E+00
        -11   -1    0    0    0    0  0.00000000000E+00  0.00000000000E+00  0.45593999997E+02  0.45594000000E+02  0.51100000000E-03 0. -1.
         11   -1    0    0    0    0 -0.00000000000E+00 -0.00000000000E+00 -0.45593999997E+02  0.45594000000E+02  0.51100000000E-03 0.  1.
    9900012    2    1    2    0    0  0.21239480031E+02  0.36852175265E+01  0.23495191254E+02  0.59301947371E+02  0.50000006097E+02 0.  0.
        -12    1    1    2    0    0 -0.21239480031E+02 -0.36852175265E+01 -0.23495191254E+02  0.31886052629E+02  0.00000000000E+00 0.  1.
         11    1    3    3    0    0  0.11084965330E+02  0.96960834928E+01  0.17886387265E+02  0.23169232640E+02  0.51100000000E-03 0. -1.
        -11    1    3    3    0    0 -0.42435664953E+01 -0.12825805519E+02 -0.75454983116E+01  0.15473968103E+02  0.51100000000E-03 0.  1.
        -12    1    3    3    0    0  0.14398081196E+02  0.68149395529E+01  0.13154302300E+02  0.20658746628E+02  0.00000000000E+00 0.  1.
</event>
<event>
 7    1  0.5761011E-013  0.5930189E+02  0.7816164E-02  0.1266605E+00
        -11   -1    0    0    0    0  0.00000000000E+00  0.00000000000E+00  0.45593999997E+02  0.45594000000E+02  0.51100000000E-03 0.  1.
         11   -1    0    0    0    0 -0.00000000000E+00 -0.00000000000E+00 -0.45593999997E+02  0.45594000000E+02  0.51100000000E-03 0. -1.
    9900012    2    1    2    0    0  0.15208491921E+02 -0.25333195411E+02 -0.11985604799E+02  0.59301894270E+02  0.49999909254E+02 0.  0.
        -12    1    1    2    0    0 -0.15208491921E+02  0.25333195411E+02  0.11985604799E+02  0.31886105730E+02  0.00000000000E+00 0.  1.
         11    1    3    3    0    0  0.78582677983E+01 -0.36068789889E+02 -0.19299225228E+02  0.41655372661E+02  0.51100000000E-03 0. -1.
        -11    1    3    3    0    0  0.69186786894E+01  0.24379300832E+01  0.14515452597E+01  0.74778741498E+01  0.51100000000E-03 0.  1.
         12    1    3    3    0    0  0.43154543312E+00  0.82976643948E+01  0.58620751693E+01  0.10168647460E+02  0.00000000000E+00 0. -1.
</event>
<event>
 7    1  0.5761011E-013  0.5930199E+02  0.7816164E-02  0.1266605E+00
        -11   -1    0    0    0    0  0.00000000000E+00  0.00000000000E+00  0.45593999997E+02  0.45594000000E+02  0.51100000000E-03 0.  1.
         11   -1    0    0    0    0 -0.00000000000E+00 -0.00000000000E+00 -0.45593999997E+02  0.45594000000E+02  0.51100000000E-03 0. -1.
    9900012    2    1    2    0    0  0.11918671074E+02  0.29341680323E+02  0.37052127819E+01  0.59301991688E+02  0.50000086921E+02 0.  0.
        -12    1    1    2    0    0 -0.11918671074E+02 -0.29341680323E+02 -0.37052127819E+01  0.31886008312E+02  0.00000000000E+00 0.  1.
         11    1    3    3    0    0 -0.13880751261E+02  0.10078437639E+02 -0.90455199045E+01  0.19392565365E+02  0.51100000000E-03 0. -1.
        -11    1    3    3    0    0  0.15315645035E+01  0.89462519998E+01  0.98281618411E+01  0.13378111978E+02  0.51100000000E-03 0.  1.
         12    1    3    3    0    0  0.24267857832E+02  0.10316990684E+02  0.29225708454E+01  0.26531314345E+02  0.00000000000E+00 0. -1.
</event>
<event>
 7    1  0.5761011E-013  0.5930198E+02  0.7816164E-02  0.1266605E+00
        -11   -1    0    0    0    0  0.00000000000E+00  0.00000000000E+00  0.45593999997E+02  0.45594000000E+02  0.51100000000E-03 0. -1.
         11   -1    0    0    0    0 -0.00000000000E+00 -0.00000000000E+00 -0.45593999997E+02  0.45594000000E+02  0.51100000000E-03 0.  1.
    9900012    2    1    2    0    0 -0.20294647694E+02 -0.80017021407E+01  0.23255504439E+02  0.59301977218E+02  0.50000060531E+02 0.  0.
        -12    1    1    2    0    0  0.20294647694E+02  0.80017021407E+01 -0.23255504439E+02  0.31886022782E+02  0.00000000000E+00 0.  1.
         11    1    3    3    0    0 -0.22049211527E+02  0.43506479722E+01 -0.75091892979E+00  0.22486879424E+02  0.51100000000E-03 0. -1.
        -11    1    3    3    0    0  0.51017899398E+01 -0.55098752533E+01 -0.34918366217E+01  0.82812987599E+01  0.51100000000E-03 0.  1.
         12    1    3    3    0    0 -0.33472261065E+01 -0.68424748596E+01  0.27498259990E+02  0.28533799034E+02  0.00000000000E+00 0. -1.
</event>
<event>
 7    1  0.5761011E-013  0.5930194E+02  0.7816164E-02  0.1266605E+00
        -11   -1    0    0    0    0  0.00000000000E+00  0.00000000000E+00  0.45593999997E+02  0.45594000000E+02  0.51100000000E-03 0.  1.
         11   -1    0    0    0    0 -0.00000000000E+00 -0.00000000000E+00 -0.45593999997E+02  0.45594000000E+02  0.51100000000E-03 0. -1.
    9900012    2    1    2    0    0 -0.24923725071E+02  0.12568256945E+02 -0.15413231292E+02  0.59301939520E+02  0.49999991780E+02 0.  0.
        -12    1    1    2    0    0  0.24923725071E+02 -0.12568256945E+02  0.15413231292E+02  0.31886060480E+02  0.00000000000E+00 0.  1.
         11    1    3    3    0    0 -0.16479238200E+02  0.21657908756E+02 -0.27201163467E+02  0.38477702602E+02  0.51100000000E-03 0. -1.
        -11    1    3    3    0    0 -0.10746499134E+02 -0.96630403996E+01  0.84888151031E+01  0.16760715245E+02  0.51100000000E-03 0.  1.
         12    1    3    3    0    0  0.23020122626E+01  0.57338858841E+00  0.32991170725E+01  0.40635216732E+01  0.00000000000E+00 0. -1.
</event>
<event>
 7    1  0.5761011E-013  0.5930198E+02  0.7816164E-02  0.1266605E+00
        -11   -1    0    0    0    0  0.00000000000E+00  0.00000000000E+00  0.45593999997E+02  0.45594000000E+02  0.51100000000E-03 0.  1.
         11   -1    0    0    0    0 -0.00000000000E+00 -0.00000000000E+00 -0.45593999997E+02  0.45594000000E+02  0.51100000000E-03 0. -1.
    9900012    2    1    2    0    0 -0.29059045775E+02  0.81434031642E+01  0.10294433376E+02  0.59301976181E+02  0.50000058640E+02 0.  0.
        -12    1    1    2    0    0  0.29059045775E+02 -0.81434031642E+01 -0.10294433376E+02  0.31886023819E+02  0.00000000000E+00 0.  1.
         11    1    3    3    0    0 -0.18784188459E+02  0.12608380598E+01  0.75403389037E+01  0.20280339241E+02  0.51100000000E-03 0. -1.
        -11    1    3    3    0    0  0.98810942947E+01  0.10205911368E+02 -0.76093030327E+01  0.16115152627E+02  0.51100000000E-03 0.  1.
        -12    1    3    3    0    0 -0.20155951611E+02 -0.33233462631E+01  0.10363397505E+02  0.22906484313E+02  0.00000000000E+00 0.  1.
</event>
<event>
 7    1  0.5761011E-013  0.5930197E+02  0.7816164E-02  0.1266605E+00
        -11   -1    0    0    0    0  0.00000000000E+00  0.00000000000E+00  0.45593999997E+02  0.45594000000E+02  0.51100000000E-03 0.  1.
         11   -1    0    0    0    0 -0.00000000000E+00 -0.00000000000E+00 -0.45593999997E+02  0.45594000000E+02  0.51100000000E-03 0. -1.
    9900012    2    1    2    0    0 -0.24024917031E+02  0.17201381770E+02 -0.11984782078E+02  0.59301965838E+02  0.50000039777E+02 0.  0.
        -12    1    1    2    0    0  0.24024917031E+02 -0.17201381770E+02  0.11984782078E+02  0.31886034162E+02  0.00000000000E+00 0.  1.
         11    1    3    3    0    0 -0.59818358587E+01  0.17503482466E+02  0.25188193597E+00  0.18499127099E+02  0.51100000000E-03 0. -1.
        -11    1    3    3    0    0 -0.20030990954E+02 -0.94687137783E+01 -0.19041835817E+02  0.29214528077E+02  0.51100000000E-03 0.  1.
        -12    1    3    3    0    0  0.19879097825E+01  0.91666130827E+01  0.68051718032E+01  0.11588310661E+02  0.00000000000E+00 0.  1.
</event>
<event>
 7    1  0.5761011E-013  0.5930194E+02  0.7816164E-02  0.1266605E+00
        -11   -1    0    0    0    0  0.00000000000E+00  0.00000000000E+00  0.45593999997E+02  0.45594000000E+02  0.51100000000E-03 0. -1.
         11   -1    0    0    0    0 -0.00000000000E+00 -0.00000000000E+00 -0.45593999997E+02  0.45594000000E+02  0.51100000000E-03 0.  1.
    9900012    2    1    2    0    0  0.89764565717E+01  0.19988982820E+02  0.23164302876E+02  0.59301935105E+02  0.49999983728E+02 0.  0.
        -12    1    1    2    0    0 -0.89764565717E+01 -0.19988982820E+02 -0.23164302876E+02  0.31886064895E+02  0.00000000000E+00 0.  1.
         11    1    3    3    0    0  0.24560765817E+02  0.20596721344E+02  0.25393175318E+02  0.40893391894E+02  0.51100000000E-03 0. -1.
        -11    1    3    3    0    0 -0.95831783917E+01 -0.34330256287E+01 -0.48507692888E+01  0.11276211066E+02  0.51100000000E-03 0.  1.
         12    1    3    3    0    0 -0.60011308537E+01  0.28252871051E+01  0.26218968462E+01  0.71323321446E+01  0.00000000000E+00 0. -1.
</event>
<event>
 7    1  0.5761011E-013  0.5930195E+02  0.7816164E-02  0.1266605E+00
        -11   -1    0    0    0    0  0.00000000000E+00  0.00000000000E+00  0.45593999997E+02  0.45594000000E+02  0.51100000000E-03 0. -1.
         11   -1    0    0    0    0 -0.00000000000E+00 -0.00000000000E+00 -0.45593999997E+02  0.45594000000E+02  0.51100000000E-03 0.  1.
    9900012    2    1    2    0    0  0.14941339229E+02 -0.27585644596E+02  0.57016290393E+01  0.59301953217E+02  0.50000016759E+02 0.  0.
        -12    1    1    2    0    0 -0.14941339229E+02  0.27585644596E+02 -0.57016290393E+01  0.31886046783E+02  0.00000000000E+00 0.  1.
         11    1    3    3    0    0  0.18836042161E+01 -0.22115582907E+02  0.15403987576E+02  0.27017213136E+02  0.51100000000E-03 0. -1.
        -11    1    3    3    0    0  0.75087495025E+00  0.52374355326E+01 -0.14373397309E+02  0.15316301597E+02  0.51100000000E-03 0.  1.
        -12    1    3    3    0    0  0.12306860063E+02 -0.10707497222E+02  0.46710387727E+01  0.16968438483E+02  0.00000000000E+00 0.  1.
</event>
<event>
 7    1  0.5761011E-013  0.5930194E+02  0.7816164E-02  0.1266605E+00
        -11   -1    0    0    0    0  0.00000000000E+00  0.00000000000E+00  0.45593999997E+02  0.45594000000E+02  0.51100000000E-03 0. -1.
         11   -1    0    0    0    0 -0.00000000000E+00 -0.00000000000E+00 -0.45593999997E+02  0.45594000000E+02  0.51100000000E-03 0.  1.
    9900012    2    1    2    0    0 -0.77310108583E+00 -0.12469710839E+02  0.29336486410E+02  0.59301940215E+02  0.49999993047E+02 0.  0.
        -12    1    1    2    0    0  0.77310108583E+00  0.12469710839E+02 -0.29336486410E+02  0.31886059785E+02  0.00000000000E+00 0.  1.
         11    1    3    3    0    0 -0.86177915855E+01 -0.51283879631E+01  0.39069453751E+02  0.40335950610E+02  0.51100000000E-03 0. -1.
        -11    1    3    3    0    0 -0.20704918979E+01 -0.12804018123E+01 -0.64441698675E+01  0.68886639519E+01  0.51100000000E-03 0.  1.
         12    1    3    3    0    0  0.99151823975E+01 -0.60609210640E+01 -0.32887974736E+01  0.12077325654E+02  0.00000000000E+00 0. -1.
</event>
<event>
 7    1  0.5761011E-013  0.5930196E+02  0.7816164E-02  0.1266605E+00
        -11   -1    0    0    0    0  0.00000000000E+00  0.00000000000E+00  0.45593999997E+02  0.45594000000E+02  0.51100000000E-03 0.  1.
         11   -1    0    0    0    0 -0.00000000000E+00 -0.00000000000E+00 -0.45593999997E+02  0.45594000000E+02  0.51100000000E-03 0. -1.
    9900012    2    1    2    0    0  0.17184174065E+02  0.26844191806E+02 -0.90177989795E+00  0.59301957928E+02  0.50000025351E+02 0.  0.
        -12    1    1    2    0    0 -0.17184174065E+02 -0.26844191806E+02  0.90177989795E+00  0.31886042072E+02  0.00000000000E+00 0.  1.
         11    1    3    3    0    0 -0.10548379718E+01  0.43356548020E+01  0.20501558632E+02  0.20981527407E+02  0.51100000000E-03 0.  1.
        -11    1    3    3    0    0  0.71248716705E+01  0.16439955587E+02 -0.17558502640E+02  0.25086589071E+02  0.51100000000E-03 0. -1.
        -12    1    3    3    0    0  0.11114140366E+02  0.60685814172E+01 -0.38448358907E+01  0.13233841450E+02  0.00000000000E+00 0.  1.
</event>
<event>
 7    1  0.5761011E-013  0.5930195E+02  0.7816164E-02  0.1266605E+00
        -11   -1    0    0    0    0  0.00000000000E+00  0.00000000000E+00  0.45593999997E+02  0.45594000000E+02  0.51100000000E-03 0.  1.
         11   -1    0    0    0    0 -0.00000000000E+00 -0.00000000000E+00 -0.45593999997E+02  0.45594000000E+02  0.51100000000E-03 0. -1.
    9900012    2    1    2    0    0 -0.22816826749E+02 -0.20025765489E+02 -0.97509623150E+01  0.59301950819E+02  0.50000012385E+02 0.  0.
        -12    1    1    2    0    0  0.22816826749E+02  0.20025765489E+02  0.97509623150E+01  0.31886049181E+02  0.00000000000E+00 0.  1.
         11    1    3    3    0    0 -0.36540320500E+02 -0.10764525113E+02 -0.89072113984E+01  0.39120435047E+02  0.51100000000E-03 0. -1.
        -11    1    3    3    0    0  0.95120103650E+01 -0.11757876572E+02 -0.16728076020E+01  0.15215922193E+02  0.51100000000E-03 0.  1.
        -12    1    3    3    0    0  0.42114833860E+01  0.24966361949E+01  0.82905668536E+00  0.49655935786E+01  0.00000000000E+00 0.  1.
</event>
<event>
 7    1  0.5761011E-013  0.5930193E+02  0.7816164E-02  0.1266605E+00
        -11   -1    0    0    0    0  0.00000000000E+00  0.00000000000E+00  0.45593999997E+02  0.45594000000E+02  0.51100000000E-03 0. -1.
         11   -1    0    0    0    0 -0.00000000000E+00 -0.00000000000E+00 -0.45593999997E+02  0.45594000000E+02  0.51100000000E-03 0.  1.
    9900012    2    1    2    0    0 -0.23984243319E+02  0.12177643769E+01  0.20976050317E+02  0.59301928361E+02  0.49999971428E+02 0.  0.
        -12    1    1    2    0    0  0.23984243319E+02 -0.12177643769E+01 -0.20976050317E+02  0.31886071639E+02  0.00000000000E+00 0.  1.
         11    1    3    3    0    0  0.56301531587E+01 -0.32192871044E+01  0.50584851371E+01  0.82250049358E+01  0.51100000000E-03 0. -1.
        -11    1    3    3    0    0 -0.71977931808E+01  0.11330685940E+02  0.22954444183E+02  0.26591336531E+02  0.51100000000E-03 0.  1.
        -12    1    3    3    0    0 -0.22416603297E+02 -0.68936344585E+01 -0.70368790027E+01  0.24485586894E+02  0.00000000000E+00 0.  1.
</event>
<event>
 7    1  0.5761011E-013  0.5930194E+02  0.7816164E-02  0.1266605E+00
        -11   -1    0    0    0    0  0.00000000000E+00  0.00000000000E+00  0.45593999997E+02  0.45594000000E+02  0.51100000000E-03 0.  1.
         11   -1    0    0    0    0 -0.00000000000E+00 -0.00000000000E+00 -0.45593999997E+02  0.45594000000E+02  0.51100000000E-03 0. -1.
    9900012    2    1    2    0    0  0.41680982397E+01  0.10696562382E+02 -0.29747796482E+02  0.59301939013E+02  0.49999990854E+02 0.  0.
        -12    1    1    2    0    0 -0.41680982397E+01 -0.10696562382E+02  0.29747796482E+02  0.31886060987E+02  0.00000000000E+00 0.  1.
         11    1    3    3    0    0  0.58638385124E+01 -0.11240713678E+02 -0.25695796954E+02  0.28653310934E+02  0.51100000000E-03 0.  1.
        -11    1    3    3    0    0 -0.51261765943E+01  0.21078393816E+02 -0.98759815495E+01  0.23835087249E+02  0.51100000000E-03 0. -1.
         12    1    3    3    0    0  0.34304363217E+01  0.85888224407E+00  0.58239820212E+01  0.68135408305E+01  0.00000000000E+00 0. -1.
</event>
<event>
 7    1  0.5761011E-013  0.5930194E+02  0.7816164E-02  0.1266605E+00
        -11   -1    0    0    0    0  0.00000000000E+00  0.00000000000E+00  0.45593999997E+02  0.45594000000E+02  0.51100000000E-03 0. -1.
         11   -1    0    0    0    0 -0.00000000000E+00 -0.00000000000E+00 -0.45593999997E+02  0.45594000000E+02  0.51100000000E-03 0.  1.
    9900012    2    1    2    0    0 -0.13615036948E+02 -0.83231685751E+01  0.27605736976E+02  0.59301935956E+02  0.49999985279E+02 0.  0.
        -12    1    1    2    0    0  0.13615036948E+02  0.83231685751E+01 -0.27605736976E+02  0.31886064044E+02  0.00000000000E+00 0.  1.
         11    1    3    3    0    0 -0.54279762056E+01  0.13734609401E+02  0.92933607390E+01  0.17449039377E+02  0.51100000000E-03 0. -1.
        -11    1    3    3    0    0 -0.99723875900E+00 -0.15200576574E+02 -0.53849408152E+01  0.16157029466E+02  0.51100000000E-03 0.  1.
        -12    1    3    3    0    0 -0.71898219838E+01 -0.68572014017E+01  0.23697317052E+02  0.25695867113E+02  0.00000000000E+00 0.  1.
</event>
<event>
 7    1  0.5761011E-013  0.5930193E+02  0.7816164E-02  0.1266605E+00
        -11   -1    0    0    0    0  0.00000000000E+00  0.00000000000E+00  0.45593999997E+02  0.45594000000E+02  0.51100000000E-03 0. -1.
         11   -1    0    0    0    0 -0.00000000000E+00 -0.00000000000E+00 -0.45593999997E+02  0.45594000000E+02  0.51100000000E-03 0.  1.
    9900012    2    1    2    0    0 -0.29666210395E+02  0.75198648826E+01 -0.89492639778E+01  0.59301925723E+02  0.49999966617E+02 0.  0.
        -12    1    1    2    0    0  0.29666210395E+02 -0.75198648826E+01  0.89492639778E+01  0.31886074277E+02  0.00000000000E+00 0.  1.
         11    1    3    3    0    0 -0.99627089172E+01  0.64074324879E+01  0.10505855086E+02  0.15832995655E+02  0.51100000000E-03 0. -1.
        -11    1    3    3    0    0 -0.20849365398E+02  0.93548181422E+01 -0.24686329327E+02  0.33639612302E+02  0.51100000000E-03 0.  1.
        -12    1    3    3    0    0  0.11458639208E+01 -0.82423857475E+01  0.52312102627E+01  0.98293177662E+01  0.00000000000E+00 0.  1.
</event>
<event>
 7    1  0.5761011E-013  0.5930194E+02  0.7816164E-02  0.1266605E+00
        -11   -1    0    0    0    0  0.00000000000E+00  0.00000000000E+00  0.45593999997E+02  0.45594000000E+02  0.51100000000E-03 0.  1.
         11   -1    0    0    0    0 -0.00000000000E+00 -0.00000000000E+00 -0.45593999997E+02  0.45594000000E+02  0.51100000000E-03 0. -1.
    9900012    2    1    2    0    0  0.18330142669E+02  0.25409833633E+02  0.59217363012E+01  0.59301941348E+02  0.49999995113E+02 0.  0.
        -12    1    1    2    0    0 -0.18330142669E+02 -0.25409833633E+02 -0.59217363012E+01  0.31886058652E+02  0.00000000000E+00 0.  1.
         11    1    3    3    0    0 -0.16404440794E+01  0.20700045540E+02 -0.74012229037E+01  0.22044524102E+02  0.51100000000E-03 0. -1.
        -11    1    3    3    0    0  0.11387741092E+02 -0.10088537701E+02 -0.56256445333E+00  0.15224182052E+02  0.51100000000E-03 0.  1.
        -12    1    3    3    0    0  0.85828456566E+01  0.14798325794E+02  0.13885523658E+02  0.22033235194E+02  0.00000000000E+00 0.  1.
</event>
<event>
 7    1  0.5761011E-013  0.5930192E+02  0.7816164E-02  0.1266605E+00
        -11   -1    0    0    0    0  0.00000000000E+00  0.00000000000E+00  0.45593999997E+02  0.45594000000E+02  0.51100000000E-03 0. -1.
         11   -1    0    0    0    0 -0.00000000000E+00 -0.00000000000E+00 -0.45593999997E+02  0.45594000000E+02  0.51100000000E-03 0.  1.
    9900012    2    1    2    0    0 -0.75673919476E+01 -0.23079098695E+02 -0.20659421508E+02  0.59301922873E+02  0.49999961419E+02 0.  0.
        -12    1    1    2    0    0  0.75673919476E+01  0.23079098695E+02  0.20659421508E+02  0.31886077127E+02  0.00000000000E+00 0.  1.
         11    1    3    3    0    0 -0.10547747381E+02  0.17443998131E+01  0.98971320921E+01  0.14568841046E+02  0.51100000000E-03 0. -1.
        -11    1    3    3    0    0  0.23959130022E+01 -0.28277567297E+02 -0.23465055729E+02  0.36823498639E+02  0.51100000000E-03 0.  1.
         12    1    3    3    0    0  0.58444243143E+00  0.34540687888E+01 -0.70914978709E+01  0.79095831879E+01  0.00000000000E+00 0. -1.
</event>
<event>
 7    1  0.5761011E-013  0.5930196E+02  0.7816164E-02  0.1266605E+00
        -11   -1    0    0    0    0  0.00000000000E+00  0.00000000000E+00  0.45593999997E+02  0.45594000000E+02  0.51100000000E-03 0.  1.
         11   -1    0    0    0    0 -0.00000000000E+00 -0.00000000000E+00 -0.45593999997E+02  0.45594000000E+02  0.51100000000E-03 0. -1.
    9900012    2    1    2    0    0 -0.31675045678E+02 -0.25047279961E+01  0.26716290333E+01  0.59301956302E+02  0.50000022385E+02 0.  0.
        -12    1    1    2    0    0  0.31675045678E+02  0.25047279961E+01 -0.26716290333E+01  0.31886043698E+02  0.00000000000E+00 0.  1.
         11    1    3    3    0    0 -0.14794231361E+01  0.25589247907E+01 -0.19971078478E+02  0.20188629590E+02  0.51100000000E-03 0. -1.
        -11    1    3    3    0    0 -0.27558440715E+02 -0.57079101637E+01  0.17072610536E+02  0.32916894201E+02  0.51100000000E-03 0.  1.
         12    1    3    3    0    0 -0.26371818269E+01  0.64425737697E+00  0.55700969749E+01  0.61964325112E+01  0.00000000000E+00 0. -1.
</event>
<event>
 7    1  0.5761011E-013  0.5930192E+02  0.7816164E-02  0.1266605E+00
        -11   -1    0    0    0    0  0.00000000000E+00  0.00000000000E+00  0.45593999997E+02  0.45594000000E+02  0.51100000000E-03 0.  1.
         11   -1    0    0    0    0 -0.00000000000E+00 -0.00000000000E+00 -0.45593999997E+02  0.45594000000E+02  0.51100000000E-03 0. -1.
    9900012    2    1    2    0    0  0.27523197200E+02  0.66311026817E+01 -0.14670515042E+02  0.59301922811E+02  0.49999961306E+02 0.  0.
        -12    1    1    2    0    0 -0.27523197200E+02 -0.66311026817E+01  0.14670515042E+02  0.31886077189E+02  0.00000000000E+00 0.  1.
         11    1    3    3    0    0  0.80094218861E+00  0.13873418165E+02 -0.95183197440E-01  0.13896844968E+02  0.51100000000E-03 0. -1.
        -11    1    3    3    0    0  0.24497869839E+02 -0.18997545968E+02 -0.96620176645E+01  0.32471633237E+02  0.51100000000E-03 0.  1.
        -12    1    3    3    0    0  0.22243851724E+01  0.11755230485E+02 -0.49133141804E+01  0.12933444606E+02  0.00000000000E+00 0.  1.
</event>
<event>
 7    1  0.5761011E-013  0.5930193E+02  0.7816164E-02  0.1266605E+00
        -11   -1    0    0    0    0  0.00000000000E+00  0.00000000000E+00  0.45593999997E+02  0.45594000000E+02  0.51100000000E-03 0. -1.
         11   -1    0    0    0    0 -0.00000000000E+00 -0.00000000000E+00 -0.45593999997E+02  0.45594000000E+02  0.51100000000E-03 0.  1.
    9900012    2    1    2    0    0  0.39297077733E+01  0.29366571887E+02  0.11784868897E+02  0.59301932784E+02  0.49999979495E+02 0.  0.
        -12    1    1    2    0    0 -0.39297077733E+01 -0.29366571887E+02 -0.11784868897E+02  0.31886067216E+02  0.00000000000E+00 0.  1.
         11    1    3    3    0    0  0.12303159830E+02  0.13575709624E+02 -0.11016730421E+02  0.21378399917E+02  0.51100000000E-03 0. -1.
        -11    1    3    3    0    0 -0.12968006033E+02  0.57349018865E+01  0.19375994804E+01  0.14311274301E+02  0.51100000000E-03 0.  1.
         12    1    3    3    0    0  0.45945539767E+01  0.10055960377E+02  0.20863999838E+02  0.23612258566E+02  0.00000000000E+00 0. -1.
</event>
<event>
 7    1  0.5761011E-013  0.5930194E+02  0.7816164E-02  0.1266605E+00
        -11   -1    0    0    0    0  0.00000000000E+00  0.00000000000E+00  0.45593999997E+02  0.45594000000E+02  0.51100000000E-03 0.  1.
         11   -1    0    0    0    0 -0.00000000000E+00 -0.00000000000E+00 -0.45593999997E+02  0.45594000000E+02  0.51100000000E-03 0. -1.
    9900012    2    1    2    0    0 -0.14425750104E+02  0.25009154204E+02 -0.13533693331E+02  0.59301938543E+02  0.49999989998E+02 0.  0.
        -12    1    1    2    0    0  0.14425750104E+02 -0.25009154204E+02  0.13533693331E+02  0.31886061457E+02  0.00000000000E+00 0.  1.
         11    1    3    3    0    0  0.10808040137E+01  0.24790050154E+02 -0.63117090454E+01  0.25603757444E+02  0.51100000000E-03 0. -1.
        -11    1    3    3    0    0 -0.23926459844E+02  0.21656437667E+01 -0.34571544254E+01  0.24271740987E+02  0.51100000000E-03 0.  1.
        -12    1    3    3    0    0  0.84199057261E+01 -0.19465397165E+01 -0.37648298600E+01  0.94264401117E+01  0.00000000000E+00 0.  1.
</event>
<event>
 7    1  0.5761011E-013  0.5930199E+02  0.7816164E-02  0.1266605E+00
        -11   -1    0    0    0    0  0.00000000000E+00  0.00000000000E+00  0.45593999997E+02  0.45594000000E+02  0.51100000000E-03 0. -1.
         11   -1    0    0    0    0 -0.00000000000E+00 -0.00000000000E+00 -0.45593999997E+02  0.45594000000E+02  0.51100000000E-03 0.  1.
    9900012    2    1    2    0    0  0.14949966006E+02 -0.20450241001E+01  0.28089753369E+02  0.59301986585E+02  0.50000077614E+02 0.  0.
        -12    1    1    2    0    0 -0.14949966006E+02  0.20450241001E+01 -0.28089753369E+02  0.31886013415E+02  0.00000000000E+00 0.  1.
         11    1    3    3    0    0  0.22085632031E+02 -0.15389796457E+02  0.30810803069E+02  0.40913647640E+02  0.51100000000E-03 0. -1.
        -11    1    3    3    0    0 -0.57908663269E+01  0.95734581689E+01  0.28328293642E+01  0.11541670442E+02  0.51100000000E-03 0.  1.
         12    1    3    3    0    0 -0.13447996977E+01  0.37713141884E+01 -0.55538790635E+01  0.68466685028E+01  0.00000000000E+00 0. -1.
</event>
<event>
 7    1  0.5761011E-013  0.5930192E+02  0.7816164E-02  0.1266605E+00
        -11   -1    0    0    0    0  0.00000000000E+00  0.00000000000E+00  0.45593999997E+02  0.45594000000E+02  0.51100000000E-03 0.  1.
         11   -1    0    0    0    0 -0.00000000000E+00 -0.00000000000E+00 -0.45593999997E+02  0.45594000000E+02  0.51100000000E-03 0. -1.
    9900012    2    1    2    0    0  0.29579153658E+02  0.86875103184E+01 -0.81438833893E+01  0.59301921481E+02  0.49999958880E+02 0.  0.
        -12    1    1    2    0    0 -0.29579153658E+02 -0.86875103184E+01  0.81438833893E+01  0.31886078519E+02  0.00000000000E+00 0.  1.
         11    1    3    3    0    0 -0.10189548726E+01  0.75660996034E+01 -0.56727048439E+01  0.95112413884E+01  0.51100000000E-03 0. -1.
        -11    1    3    3    0    0  0.39188525032E+02 -0.44067987293E+01 -0.83046186191E+00  0.39444264937E+02  0.51100000000E-03 0.  1.
        -12    1    3    3    0    0 -0.85904165017E+01  0.55282094444E+01 -0.16407166835E+01  0.10346415155E+02  0.00000000000E+00 0.  1.
</event>
<event>
 7    1  0.5761011E-013  0.5930195E+02  0.7816164E-02  0.1266605E+00
        -11   -1    0    0    0    0  0.00000000000E+00  0.00000000000E+00  0.45593999997E+02  0.45594000000E+02  0.51100000000E-03 0.  1.
         11   -1    0    0    0    0 -0.00000000000E+00 -0.00000000000E+00 -0.45593999997E+02  0.45594000000E+02  0.51100000000E-03 0. -1.
    9900012    2    1    2    0    0  0.14898831733E+02  0.13622778684E+02 -0.24681268892E+02  0.59301947874E+02  0.50000007015E+02 0.  0.
        -12    1    1    2    0    0 -0.14898831733E+02 -0.13622778684E+02  0.24681268892E+02  0.31886052126E+02  0.00000000000E+00 0.  1.
         11    1    3    3    0    0  0.35179585219E+01  0.15476833510E+02  0.56826241373E+00  0.15881792408E+02  0.51100000000E-03 0. -1.
        -11    1    3    3    0    0  0.82501113997E+01 -0.16980822031E+02 -0.18915319569E+02  0.26724557426E+02  0.51100000000E-03 0.  1.
        -12    1    3    3    0    0  0.31307618110E+01  0.15126767205E+02 -0.63342117367E+01  0.16695598040E+02  0.00000000000E+00 0.  1.
</event>
<event>
 7    1  0.5761011E-013  0.5930196E+02  0.7816164E-02  0.1266605E+00
        -11   -1    0    0    0    0  0.00000000000E+00  0.00000000000E+00  0.45593999997E+02  0.45594000000E+02  0.51100000000E-03 0.  1.
         11   -1    0    0    0    0 -0.00000000000E+00 -0.00000000000E+00 -0.45593999997E+02  0.45594000000E+02  0.51100000000E-03 0. -1.
    9900012    2    1    2    0    0  0.19108765113E+02  0.14956489006E+02 -0.20685219139E+02  0.59301956684E+02  0.50000023081E+02 0.  0.
        -12    1    1    2    0    0 -0.19108765113E+02 -0.14956489006E+02  0.20685219139E+02  0.31886043316E+02  0.00000000000E+00 0.  1.
         11    1    3    3    0    0  0.26261775462E+02  0.12971773885E+02 -0.77532785026E+00  0.29301005131E+02  0.51100000000E-03 0. -1.
        -11    1    3    3    0    0 -0.10554094405E+02  0.85628264850E+01 -0.17614203660E+02  0.22247945454E+02  0.51100000000E-03 0.  1.
        -12    1    3    3    0    0  0.34010840561E+01 -0.65781113640E+01 -0.22956876291E+01  0.77530060986E+01  0.00000000000E+00 0.  1.
</event>
<event>
 7    1  0.5761011E-013  0.5930196E+02  0.7816164E-02  0.1266605E+00
        -11   -1    0    0    0    0  0.00000000000E+00  0.00000000000E+00  0.45593999997E+02  0.45594000000E+02  0.51100000000E-03 0.  1.
         11   -1    0    0    0    0 -0.00000000000E+00 -0.00000000000E+00 -0.45593999997E+02  0.45594000000E+02  0.51100000000E-03 0. -1.
    9900012    2    1    2    0    0  0.64055165050E+01 -0.77796305398E+01 -0.30251718816E+02  0.59301956276E+02  0.50000022339E+02 0.  0.
        -12    1    1    2    0    0 -0.64055165050E+01  0.77796305398E+01  0.30251718816E+02  0.31886043724E+02  0.00000000000E+00 0.  1.
         11    1    3    3    0    0  0.67544445476E+01 -0.13924180948E+02 -0.38722023661E+02  0.41700125334E+02  0.51100000000E-03 0. -1.
        -11    1    3    3    0    0  0.11697828521E+01  0.97886420919E+01  0.20566978881E+01  0.10070546777E+02  0.51100000000E-03 0.  1.
        -12    1    3    3    0    0 -0.15187108946E+01 -0.36440916836E+01  0.64136069570E+01  0.75312841653E+01  0.00000000000E+00 0.  1.
</event>
<event>
 7    1  0.5761011E-013  0.5930195E+02  0.7816164E-02  0.1266605E+00
        -11   -1    0    0    0    0  0.00000000000E+00  0.00000000000E+00  0.45593999997E+02  0.45594000000E+02  0.51100000000E-03 0.  1.
         11   -1    0    0    0    0 -0.00000000000E+00 -0.00000000000E+00 -0.45593999997E+02  0.45594000000E+02  0.51100000000E-03 0. -1.
    9900012    2    1    2    0    0 -0.23076712359E+02 -0.92116445307E+01 -0.19983275059E+02  0.59301947715E+02  0.50000006725E+02 0.  0.
        -12    1    1    2    0    0  0.23076712359E+02  0.92116445307E+01  0.19983275059E+02  0.31886052285E+02  0.00000000000E+00 0.  1.
         11    1    3    3    0    0 -0.14094216091E+02 -0.17446730725E+02 -0.14499658837E+02  0.26707217131E+02  0.51100000000E-03 0. -1.
        -11    1    3    3    0    0 -0.14174777487E+01  0.12089815448E+02  0.94540336646E+01  0.15412710129E+02  0.51100000000E-03 0.  1.
        -12    1    3    3    0    0 -0.75650185188E+01 -0.38547292534E+01 -0.14937649886E+02  0.17182020455E+02  0.00000000000E+00 0.  1.
</event>
<event>
 7    1  0.5761011E-013  0.5930196E+02  0.7816164E-02  0.1266605E+00
        -11   -1    0    0    0    0  0.00000000000E+00  0.00000000000E+00  0.45593999997E+02  0.45594000000E+02  0.51100000000E-03 0.  1.
         11   -1    0    0    0    0 -0.00000000000E+00 -0.00000000000E+00 -0.45593999997E+02  0.45594000000E+02  0.51100000000E-03 0. -1.
    9900012    2    1    2    0    0 -0.20907419182E+02  0.23917121706E+02  0.27514564358E+01  0.59301962302E+02  0.50000033328E+02 0.  0.
        -12    1    1    2    0    0  0.20907419182E+02 -0.23917121706E+02 -0.27514564358E+01  0.31886037698E+02  0.00000000000E+00 0.  1.
         11    1    3    3    0    0 -0.82887833063E+01  0.31434233795E+02  0.17308862797E+02  0.36829495171E+02  0.51100000000E-03 0. -1.
        -11    1    3    3    0    0 -0.12965368965E+02 -0.51571670344E+01 -0.14446241223E+02  0.20084597331E+02  0.51100000000E-03 0.  1.
         12    1    3    3    0    0  0.34673308934E+00 -0.23599450540E+01 -0.11116513820E+00  0.23878697999E+01  0.00000000000E+00 0. -1.
</event>
<event>
 7    1  0.5761011E-013  0.5930192E+02  0.7816164E-02  0.1266605E+00
        -11   -1    0    0    0    0  0.00000000000E+00  0.00000000000E+00  0.45593999997E+02  0.45594000000E+02  0.51100000000E-03 0.  1.
         11   -1    0    0    0    0 -0.00000000000E+00 -0.00000000000E+00 -0.45593999997E+02  0.45594000000E+02  0.51100000000E-03 0. -1.
    9900012    2    1    2    0    0 -0.26338529272E+02  0.16121554873E+01  0.17899854484E+02  0.59301922159E+02  0.49999960116E+02 0.  0.
        -12    1    1    2    0    0  0.26338529272E+02 -0.16121554873E+01 -0.17899854484E+02  0.31886077841E+02  0.00000000000E+00 0.  1.
         11    1    3    3    0    0 -0.98135700663E+01 -0.19048813945E+02 -0.10173661550E+01  0.21452237746E+02  0.51100000000E-03 0. -1.
        -11    1    3    3    0    0 -0.96581985719E+01  0.79503028169E+01  0.19750400791E+02  0.23378760579E+02  0.51100000000E-03 0.  1.
        -12    1    3    3    0    0 -0.68667606342E+01  0.12710666616E+02 -0.83318015205E+00  0.14470923833E+02  0.00000000000E+00 0.  1.
</event>
<event>
 7    1  0.5761011E-013  0.5930193E+02  0.7816164E-02  0.1266605E+00
        -11   -1    0    0    0    0  0.00000000000E+00  0.00000000000E+00  0.45593999997E+02  0.45594000000E+02  0.51100000000E-03 0.  1.
         11   -1    0    0    0    0 -0.00000000000E+00 -0.00000000000E+00 -0.45593999997E+02  0.45594000000E+02  0.51100000000E-03 0. -1.
    9900012    2    1    2    0    0 -0.19948869889E+02  0.24771823999E+02 -0.22629499098E+01  0.59301927548E+02  0.49999969945E+02 0.  0.
        -12    1    1    2    0    0  0.19948869889E+02 -0.24771823999E+02  0.22629499098E+01  0.31886072452E+02  0.00000000000E+00 0.  1.
         11    1    3    3    0    0 -0.12588659393E+01  0.24060831830E+02 -0.13400713120E+02  0.27569684151E+02  0.51100000000E-03 0. -1.
        -11    1    3    3    0    0 -0.17222352172E+02  0.56775839002E+01  0.16326800028E+02  0.24400999420E+02  0.51100000000E-03 0.  1.
         12    1    3    3    0    0 -0.14676517784E+01 -0.49665917303E+01 -0.51890368180E+01  0.73312439774E+01  0.00000000000E+00 0. -1.
</event>
<event>
 7    1  0.5761011E-013  0.5930192E+02  0.7816164E-02  0.1266605E+00
        -11   -1    0    0    0    0  0.00000000000E+00  0.00000000000E+00  0.45593999997E+02  0.45594000000E+02  0.51100000000E-03 0.  1.
         11   -1    0    0    0    0 -0.00000000000E+00 -0.00000000000E+00 -0.45593999997E+02  0.45594000000E+02  0.51100000000E-03 0. -1.
    9900012    2    1    2    0    0 -0.16205095734E+01  0.24015979652E+02 -0.20912402185E+02  0.59301923179E+02  0.49999961976E+02 0.  0.
        -12    1    1    2    0    0  0.16205095734E+01 -0.24015979652E+02  0.20912402185E+02  0.31886076821E+02  0.00000000000E+00 0.  1.
         11    1    3    3    0    0 -0.12929605819E+02  0.88965065389E+01  0.30769153830E+01  0.15993434395E+02  0.51100000000E-03 0. -1.
        -11    1    3    3    0    0  0.12677887898E+02 -0.21077208698E+01  0.10387268829E+01  0.12893807918E+02  0.51100000000E-03 0.  1.
        -12    1    3    3    0    0 -0.13687916528E+01  0.17227193983E+02 -0.25028044451E+02  0.30414680865E+02  0.00000000000E+00 0.  1.
</event>
<event>
 7    1  0.5761011E-013  0.5930205E+02  0.7816164E-02  0.1266604E+00
        -11   -1    0    0    0    0  0.00000000000E+00  0.00000000000E+00  0.45593999997E+02  0.45594000000E+02  0.51100000000E-03 0. -1.
         11   -1    0    0    0    0 -0.00000000000E+00 -0.00000000000E+00 -0.45593999997E+02  0.45594000000E+02  0.51100000000E-03 0.  1.
    9900012    2    1    2    0    0 -0.11369839114E+02 -0.53498331395E+01  0.29305628913E+02  0.59302049456E+02  0.50000192276E+02 0.  0.
        -12    1    1    2    0    0  0.11369839114E+02  0.53498331395E+01 -0.29305628913E+02  0.31885950544E+02  0.00000000000E+00 0.  1.
         11    1    3    3    0    0 -0.21606291768E+02 -0.89613545789E+00  0.34357777873E+02  0.40596696951E+02  0.51100000000E-03 0. -1.
        -11    1    3    3    0    0 -0.23632668464E+01 -0.47647748109E+01 -0.23535610077E+01  0.58161291994E+01  0.51100000000E-03 0.  1.
         12    1    3    3    0    0  0.12599719501E+02  0.31107712927E+00 -0.26985879521E+01  0.12889223305E+02  0.00000000000E+00 0. -1.
</event>
<event>
 7    1  0.5761011E-013  0.5930231E+02  0.7816164E-02  0.1266603E+00
        -11   -1    0    0    0    0  0.00000000000E+00  0.00000000000E+00  0.45593999997E+02  0.45594000000E+02  0.51100000000E-03 0.  1.
         11   -1    0    0    0    0 -0.00000000000E+00 -0.00000000000E+00 -0.45593999997E+02  0.45594000000E+02  0.51100000000E-03 0. -1.
    9900012    2    1    2    0    0  0.26666439261E+02 -0.16632996209E+02  0.53797400990E+01  0.59302311215E+02  0.50000669658E+02 0.  0.
        -12    1    1    2    0    0 -0.26666439261E+02  0.16632996209E+02 -0.53797400990E+01  0.31885688785E+02  0.00000000000E+00 0.  1.
         11    1    3    3    0    0  0.15900958905E+02 -0.20924529303E+02 -0.49535622515E+01  0.26743488925E+02  0.51100000000E-03 0. -1.
        -11    1    3    3    0    0 -0.73572618929E+00  0.14669477843E+02  0.84720592577E+01  0.16956139346E+02  0.51100000000E-03 0.  1.
        -12    1    3    3    0    0  0.11501206545E+02 -0.10377944749E+02  0.18612430928E+01  0.15602682944E+02  0.00000000000E+00 0.  1.
</event>
<event>
 7    1  0.5761011E-013  0.5930194E+02  0.7816164E-02  0.1266605E+00
        -11   -1    0    0    0    0  0.00000000000E+00  0.00000000000E+00  0.45593999997E+02  0.45594000000E+02  0.51100000000E-03 0. -1.
         11   -1    0    0    0    0 -0.00000000000E+00 -0.00000000000E+00 -0.45593999997E+02  0.45594000000E+02  0.51100000000E-03 0.  1.
    9900012    2    1    2    0    0  0.16706101605E+02 -0.27111101042E+02  0.16171108212E+01  0.59301942264E+02  0.49999996784E+02 0.  0.
        -12    1    1    2    0    0 -0.16706101605E+02  0.27111101042E+02 -0.16171108212E+01  0.31886057736E+02  0.00000000000E+00 0.  1.
         11    1    3    3    0    0  0.14592997419E+02 -0.22497259950E+01  0.79010298856E+01  0.16746435867E+02  0.51100000000E-03 0. -1.
        -11    1    3    3    0    0 -0.34847599351E+01 -0.29268706403E+02 -0.13495530401E+02  0.32418051566E+02  0.51100000000E-03 0.  1.
        -12    1    3    3    0    0  0.55978641204E+01  0.44073313559E+01  0.72116113361E+01  0.10137454831E+02  0.00000000000E+00 0.  1.
</event>
<event>
 7    1  0.5761011E-013  0.5930198E+02  0.7816164E-02  0.1266605E+00
        -11   -1    0    0    0    0  0.00000000000E+00  0.00000000000E+00  0.45593999997E+02  0.45594000000E+02  0.51100000000E-03 0. -1.
         11   -1    0    0    0    0 -0.00000000000E+00 -0.00000000000E+00 -0.45593999997E+02  0.45594000000E+02  0.51100000000E-03 0.  1.
    9900012    2    1    2    0    0  0.12731066310E+02  0.20862756676E+02  0.20478854878E+02  0.59301981706E+02  0.50000068717E+02 0.  0.
        -12    1    1    2    0    0 -0.12731066310E+02 -0.20862756676E+02 -0.20478854878E+02  0.31886018294E+02  0.00000000000E+00 0.  1.
         11    1    3    3    0    0  0.28133058670E+02  0.56336546410E+01  0.21605766653E+02  0.35916795621E+02  0.51100000000E-03 0. -1.
        -11    1    3    3    0    0 -0.47491343637E+01  0.10146383918E+02  0.14721419518E+01  0.11299140941E+02  0.51100000000E-03 0.  1.
         12    1    3    3    0    0 -0.10652857996E+02  0.50827181161E+01 -0.25990537269E+01  0.12086045144E+02  0.00000000000E+00 0. -1.
</event>
<event>
 7    1  0.5761011E-013  0.5930195E+02  0.7816164E-02  0.1266605E+00
        -11   -1    0    0    0    0  0.00000000000E+00  0.00000000000E+00  0.45593999997E+02  0.45594000000E+02  0.51100000000E-03 0.  1.
         11   -1    0    0    0    0 -0.00000000000E+00 -0.00000000000E+00 -0.45593999997E+02  0.45594000000E+02  0.51100000000E-03 0. -1.
    9900012    2    1    2    0    0  0.21667514387E+01 -0.31032176631E+02 -0.70020805950E+01  0.59301953978E+02  0.50000018148E+02 0.  0.
        -12    1    1    2    0    0 -0.21667514387E+01  0.31032176631E+02  0.70020805950E+01  0.31886046022E+02  0.00000000000E+00 0.  1.
         11    1    3    3    0    0 -0.17186895544E+01 -0.32194033542E+02  0.12678519998E+02  0.34643246948E+02  0.51100000000E-03 0. -1.
        -11    1    3    3    0    0 -0.44281942521E+01  0.66941838491E+00 -0.16061075393E+01  0.47577943417E+01  0.51100000000E-03 0.  1.
         12    1    3    3    0    0  0.83136352452E+01  0.49243852630E+00 -0.18074493054E+02  0.19900912689E+02  0.00000000000E+00 0. -1.
</event>
<event>
 7    1  0.5761011E-013  0.5930194E+02  0.7816164E-02  0.1266605E+00
        -11   -1    0    0    0    0  0.00000000000E+00  0.00000000000E+00  0.45593999997E+02  0.45594000000E+02  0.51100000000E-03 0.  1.
         11   -1    0    0    0    0 -0.00000000000E+00 -0.00000000000E+00 -0.45593999997E+02  0.45594000000E+02  0.51100000000E-03 0. -1.
    9900012    2    1    2    0    0  0.64819689675E+01 -0.29090699667E+02 -0.11332966515E+02  0.59301939427E+02  0.49999991610E+02 0.  0.
        -12    1    1    2    0    0 -0.64819689675E+01  0.29090699667E+02  0.11332966515E+02  0.31886060573E+02  0.00000000000E+00 0.  1.
         11    1    3    3    0    0  0.21898522516E+02 -0.33494305538E+02 -0.31158299257E+01  0.40138786582E+02  0.51100000000E-03 0. -1.
        -11    1    3    3    0    0 -0.55656101763E+01  0.36861060997E+01 -0.61403644494E+01  0.90701417103E+01  0.51100000000E-03 0.  1.
         12    1    3    3    0    0 -0.98509433725E+01  0.71749977117E+00 -0.20767721395E+01  0.10093011135E+02  0.00000000000E+00 0. -1.
</event>
<event>
 7    1  0.5761011E-013  0.5930195E+02  0.7816164E-02  0.1266605E+00
        -11   -1    0    0    0    0  0.00000000000E+00  0.00000000000E+00  0.45593999997E+02  0.45594000000E+02  0.51100000000E-03 0.  1.
         11   -1    0    0    0    0 -0.00000000000E+00 -0.00000000000E+00 -0.45593999997E+02  0.45594000000E+02  0.51100000000E-03 0. -1.
    9900012    2    1    2    0    0  0.16368049900E+02  0.19017888161E+02 -0.19675544857E+02  0.59301949867E+02  0.50000010650E+02 0.  0.
        -12    1    1    2    0    0 -0.16368049900E+02 -0.19017888161E+02  0.19675544857E+02  0.31886050133E+02  0.00000000000E+00 0.  1.
         11    1    3    3    0    0  0.56227055889E+01 -0.14710861853E+02  0.30988417390E+01  0.16050766180E+02  0.51100000000E-03 0. -1.
        -11    1    3    3    0    0  0.59262134459E+01  0.29828151833E+02 -0.17343846738E+02  0.35009251171E+02  0.51100000000E-03 0.  1.
        -12    1    3    3    0    0  0.48191308651E+01  0.39005981806E+01 -0.54305398578E+01  0.82419325166E+01  0.00000000000E+00 0.  1.
</event>
<event>
 7    1  0.5761011E-013  0.5930190E+02  0.7816164E-02  0.1266605E+00
        -11   -1    0    0    0    0  0.00000000000E+00  0.00000000000E+00  0.45593999997E+02  0.45594000000E+02  0.51100000000E-03 0.  1.
         11   -1    0    0    0    0 -0.00000000000E+00 -0.00000000000E+00 -0.45593999997E+02  0.45594000000E+02  0.51100000000E-03 0. -1.
    9900012    2    1    2    0    0  0.28498650662E+02 -0.40770312196E+01 -0.13708683292E+02  0.59301901607E+02  0.49999922635E+02 0.  0.
        -12    1    1    2    0    0 -0.28498650662E+02  0.40770312196E+01  0.13708683292E+02  0.31886098393E+02  0.00000000000E+00 0.  1.
         11    1    3    3    0    0  0.67557695846E+01 -0.34468200603E+01 -0.48784814248E+01  0.90177919959E+01  0.51100000000E-03 0. -1.
        -11    1    3    3    0    0  0.21474059952E+01  0.40822765761E+01  0.16946850334E+02  0.17563372998E+02  0.51100000000E-03 0.  1.
        -12    1    3    3    0    0  0.19595475083E+02 -0.47124877355E+01 -0.25777052201E+02  0.32720736613E+02  0.00000000000E+00 0.  1.
</event>
<event>
 7    1  0.5761011E-013  0.5930188E+02  0.7816164E-02  0.1266605E+00
        -11   -1    0    0    0    0  0.00000000000E+00  0.00000000000E+00  0.45593999997E+02  0.45594000000E+02  0.51100000000E-03 0.  1.
         11   -1    0    0    0    0 -0.00000000000E+00 -0.00000000000E+00 -0.45593999997E+02  0.45594000000E+02  0.51100000000E-03 0. -1.
    9900012    2    1    2    0    0  0.28966979112E+02  0.46866988928E+01  0.12476924449E+02  0.59301879680E+02  0.49999882644E+02 0.  0.
        -12    1    1    2    0    0 -0.28966979112E+02 -0.46866988928E+01 -0.12476924449E+02  0.31886120320E+02  0.00000000000E+00 0.  1.
         11    1    3    3    0    0  0.25194545611E+02 -0.12059061858E+01 -0.81017074148E+01  0.26492583898E+02  0.51100000000E-03 0. -1.
        -11    1    3    3    0    0 -0.49809392755E+01 -0.48416181833E+01  0.17203865407E+02  0.18553274856E+02  0.51100000000E-03 0.  1.
        -12    1    3    3    0    0  0.87533727762E+01  0.10734223262E+02  0.33747664572E+01  0.14256020926E+02  0.00000000000E+00 0.  1.
</event>
<event>
 7    1  0.5761011E-013  0.5930193E+02  0.7816164E-02  0.1266605E+00
        -11   -1    0    0    0    0  0.00000000000E+00  0.00000000000E+00  0.45593999997E+02  0.45594000000E+02  0.51100000000E-03 0.  1.
         11   -1    0    0    0    0 -0.00000000000E+00 -0.00000000000E+00 -0.45593999997E+02  0.45594000000E+02  0.51100000000E-03 0. -1.
    9900012    2    1    2    0    0  0.58709663097E+01 -0.68412427714E+01 -0.30585136615E+02  0.59301930474E+02  0.49999975281E+02 0.  0.
        -12    1    1    2    0    0 -0.58709663097E+01  0.68412427714E+01  0.30585136615E+02  0.31886069526E+02  0.00000000000E+00 0.  1.
         11    1    3    3    0    0  0.99706592572E+01  0.34300991845E+01 -0.24348202166E+02  0.26533272987E+02  0.51100000000E-03 0. -1.
        -11    1    3    3    0    0  0.10455523963E+01 -0.20203395753E+02 -0.59148050468E+00  0.20239076787E+02  0.51100000000E-03 0.  1.
        -12    1    3    3    0    0 -0.51452453438E+01  0.99320537967E+01 -0.56454539445E+01  0.12529580700E+02  0.00000000000E+00 0.  1.
</event>
<event>
 7    1  0.5761011E-013  0.5930195E+02  0.7816164E-02  0.1266605E+00
        -11   -1    0    0    0    0  0.00000000000E+00  0.00000000000E+00  0.45593999997E+02  0.45594000000E+02  0.51100000000E-03 0. -1.
         11   -1    0    0    0    0 -0.00000000000E+00 -0.00000000000E+00 -0.45593999997E+02  0.45594000000E+02  0.51100000000E-03 0.  1.
    9900012    2    1    2    0    0 -0.13184893320E+02  0.28386651227E+02 -0.60890953009E+01  0.59301945661E+02  0.50000002978E+02 0.  0.
        -12    1    1    2    0    0  0.13184893320E+02 -0.28386651227E+02  0.60890953009E+01  0.31886054339E+02  0.00000000000E+00 0.  1.
         11    1    3    3    0    0 -0.20730679238E+02  0.19935366168E+02 -0.15358069469E+02  0.32604450371E+02  0.51100000000E-03 0. -1.
        -11    1    3    3    0    0  0.14498596335E+02  0.64511322662E+00  0.43975806233E+01  0.15164569969E+02  0.51100000000E-03 0.  1.
        -12    1    3    3    0    0 -0.69528104169E+01  0.78061718322E+01  0.48713935449E+01  0.11532925320E+02  0.00000000000E+00 0.  1.
</event>
<event>
 7    1  0.5761011E-013  0.5930192E+02  0.7816164E-02  0.1266605E+00
        -11   -1    0    0    0    0  0.00000000000E+00  0.00000000000E+00  0.45593999997E+02  0.45594000000E+02  0.51100000000E-03 0.  1.
         11   -1    0    0    0    0 -0.00000000000E+00 -0.00000000000E+00 -0.45593999997E+02  0.45594000000E+02  0.51100000000E-03 0. -1.
    9900012    2    1    2    0    0  0.15184032414E+02 -0.24313787664E+02 -0.13964495073E+02  0.59301917870E+02  0.49999952295E+02 0.  0.
        -12    1    1    2    0    0 -0.15184032414E+02  0.24313787664E+02  0.13964495073E+02  0.31886082130E+02  0.00000000000E+00 0.  1.
         11    1    3    3    0    0  0.40843374798E+01 -0.34672606129E+02 -0.21098522253E+02  0.40792389853E+02  0.51100000000E-03 0. -1.
        -11    1    3    3    0    0  0.10060508010E+02  0.44895745235E+01  0.36514230873E+01  0.11606161797E+02  0.51100000000E-03 0.  1.
         12    1    3    3    0    0  0.10391869241E+01  0.58692439417E+01  0.34826040922E+01  0.69033662204E+01  0.00000000000E+00 0. -1.
</event>
<event>
 7    1  0.5761011E-013  0.5930193E+02  0.7816164E-02  0.1266605E+00
        -11   -1    0    0    0    0  0.00000000000E+00  0.00000000000E+00  0.45593999997E+02  0.45594000000E+02  0.51100000000E-03 0.  1.
         11   -1    0    0    0    0 -0.00000000000E+00 -0.00000000000E+00 -0.45593999997E+02  0.45594000000E+02  0.51100000000E-03 0. -1.
    9900012    2    1    2    0    0  0.57617321019E+01  0.30489104554E+02  0.73442583549E+01  0.59301934327E+02  0.49999982308E+02 0.  0.
        -12    1    1    2    0    0 -0.57617321019E+01 -0.30489104554E+02 -0.73442583549E+01  0.31886065673E+02  0.00000000000E+00 0.  1.
         11    1    3    3    0    0 -0.18648867677E+01 -0.22993799640E+00  0.15864148704E+02  0.15975039546E+02  0.51100000000E-03 0.  1.
        -11    1    3    3    0    0  0.17911846297E+02  0.23408279390E+02 -0.86131557969E+01  0.30707787853E+02  0.51100000000E-03 0. -1.
        -12    1    3    3    0    0 -0.10285227427E+02  0.73107631603E+01  0.93265448092E-01  0.12619106928E+02  0.00000000000E+00 0.  1.
</event>
<event>
 7    1  0.5761011E-013  0.5930195E+02  0.7816164E-02  0.1266605E+00
        -11   -1    0    0    0    0  0.00000000000E+00  0.00000000000E+00  0.45593999997E+02  0.45594000000E+02  0.51100000000E-03 0.  1.
         11   -1    0    0    0    0 -0.00000000000E+00 -0.00000000000E+00 -0.45593999997E+02  0.45594000000E+02  0.51100000000E-03 0. -1.
    9900012    2    1    2    0    0  0.28905946923E+01 -0.20393939705E+02 -0.24340327902E+02  0.59301954828E+02  0.50000019696E+02 0.  0.
        -12    1    1    2    0    0 -0.28905946923E+01  0.20393939705E+02  0.24340327902E+02  0.31886045172E+02  0.00000000000E+00 0.  1.
         11    1    3    3    0    0 -0.22240692002E+02 -0.33174799417E+01 -0.92887799076E+01  0.24329724337E+02  0.51100000000E-03 0. -1.
        -11    1    3    3    0    0  0.22335594739E+02 -0.17880425724E+02 -0.13087045530E+02  0.31462027547E+02  0.51100000000E-03 0.  1.
        -12    1    3    3    0    0  0.27956919552E+01  0.80396596042E+00 -0.19645024644E+01  0.35102029438E+01  0.00000000000E+00 0.  1.
</event>
<event>
 7    1  0.5761011E-013  0.5930195E+02  0.7816164E-02  0.1266605E+00
        -11   -1    0    0    0    0  0.00000000000E+00  0.00000000000E+00  0.45593999997E+02  0.45594000000E+02  0.51100000000E-03 0.  1.
         11   -1    0    0    0    0 -0.00000000000E+00 -0.00000000000E+00 -0.45593999997E+02  0.45594000000E+02  0.51100000000E-03 0. -1.
    9900012    2    1    2    0    0 -0.31015126813E+01  0.21443690064E+02 -0.23393779559E+02  0.59301950597E+02  0.50000011981E+02 0.  0.
        -12    1    1    2    0    0  0.31015126813E+01 -0.21443690064E+02  0.23393779559E+02  0.31886049403E+02  0.00000000000E+00 0.  1.
         11    1    3    3    0    0 -0.19627380158E+02 -0.49549757764E+01 -0.58394901821E+01  0.21068589955E+02  0.51100000000E-03 0. -1.
        -11    1    3    3    0    0  0.12440390334E+02  0.12973252151E+02 -0.16090208395E+02  0.24123917375E+02  0.51100000000E-03 0.  1.
         12    1    3    3    0    0  0.40854771429E+01  0.13425413689E+02 -0.14640809820E+01  0.14109443268E+02  0.00000000000E+00 0. -1.
</event>
<event>
 7    1  0.5761011E-013  0.5930195E+02  0.7816164E-02  0.1266605E+00
        -11   -1    0    0    0    0  0.00000000000E+00  0.00000000000E+00  0.45593999997E+02  0.45594000000E+02  0.51100000000E-03 0. -1.
         11   -1    0    0    0    0 -0.00000000000E+00 -0.00000000000E+00 -0.45593999997E+02  0.45594000000E+02  0.51100000000E-03 0.  1.
    9900012    2    1    2    0    0 -0.31133509598E+02  0.11209541891E+01  0.67947386844E+01  0.59301946121E+02  0.50000003819E+02 0.  0.
        -12    1    1    2    0    0  0.31133509598E+02 -0.11209541891E+01 -0.67947386844E+01  0.31886053879E+02  0.00000000000E+00 0.  1.
         11    1    3    3    0    0 -0.28679477335E+02 -0.63183445102E+01 -0.15050717140E+01  0.29405767099E+02  0.51100000000E-03 0. -1.
        -11    1    3    3    0    0 -0.61689097526E+00 -0.27767184887E+00  0.17633751104E+02  0.17646723049E+02  0.51100000000E-03 0.  1.
        -12    1    3    3    0    0 -0.18371412876E+01  0.77169705482E+01 -0.93339407054E+01  0.12249455973E+02  0.00000000000E+00 0.  1.
</event>
<event>
 7    1  0.5761011E-013  0.5930195E+02  0.7816164E-02  0.1266605E+00
        -11   -1    0    0    0    0  0.00000000000E+00  0.00000000000E+00  0.45593999997E+02  0.45594000000E+02  0.51100000000E-03 0.  1.
         11   -1    0    0    0    0 -0.00000000000E+00 -0.00000000000E+00 -0.45593999997E+02  0.45594000000E+02  0.51100000000E-03 0. -1.
    9900012    2    1    2    0    0 -0.15181493135E+02  0.15917745388E+02 -0.23083934203E+02  0.59301947087E+02  0.50000005580E+02 0.  0.
        -12    1    1    2    0    0  0.15181493135E+02 -0.15917745388E+02  0.23083934203E+02  0.31886052913E+02  0.00000000000E+00 0.  1.
         11    1    3    3    0    0 -0.40036423609E+01 -0.84800479969E+01 -0.21444673699E+02  0.23405435191E+02  0.51100000000E-03 0. -1.
        -11    1    3    3    0    0 -0.18341973222E+02  0.17225163367E+02  0.17093717611E+01  0.25220154377E+02  0.51100000000E-03 0.  1.
         12    1    3    3    0    0  0.71641224482E+01  0.71726300180E+01 -0.33486322657E+01  0.10676357519E+02  0.00000000000E+00 0. -1.
</event>
<event>
 7    1  0.5761011E-013  0.5930196E+02  0.7816164E-02  0.1266605E+00
        -11   -1    0    0    0    0  0.00000000000E+00  0.00000000000E+00  0.45593999997E+02  0.45594000000E+02  0.51100000000E-03 0. -1.
         11   -1    0    0    0    0 -0.00000000000E+00 -0.00000000000E+00 -0.45593999997E+02  0.45594000000E+02  0.51100000000E-03 0.  1.
    9900012    2    1    2    0    0  0.30146324695E+02  0.50199735738E+01  0.90949832696E+01  0.59301956847E+02  0.50000023378E+02 0.  0.
        -12    1    1    2    0    0 -0.30146324695E+02 -0.50199735738E+01 -0.90949832696E+01  0.31886043153E+02  0.00000000000E+00 0.  1.
         11    1    3    3    0    0  0.25077639739E+02  0.91402327042E+01  0.27480405488E+02  0.38309327256E+02  0.51100000000E-03 0. -1.
        -11    1    3    3    0    0 -0.15905743037E+01 -0.28524969590E+01 -0.47412961452E+01  0.57573044834E+01  0.51100000000E-03 0.  1.
         12    1    3    3    0    0  0.66592592604E+01 -0.12677621714E+01 -0.13644126073E+02  0.15235325107E+02  0.00000000000E+00 0. -1.
</event>
<event>
 7    1  0.5761011E-013  0.5930194E+02  0.7816164E-02  0.1266605E+00
        -11   -1    0    0    0    0  0.00000000000E+00  0.00000000000E+00  0.45593999997E+02  0.45594000000E+02  0.51100000000E-03 0.  1.
         11   -1    0    0    0    0 -0.00000000000E+00 -0.00000000000E+00 -0.45593999997E+02  0.45594000000E+02  0.51100000000E-03 0. -1.
    9900012    2    1    2    0    0 -0.14181827621E+02 -0.23846692328E+02 -0.15714066090E+02  0.59301939681E+02  0.49999992072E+02 0.  0.
        -12    1    1    2    0    0  0.14181827621E+02  0.23846692328E+02  0.15714066090E+02  0.31886060319E+02  0.00000000000E+00 0.  1.
         11    1    3    3    0    0  0.23583791311E+01 -0.33964263079E+02 -0.89908375847E+01  0.35213183317E+02  0.51100000000E-03 0. -1.
        -11    1    3    3    0    0 -0.54943666959E+01  0.63298303850E+01  0.29906645019E+01  0.88993759622E+01  0.51100000000E-03 0.  1.
         12    1    3    3    0    0 -0.11045840056E+02  0.37877403662E+01 -0.97138930067E+01  0.15189380401E+02  0.00000000000E+00 0. -1.
</event>
<event>
 7    1  0.5761011E-013  0.5930196E+02  0.7816164E-02  0.1266605E+00
        -11   -1    0    0    0    0  0.00000000000E+00  0.00000000000E+00  0.45593999997E+02  0.45594000000E+02  0.51100000000E-03 0.  1.
         11   -1    0    0    0    0 -0.00000000000E+00 -0.00000000000E+00 -0.45593999997E+02  0.45594000000E+02  0.51100000000E-03 0. -1.
    9900012    2    1    2    0    0 -0.11654469453E+02 -0.16213441519E+02 -0.24859950074E+02  0.59301961334E+02  0.50000031562E+02 0.  0.
        -12    1    1    2    0    0  0.11654469453E+02  0.16213441519E+02  0.24859950074E+02  0.31886038666E+02  0.00000000000E+00 0.  1.
         11    1    3    3    0    0 -0.41181377057E+01 -0.25282101795E+02 -0.36934127959E+01  0.25880205325E+02  0.51100000000E-03 0. -1.
        -11    1    3    3    0    0 -0.68116391686E+01  0.26302458909E+00 -0.23346558365E+02  0.24321377383E+02  0.51100000000E-03 0.  1.
        -12    1    3    3    0    0 -0.72469257871E+00  0.88056356868E+01  0.21800210864E+01  0.91003786251E+01  0.00000000000E+00 0.  1.
</event>
<event>
 7    1  0.5761011E-013  0.5930192E+02  0.7816164E-02  0.1266605E+00
        -11   -1    0    0    0    0  0.00000000000E+00  0.00000000000E+00  0.45593999997E+02  0.45594000000E+02  0.51100000000E-03 0.  1.
         11   -1    0    0    0    0 -0.00000000000E+00 -0.00000000000E+00 -0.45593999997E+02  0.45594000000E+02  0.51100000000E-03 0. -1.
    9900012    2    1    2    0    0 -0.19620409420E+02 -0.11493926297E+01 -0.25108577967E+02  0.59301917507E+02  0.49999951632E+02 0.  0.
        -12    1    1    2    0    0  0.19620409420E+02  0.11493926297E+01  0.25108577967E+02  0.31886082493E+02  0.00000000000E+00 0.  1.
         11    1    3    3    0    0 -0.23206496944E+02 -0.90352307537E+00 -0.16871425572E+02  0.28705449926E+02  0.51100000000E-03 0. -1.
        -11    1    3    3    0    0  0.10845583905E+02  0.11081734943E+02 -0.72185908311E+01  0.17103788862E+02  0.51100000000E-03 0.  1.
        -12    1    3    3    0    0 -0.72594963803E+01 -0.11327604498E+02 -0.10185615645E+01  0.13492678719E+02  0.00000000000E+00 0.  1.
</event>
<event>
 7    1  0.5761011E-013  0.5930195E+02  0.7816164E-02  0.1266605E+00
        -11   -1    0    0    0    0  0.00000000000E+00  0.00000000000E+00  0.45593999997E+02  0.45594000000E+02  0.51100000000E-03 0.  1.
         11   -1    0    0    0    0 -0.00000000000E+00 -0.00000000000E+00 -0.45593999997E+02  0.45594000000E+02  0.51100000000E-03 0. -1.
    9900012    2    1    2    0    0 -0.21694434455E+02  0.23022799979E+02 -0.40028183110E+01  0.59301947255E+02  0.50000005886E+02 0.  0.
        -12    1    1    2    0    0  0.21694434455E+02 -0.23022799979E+02  0.40028183110E+01  0.31886052745E+02  0.00000000000E+00 0.  1.
         11    1    3    3    0    0  0.27384619397E+01  0.36860341220E+01 -0.10456755629E+02  0.11420584919E+02  0.51100000000E-03 0. -1.
        -11    1    3    3    0    0 -0.43384047858E+01  0.17561546321E+02  0.17254738819E+02  0.24999113529E+02  0.51100000000E-03 0.  1.
        -12    1    3    3    0    0 -0.20094491609E+02  0.17752195361E+01 -0.10800801500E+02  0.22882248807E+02  0.00000000000E+00 0.  1.
</event>
<event>
 7    1  0.5761011E-013  0.5930194E+02  0.7816164E-02  0.1266605E+00
        -11   -1    0    0    0    0  0.00000000000E+00  0.00000000000E+00  0.45593999997E+02  0.45594000000E+02  0.51100000000E-03 0.  1.
         11   -1    0    0    0    0 -0.00000000000E+00 -0.00000000000E+00 -0.45593999997E+02  0.45594000000E+02  0.51100000000E-03 0. -1.
    9900012    2    1    2    0    0 -0.16635296599E+02  0.10056494203E+02 -0.25275567970E+02  0.59301944979E+02  0.50000001735E+02 0.  0.
        -12    1    1    2    0    0  0.16635296599E+02 -0.10056494203E+02  0.25275567970E+02  0.31886055021E+02  0.00000000000E+00 0.  1.
         11    1    3    3    0    0 -0.69989210297E+01  0.29626149407E+02 -0.15039474023E+02  0.33954077861E+02  0.51100000000E-03 0. -1.
        -11    1    3    3    0    0 -0.10326587431E+02 -0.15401627153E+02 -0.63293303487E+01  0.19593594613E+02  0.51100000000E-03 0.  1.
         12    1    3    3    0    0  0.69021186165E+00 -0.41680280514E+01 -0.39067635984E+01  0.57542725053E+01  0.00000000000E+00 0. -1.
</event>
<event>
 7    1  0.5761011E-013  0.5930195E+02  0.7816164E-02  0.1266605E+00
        -11   -1    0    0    0    0  0.00000000000E+00  0.00000000000E+00  0.45593999997E+02  0.45594000000E+02  0.51100000000E-03 0. -1.
         11   -1    0    0    0    0 -0.00000000000E+00 -0.00000000000E+00 -0.45593999997E+02  0.45594000000E+02  0.51100000000E-03 0.  1.
    9900012    2    1    2    0    0  0.16469448845E+02 -0.63480624677E+00  0.27296048514E+02  0.59301953072E+02  0.50000016494E+02 0.  0.
        -12    1    1    2    0    0 -0.16469448845E+02  0.63480624677E+00 -0.27296048514E+02  0.31886046928E+02  0.00000000000E+00 0.  1.
         11    1    3    3    0    0  0.14271033175E+02 -0.12377823523E+02  0.19026275248E+02  0.26811789443E+02  0.51100000000E-03 0. -1.
        -11    1    3    3    0    0 -0.13165547842E+02  0.54107911478E+01  0.75996273209E+00  0.14254327569E+02  0.51100000000E-03 0.  1.
         12    1    3    3    0    0  0.15363963512E+02  0.63322261282E+01  0.75098105340E+01  0.18235836060E+02  0.00000000000E+00 0. -1.
</event>
<event>
 7    1  0.5761011E-013  0.5930191E+02  0.7816164E-02  0.1266605E+00
        -11   -1    0    0    0    0  0.00000000000E+00  0.00000000000E+00  0.45593999997E+02  0.45594000000E+02  0.51100000000E-03 0.  1.
         11   -1    0    0    0    0 -0.00000000000E+00 -0.00000000000E+00 -0.45593999997E+02  0.45594000000E+02  0.51100000000E-03 0. -1.
    9900012    2    1    2    0    0  0.12308827135E+02 -0.27617028816E+02 -0.10124978480E+02  0.59301910630E+02  0.49999939091E+02 0.  0.
        -12    1    1    2    0    0 -0.12308827135E+02  0.27617028816E+02  0.10124978480E+02  0.31886089370E+02  0.00000000000E+00 0.  1.
         11    1    3    3    0    0  0.70013488896E+01 -0.26000345015E+02 -0.18316769190E+02  0.32565946340E+02  0.51100000000E-03 0. -1.
        -11    1    3    3    0    0  0.13173309859E+02  0.10176968306E+01  0.11776693054E+02  0.17699217470E+02  0.51100000000E-03 0.  1.
        -12    1    3    3    0    0 -0.78658316137E+01 -0.26343806320E+01 -0.35849023443E+01  0.90367468211E+01  0.00000000000E+00 0.  1.
</event>
<event>
 7    1  0.5761011E-013  0.5930192E+02  0.7816164E-02  0.1266605E+00
        -11   -1    0    0    0    0  0.00000000000E+00  0.00000000000E+00  0.45593999997E+02  0.45594000000E+02  0.51100000000E-03 0.  1.
         11   -1    0    0    0    0 -0.00000000000E+00 -0.00000000000E+00 -0.45593999997E+02  0.45594000000E+02  0.51100000000E-03 0. -1.
    9900012    2    1    2    0    0 -0.22896956522E+02 -0.21925607428E+02 -0.34232986265E+01  0.59301923845E+02  0.49999963192E+02 0.  0.
        -12    1    1    2    0    0  0.22896956522E+02  0.21925607428E+02  0.34232986265E+01  0.31886076155E+02  0.00000000000E+00 0.  1.
         11    1    3    3    0    0 -0.19716712079E+02 -0.34519731924E+01  0.11097050303E+01  0.20047351437E+02  0.51100000000E-03 0. -1.
        -11    1    3    3    0    0  0.81782039311E+01 -0.19793593689E+02 -0.12975622528E+02  0.25040689905E+02  0.51100000000E-03 0.  1.
        -12    1    3    3    0    0 -0.11358448375E+02  0.13199594534E+01  0.84426188711E+01  0.14213882504E+02  0.00000000000E+00 0.  1.
</event>
<event>
 7    1  0.5761011E-013  0.5930193E+02  0.7816164E-02  0.1266605E+00
        -11   -1    0    0    0    0  0.00000000000E+00  0.00000000000E+00  0.45593999997E+02  0.45594000000E+02  0.51100000000E-03 0.  1.
         11   -1    0    0    0    0 -0.00000000000E+00 -0.00000000000E+00 -0.45593999997E+02  0.45594000000E+02  0.51100000000E-03 0. -1.
    9900012    2    1    2    0    0  0.19519600936E+02  0.68700630758E+00 -0.25203858380E+02  0.59301932892E+02  0.49999979692E+02 0.  0.
        -12    1    1    2    0    0 -0.19519600936E+02 -0.68700630758E+00  0.25203858380E+02  0.31886067108E+02  0.00000000000E+00 0.  1.
         11    1    3    3    0    0  0.11643058838E+02  0.13409749364E+02 -0.12247429340E+02  0.21572707823E+02  0.51100000000E-03 0. -1.
        -11    1    3    3    0    0  0.14492718261E+02 -0.16194074021E+02 -0.18407761661E+02  0.28480389843E+02  0.51100000000E-03 0.  1.
        -12    1    3    3    0    0 -0.66161761627E+01  0.34713309656E+01  0.54513326218E+01  0.92488352262E+01  0.00000000000E+00 0.  1.
</event>
<event>
 7    1  0.5761011E-013  0.5930193E+02  0.7816164E-02  0.1266605E+00
        -11   -1    0    0    0    0  0.00000000000E+00  0.00000000000E+00  0.45593999997E+02  0.45594000000E+02  0.51100000000E-03 0. -1.
         11   -1    0    0    0    0 -0.00000000000E+00 -0.00000000000E+00 -0.45593999997E+02  0.45594000000E+02  0.51100000000E-03 0.  1.
    9900012    2    1    2    0    0  0.30520134979E+02 -0.84089593938E+01 -0.38120842824E+01  0.59301933705E+02  0.49999981173E+02 0.  0.
        -12    1    1    2    0    0 -0.30520134979E+02  0.84089593938E+01  0.38120842824E+01  0.31886066295E+02  0.00000000000E+00 0.  1.
         11    1    3    3    0    0 -0.70437713567E+01 -0.61995918989E+01  0.11053296635E+02  0.14499138643E+02  0.51100000000E-03 0. -1.
        -11    1    3    3    0    0  0.40718922347E+01  0.20573553712E+01 -0.96041507196E+01  0.10632625678E+02  0.51100000000E-03 0.  1.
         12    1    3    3    0    0  0.33492014101E+02 -0.42667228660E+01 -0.52612301976E+01  0.34170169384E+02  0.00000000000E+00 0. -1.
</event>
<event>
 7    1  0.5761011E-013  0.5930191E+02  0.7816164E-02  0.1266605E+00
        -11   -1    0    0    0    0  0.00000000000E+00  0.00000000000E+00  0.45593999997E+02  0.45594000000E+02  0.51100000000E-03 0. -1.
         11   -1    0    0    0    0 -0.00000000000E+00 -0.00000000000E+00 -0.45593999997E+02  0.45594000000E+02  0.51100000000E-03 0.  1.
    9900012    2    1    2    0    0  0.14375013226E+02 -0.51324164940E+01  0.27995353738E+02  0.59301913140E+02  0.49999943669E+02 0.  0.
        -12    1    1    2    0    0 -0.14375013226E+02  0.51324164940E+01 -0.27995353738E+02  0.31886086860E+02  0.00000000000E+00 0.  1.
         11    1    3    3    0    0 -0.10713706056E+01 -0.45044321590E+00  0.20996372743E+02  0.21028514040E+02  0.51100000000E-03 0. -1.
        -11    1    3    3    0    0  0.42483634168E+01 -0.18832777578E+02  0.59301212557E+01  0.20196248201E+02  0.51100000000E-03 0.  1.
        -12    1    3    3    0    0  0.11198020414E+02  0.14150804300E+02  0.10688597388E+01  0.18077150900E+02  0.00000000000E+00 0.  1.
</event>
<event>
 7    1  0.5761011E-013  0.5930197E+02  0.7816164E-02  0.1266605E+00
        -11   -1    0    0    0    0  0.00000000000E+00  0.00000000000E+00  0.45593999997E+02  0.45594000000E+02  0.51100000000E-03 0.  1.
         11   -1    0    0    0    0 -0.00000000000E+00 -0.00000000000E+00 -0.45593999997E+02  0.45594000000E+02  0.51100000000E-03 0. -1.
    9900012    2    1    2    0    0 -0.25422966842E+02  0.19138363999E+02 -0.20285197812E+01  0.59301966817E+02  0.50000041563E+02 0.  0.
        -12    1    1    2    0    0  0.25422966842E+02 -0.19138363999E+02  0.20285197812E+01  0.31886033183E+02  0.00000000000E+00 0.  1.
         11    1    3    3    0    0  0.15978836429E+01 -0.67200674599E+01 -0.33595330294E+01  0.76810807337E+01  0.51100000000E-03 0. -1.
        -11    1    3    3    0    0 -0.33541327006E+02  0.11142712714E+02  0.28227245785E+01  0.35456289122E+02  0.51100000000E-03 0.  1.
         12    1    3    3    0    0  0.65204765215E+01  0.14715718745E+02 -0.14917113304E+01  0.16164596962E+02  0.00000000000E+00 0. -1.
</event>
<event>
 7    1  0.5761011E-013  0.5930197E+02  0.7816164E-02  0.1266605E+00
        -11   -1    0    0    0    0  0.00000000000E+00  0.00000000000E+00  0.45593999997E+02  0.45594000000E+02  0.51100000000E-03 0. -1.
         11   -1    0    0    0    0 -0.00000000000E+00 -0.00000000000E+00 -0.45593999997E+02  0.45594000000E+02  0.51100000000E-03 0.  1.
    9900012    2    1    2    0    0  0.15308394144E+02 -0.19304457962E+02  0.20241295234E+02  0.59301967616E+02  0.50000043019E+02 0.  0.
        -12    1    1    2    0    0 -0.15308394144E+02  0.19304457962E+02 -0.20241295234E+02  0.31886032384E+02  0.00000000000E+00 0.  1.
         11    1    3    3    0    0 -0.53756927432E+01  0.50457777994E+01  0.13538329164E+02  0.15415716101E+02  0.51100000000E-03 0. -1.
        -11    1    3    3    0    0  0.26272794704E+02 -0.21145910371E+02  0.11738091590E+02  0.35709831439E+02  0.51100000000E-03 0.  1.
        -12    1    3    3    0    0 -0.55887078162E+01 -0.32043253904E+01 -0.50351255202E+01  0.81764200765E+01  0.00000000000E+00 0.  1.
</event>
<event>
 7    1  0.5761011E-013  0.5930193E+02  0.7816164E-02  0.1266605E+00
        -11   -1    0    0    0    0  0.00000000000E+00  0.00000000000E+00  0.45593999997E+02  0.45594000000E+02  0.51100000000E-03 0.  1.
         11   -1    0    0    0    0 -0.00000000000E+00 -0.00000000000E+00 -0.45593999997E+02  0.45594000000E+02  0.51100000000E-03 0. -1.
    9900012    2    1    2    0    0 -0.18779995023E+01  0.13156844178E+02 -0.28984344433E+02  0.59301926974E+02  0.49999968897E+02 0.  0.
        -12    1    1    2    0    0  0.18779995023E+01 -0.13156844178E+02  0.28984344433E+02  0.31886073026E+02  0.00000000000E+00 0.  1.
         11    1    3    3    0    0  0.16642187512E+01 -0.39665271804E+01 -0.42781724538E+01  0.60667719366E+01  0.51100000000E-03 0. -1.
        -11    1    3    3    0    0 -0.16233916863E+02  0.20505383439E+02 -0.10469388659E+01  0.26174546566E+02  0.51100000000E-03 0.  1.
        -12    1    3    3    0    0  0.12691698610E+02 -0.33820120804E+01 -0.23659233113E+02  0.27060608471E+02  0.00000000000E+00 0.  1.
</event>
<event>
 7    1  0.5761011E-013  0.5930194E+02  0.7816164E-02  0.1266605E+00
        -11   -1    0    0    0    0  0.00000000000E+00  0.00000000000E+00  0.45593999997E+02  0.45594000000E+02  0.51100000000E-03 0.  1.
         11   -1    0    0    0    0 -0.00000000000E+00 -0.00000000000E+00 -0.45593999997E+02  0.45594000000E+02  0.51100000000E-03 0. -1.
    9900012    2    1    2    0    0  0.63551228229E+01  0.28005022705E+02 -0.13858289508E+02  0.59301936102E+02  0.49999985545E+02 0.  0.
        -12    1    1    2    0    0 -0.63551228229E+01 -0.28005022705E+02  0.13858289508E+02  0.31886063898E+02  0.00000000000E+00 0.  1.
         11    1    3    3    0    0  0.16651953917E+02  0.64598502394E+01  0.47671097375E+01  0.18486280586E+02  0.51100000000E-03 0. -1.
        -11    1    3    3    0    0 -0.88181366683E+01  0.68284715200E+01 -0.22855791202E+02  0.25431766540E+02  0.51100000000E-03 0.  1.
        -12    1    3    3    0    0 -0.14786944260E+01  0.14716700946E+02  0.42303919564E+01  0.15383888977E+02  0.00000000000E+00 0.  1.
</event>
<event>
 7    1  0.5761011E-013  0.5930197E+02  0.7816164E-02  0.1266605E+00
        -11   -1    0    0    0    0  0.00000000000E+00  0.00000000000E+00  0.45593999997E+02  0.45594000000E+02  0.51100000000E-03 0.  1.
         11   -1    0    0    0    0 -0.00000000000E+00 -0.00000000000E+00 -0.45593999997E+02  0.45594000000E+02  0.51100000000E-03 0. -1.
    9900012    2    1    2    0    0 -0.11626827445E+02 -0.23845670926E+02 -0.17689545597E+02  0.59301966038E+02  0.50000040142E+02 0.  0.
        -12    1    1    2    0    0  0.11626827445E+02  0.23845670926E+02  0.17689545597E+02  0.31886033962E+02  0.00000000000E+00 0.  1.
         11    1    3    3    0    0 -0.28490878908E+02 -0.22327700174E+02 -0.11407242585E+02  0.37952359078E+02  0.51100000000E-03 0. -1.
        -11    1    3    3    0    0  0.14280319634E+02 -0.57910898438E+01 -0.46546980943E+01  0.16097529781E+02  0.51100000000E-03 0.  1.
         12    1    3    3    0    0  0.25837318282E+01  0.42731190910E+01 -0.16276049182E+01  0.52520771792E+01  0.00000000000E+00 0. -1.
</event>
<event>
 7    1  0.5761011E-013  0.5930188E+02  0.7816164E-02  0.1266605E+00
        -11   -1    0    0    0    0  0.00000000000E+00  0.00000000000E+00  0.45593999997E+02  0.45594000000E+02  0.51100000000E-03 0. -1.
         11   -1    0    0    0    0 -0.00000000000E+00 -0.00000000000E+00 -0.45593999997E+02  0.45594000000E+02  0.51100000000E-03 0.  1.
    9900012    2    1    2    0    0  0.44474697299E+01  0.15693547179E+02  0.27398118969E+02  0.59301884948E+02  0.49999892253E+02 0.  0.
        -12    1    1    2    0    0 -0.44474697299E+01 -0.15693547179E+02 -0.27398118969E+02  0.31886115052E+02  0.00000000000E+00 0.  1.
         11    1    3    3    0    0 -0.64011987883E+01 -0.99327967448E+01 -0.77676307010E+00  0.11842261534E+02  0.51100000000E-03 0.  1.
        -11    1    3    3    0    0  0.11208570226E+02  0.30661614379E+02  0.26773249831E+02  0.42220534691E+02  0.51100000000E-03 0. -1.
         12    1    3    3    0    0 -0.35990170775E+00 -0.50352704558E+01  0.14016322088E+01  0.52390887234E+01  0.00000000000E+00 0. -1.
</event>
<event>
 7    1  0.5761011E-013  0.5930194E+02  0.7816164E-02  0.1266605E+00
        -11   -1    0    0    0    0  0.00000000000E+00  0.00000000000E+00  0.45593999997E+02  0.45594000000E+02  0.51100000000E-03 0. -1.
         11   -1    0    0    0    0 -0.00000000000E+00 -0.00000000000E+00 -0.45593999997E+02  0.45594000000E+02  0.51100000000E-03 0.  1.
    9900012    2    1    2    0    0 -0.17579106889E+02  0.21793722913E+02  0.15255469835E+02  0.59301941647E+02  0.49999995657E+02 0.  0.
        -12    1    1    2    0    0  0.17579106889E+02 -0.21793722913E+02 -0.15255469835E+02  0.31886058353E+02  0.00000000000E+00 0.  1.
         11    1    3    3    0    0 -0.22103356715E+02  0.27505032299E+02 -0.28164455968E+01  0.35397987879E+02  0.51100000000E-03 0. -1.
        -11    1    3    3    0    0  0.87510491425E+01 -0.46371582156E+01  0.16546069774E+02  0.19283581686E+02  0.51100000000E-03 0.  1.
        -12    1    3    3    0    0 -0.42267993166E+01 -0.10741511705E+01  0.15258456585E+01  0.46203720817E+01  0.00000000000E+00 0.  1.
</event>
<event>
 7    1  0.5761011E-013  0.5930194E+02  0.7816164E-02  0.1266605E+00
        -11   -1    0    0    0    0  0.00000000000E+00  0.00000000000E+00  0.45593999997E+02  0.45594000000E+02  0.51100000000E-03 0.  1.
         11   -1    0    0    0    0 -0.00000000000E+00 -0.00000000000E+00 -0.45593999997E+02  0.45594000000E+02  0.51100000000E-03 0. -1.
    9900012    2    1    2    0    0  0.11417855376E+02  0.29101777184E+02  0.62801115211E+01  0.59301942587E+02  0.49999997372E+02 0.  0.
        -12    1    1    2    0    0 -0.11417855376E+02 -0.29101777184E+02 -0.62801115211E+01  0.31886057413E+02  0.00000000000E+00 0.  1.
         11    1    3    3    0    0  0.94487529105E+01  0.31139428878E+02  0.34910708846E+01  0.32728130692E+02  0.51100000000E-03 0. -1.
        -11    1    3    3    0    0 -0.66934396460E+00 -0.52970636974E+01  0.13797052203E+02  0.14794105411E+02  0.51100000000E-03 0.  1.
         12    1    3    3    0    0  0.26384464306E+01  0.32594120032E+01 -0.11008011567E+02  0.11779706483E+02  0.00000000000E+00 0. -1.
</event>
<event>
 7    1  0.5761011E-013  0.5930198E+02  0.7816164E-02  0.1266605E+00
        -11   -1    0    0    0    0  0.00000000000E+00  0.00000000000E+00  0.45593999997E+02  0.45594000000E+02  0.51100000000E-03 0. -1.
         11   -1    0    0    0    0 -0.00000000000E+00 -0.00000000000E+00 -0.45593999997E+02  0.45594000000E+02  0.51100000000E-03 0.  1.
    9900012    2    1    2    0    0 -0.21260987691E+02  0.23715044512E+02  0.15117721596E+01  0.59301978159E+02  0.50000062246E+02 0.  0.
        -12    1    1    2    0    0  0.21260987691E+02 -0.23715044512E+02 -0.15117721596E+01  0.31886021841E+02  0.00000000000E+00 0.  1.
         11    1    3    3    0    0 -0.45744614079E+01  0.13129913711E+01 -0.63939516849E+01  0.79707127613E+01  0.51100000000E-03 0.  1.
        -11    1    3    3    0    0 -0.18414600504E+02  0.23322072911E+01  0.20436506910E+02  0.27607743796E+02  0.51100000000E-03 0. -1.
        -12    1    3    3    0    0  0.17280742203E+01  0.20069845850E+02 -0.12530783065E+02  0.23723521602E+02  0.00000000000E+00 0.  1.
</event>
<event>
 7    1  0.5761011E-013  0.5930188E+02  0.7816164E-02  0.1266605E+00
        -11   -1    0    0    0    0  0.00000000000E+00  0.00000000000E+00  0.45593999997E+02  0.45594000000E+02  0.51100000000E-03 0. -1.
         11   -1    0    0    0    0 -0.00000000000E+00 -0.00000000000E+00 -0.45593999997E+02  0.45594000000E+02  0.51100000000E-03 0.  1.
    9900012    2    1    2    0    0  0.15636619854E+02  0.20444733622E+02 -0.18821097641E+02  0.59301878728E+02  0.49999880909E+02 0.  0.
        -12    1    1    2    0    0 -0.15636619854E+02 -0.20444733622E+02  0.18821097641E+02  0.31886121272E+02  0.00000000000E+00 0.  1.
         11    1    3    3    0    0 -0.63613846119E+01 -0.39750493333E+01  0.10058186828E+02  0.12547324572E+02  0.51100000000E-03 0.  1.
        -11    1    3    3    0    0  0.18003646681E+02  0.26666429479E+02 -0.24887237341E+02  0.40676828019E+02  0.51100000000E-03 0. -1.
        -12    1    3    3    0    0  0.39943577849E+01 -0.22466465238E+01 -0.39920471285E+01  0.60777261368E+01  0.00000000000E+00 0.  1.
</event>
<event>
 7    1  0.5761011E-013  0.5930193E+02  0.7816164E-02  0.1266605E+00
        -11   -1    0    0    0    0  0.00000000000E+00  0.00000000000E+00  0.45593999997E+02  0.45594000000E+02  0.51100000000E-03 0. -1.
         11   -1    0    0    0    0 -0.00000000000E+00 -0.00000000000E+00 -0.45593999997E+02  0.45594000000E+02  0.51100000000E-03 0.  1.
    9900012    2    1    2    0    0 -0.70630723612E+01  0.11221636633E+02  0.28998436675E+02  0.59301930165E+02  0.49999974718E+02 0.  0.
        -12    1    1    2    0    0  0.70630723612E+01 -0.11221636633E+02 -0.28998436675E+02  0.31886069835E+02  0.00000000000E+00 0.  1.
         11    1    3    3    0    0  0.93749679321E+01  0.69294749590E+01  0.25315311549E+02  0.27870641292E+02  0.51100000000E-03 0. -1.
        -11    1    3    3    0    0 -0.38917098549E+01  0.82970192142E+01 -0.92157747245E+01  0.12996785659E+02  0.51100000000E-03 0.  1.
        -12    1    3    3    0    0 -0.12546330438E+02 -0.40048575404E+01  0.12898899850E+02  0.18434503214E+02  0.00000000000E+00 0.  1.
</event>
<event>
 7    1  0.5761011E-013  0.5930194E+02  0.7816164E-02  0.1266605E+00
        -11   -1    0    0    0    0  0.00000000000E+00  0.00000000000E+00  0.45593999997E+02  0.45594000000E+02  0.51100000000E-03 0. -1.
         11   -1    0    0    0    0 -0.00000000000E+00 -0.00000000000E+00 -0.45593999997E+02  0.45594000000E+02  0.51100000000E-03 0.  1.
    9900012    2    1    2    0    0  0.39396862949E+01 -0.26727952603E+02  0.16935645524E+02  0.59301942423E+02  0.49999997074E+02 0.  0.
        -12    1    1    2    0    0 -0.39396862949E+01  0.26727952603E+02 -0.16935645524E+02  0.31886057577E+02  0.00000000000E+00 0.  1.
         11    1    3    3    0    0  0.17471579172E+01 -0.28558883815E+02 -0.99610953264E+01  0.30296630603E+02  0.51100000000E-03 0.  1.
        -11    1    3    3    0    0 -0.65596396838E+00  0.70601262591E+00  0.25698675518E+02  0.25716739028E+02  0.51100000000E-03 0. -1.
        -12    1    3    3    0    0  0.28484923461E+01  0.11249185856E+01  0.11980653323E+01  0.32885727923E+01  0.00000000000E+00 0.  1.
</event>
<event>
 7    1  0.5761011E-013  0.5930195E+02  0.7816164E-02  0.1266605E+00
        -11   -1    0    0    0    0  0.00000000000E+00  0.00000000000E+00  0.45593999997E+02  0.45594000000E+02  0.51100000000E-03 0. -1.
         11   -1    0    0    0    0 -0.00000000000E+00 -0.00000000000E+00 -0.45593999997E+02  0.45594000000E+02  0.51100000000E-03 0.  1.
    9900012    2    1    2    0    0 -0.15836922567E+02 -0.24377512158E+02  0.13101494983E+02  0.59301946839E+02  0.50000005126E+02 0.  0.
        -12    1    1    2    0    0  0.15836922567E+02  0.24377512158E+02 -0.13101494983E+02  0.31886053161E+02  0.00000000000E+00 0.  1.
         11    1    3    3    0    0  0.14257224986E+02 -0.15677859541E+02  0.14622647202E+02  0.25746563956E+02  0.51100000000E-03 0. -1.
        -11    1    3    3    0    0 -0.19880748760E+02 -0.12608584303E+01  0.29799890531E+01  0.20142350167E+02  0.51100000000E-03 0.  1.
         12    1    3    3    0    0 -0.10213398793E+02 -0.74387941873E+01 -0.45011412724E+01  0.13413032716E+02  0.00000000000E+00 0. -1.
</event>
<event>
 7    1  0.5761011E-013  0.5930193E+02  0.7816164E-02  0.1266605E+00
        -11   -1    0    0    0    0  0.00000000000E+00  0.00000000000E+00  0.45593999997E+02  0.45594000000E+02  0.51100000000E-03 0.  1.
         11   -1    0    0    0    0 -0.00000000000E+00 -0.00000000000E+00 -0.45593999997E+02  0.45594000000E+02  0.51100000000E-03 0. -1.
    9900012    2    1    2    0    0  0.27761603268E+02  0.14694850826E+02 -0.54841636896E+01  0.59301932382E+02  0.49999978761E+02 0.  0.
        -12    1    1    2    0    0 -0.27761603268E+02 -0.14694850826E+02  0.54841636896E+01  0.31886067618E+02  0.00000000000E+00 0.  1.
         11    1    3    3    0    0  0.22636230914E+02  0.12491564776E+02  0.12827287227E+02  0.28861348521E+02  0.51100000000E-03 0. -1.
        -11    1    3    3    0    0  0.67160114160E+01  0.28246076785E+01 -0.23696488898E+02  0.24791264676E+02  0.51100000000E-03 0.  1.
        -12    1    3    3    0    0 -0.15906390629E+01 -0.62132162886E+00  0.53850379816E+01  0.56493191854E+01  0.00000000000E+00 0.  1.
</event>
<event>
 7    1  0.5761011E-013  0.5930194E+02  0.7816164E-02  0.1266605E+00
        -11   -1    0    0    0    0  0.00000000000E+00  0.00000000000E+00  0.45593999997E+02  0.45594000000E+02  0.51100000000E-03 0. -1.
         11   -1    0    0    0    0 -0.00000000000E+00 -0.00000000000E+00 -0.45593999997E+02  0.45594000000E+02  0.51100000000E-03 0.  1.
    9900012    2    1    2    0    0  0.20895529243E+02  0.18967423757E+02  0.14843673844E+02  0.59301937849E+02  0.49999988732E+02 0.  0.
        -12    1    1    2    0    0 -0.20895529243E+02 -0.18967423757E+02 -0.14843673844E+02  0.31886062151E+02  0.00000000000E+00 0.  1.
         11    1    3    3    0    0  0.51005797945E+01 -0.52366433657E+00 -0.54213634177E+01  0.74619917010E+01  0.51100000000E-03 0. -1.
        -11    1    3    3    0    0 -0.72955732732E+01  0.22841278348E+02  0.69010406251E+01  0.24951427773E+02  0.51100000000E-03 0.  1.
        -12    1    3    3    0    0  0.23090522722E+02 -0.33501902545E+01  0.13363996637E+02  0.26888518375E+02  0.00000000000E+00 0.  1.
</event>
<event>
 7    1  0.5761011E-013  0.5930193E+02  0.7816164E-02  0.1266605E+00
        -11   -1    0    0    0    0  0.00000000000E+00  0.00000000000E+00  0.45593999997E+02  0.45594000000E+02  0.51100000000E-03 0. -1.
         11   -1    0    0    0    0 -0.00000000000E+00 -0.00000000000E+00 -0.45593999997E+02  0.45594000000E+02  0.51100000000E-03 0.  1.
    9900012    2    1    2    0    0  0.30301593777E+02 -0.13712940349E+01  0.98312859924E+01  0.59301933811E+02  0.49999981366E+02 0.  0.
        -12    1    1    2    0    0 -0.30301593777E+02  0.13712940349E+01 -0.98312859924E+01  0.31886066189E+02  0.00000000000E+00 0.  1.
         11    1    3    3    0    0  0.37825362956E+02 -0.74278318456E+01  0.13300325764E+02  0.40777805659E+02  0.51100000000E-03 0. -1.
        -11    1    3    3    0    0 -0.71425193314E+01 -0.39569272993E+01 -0.12472221496E+01  0.82600496005E+01  0.51100000000E-03 0.  1.
        -12    1    3    3    0    0 -0.38124984734E+00  0.10013465110E+02 -0.22218176223E+01  0.10264078551E+02  0.00000000000E+00 0.  1.
</event>
<event>
 7    1  0.5761011E-013  0.5930194E+02  0.7816164E-02  0.1266605E+00
        -11   -1    0    0    0    0  0.00000000000E+00  0.00000000000E+00  0.45593999997E+02  0.45594000000E+02  0.51100000000E-03 0. -1.
         11   -1    0    0    0    0 -0.00000000000E+00 -0.00000000000E+00 -0.45593999997E+02  0.45594000000E+02  0.51100000000E-03 0.  1.
    9900012    2    1    2    0    0  0.94973403154E+01  0.54166993144E+00  0.30433993462E+02  0.59301939763E+02  0.49999992222E+02 0.  0.
        -12    1    1    2    0    0 -0.94973403154E+01 -0.54166993144E+00 -0.30433993462E+02  0.31886060237E+02  0.00000000000E+00 0.  1.
         11    1    3    3    0    0  0.68764856298E+01 -0.14460898081E+02  0.17451936375E+02  0.23684883606E+02  0.51100000000E-03 0. -1.
        -11    1    3    3    0    0 -0.77864630764E+01  0.12299580637E+02 -0.43740925192E+01  0.15200045286E+02  0.51100000000E-03 0.  1.
        -12    1    3    3    0    0  0.10407317762E+02  0.27029873758E+01  0.17356149606E+02  0.20417010871E+02  0.00000000000E+00 0.  1.
</event>
<event>
 7    1  0.5761011E-013  0.5930191E+02  0.7816164E-02  0.1266605E+00
        -11   -1    0    0    0    0  0.00000000000E+00  0.00000000000E+00  0.45593999997E+02  0.45594000000E+02  0.51100000000E-03 0.  1.
         11   -1    0    0    0    0 -0.00000000000E+00 -0.00000000000E+00 -0.45593999997E+02  0.45594000000E+02  0.51100000000E-03 0. -1.
    9900012    2    1    2    0    0 -0.88366804383E+01  0.30597261924E+02  0.15632110275E+01  0.59301906054E+02  0.49999930746E+02 0.  0.
        -12    1    1    2    0    0  0.88366804383E+01 -0.30597261924E+02 -0.15632110275E+01  0.31886093946E+02  0.00000000000E+00 0.  1.
         11    1    3    3    0    0  0.46957270935E+01  0.33977997454E+02  0.12782227179E+01  0.34324743517E+02  0.51100000000E-03 0. -1.
        -11    1    3    3    0    0 -0.12880066321E+01 -0.94628420152E-01  0.93202184125E+01  0.94092713395E+01  0.51100000000E-03 0.  1.
         12    1    3    3    0    0 -0.12244400900E+02 -0.32861071105E+01 -0.90352301030E+01  0.15567891198E+02  0.00000000000E+00 0. -1.
</event>
<event>
 7    1  0.5761011E-013  0.5930195E+02  0.7816164E-02  0.1266605E+00
        -11   -1    0    0    0    0  0.00000000000E+00  0.00000000000E+00  0.45593999997E+02  0.45594000000E+02  0.51100000000E-03 0.  1.
         11   -1    0    0    0    0 -0.00000000000E+00 -0.00000000000E+00 -0.45593999997E+02  0.45594000000E+02  0.51100000000E-03 0. -1.
    9900012    2    1    2    0    0 -0.13799961673E+02  0.28698565983E+02 -0.16350328778E+01  0.59301953456E+02  0.50000017196E+02 0.  0.
        -12    1    1    2    0    0  0.13799961673E+02 -0.28698565983E+02  0.16350328778E+01  0.31886046544E+02  0.00000000000E+00 0.  1.
         11    1    3    3    0    0 -0.10902213320E+01 -0.12654503073E+02 -0.62427880474E+01  0.14152647577E+02  0.51100000000E-03 0.  1.
        -11    1    3    3    0    0 -0.10420565477E+02  0.25905042716E+02  0.82457143756E+01  0.29114450515E+02  0.51100000000E-03 0. -1.
        -12    1    3    3    0    0 -0.22891748650E+01  0.15448026340E+02 -0.36379592060E+01  0.16034855364E+02  0.00000000000E+00 0.  1.
</event>
<event>
 7    1  0.5761011E-013  0.5930190E+02  0.7816164E-02  0.1266605E+00
        -11   -1    0    0    0    0  0.00000000000E+00  0.00000000000E+00  0.45593999997E+02  0.45594000000E+02  0.51100000000E-03 0.  1.
         11   -1    0    0    0    0 -0.00000000000E+00 -0.00000000000E+00 -0.45593999997E+02  0.45594000000E+02  0.51100000000E-03 0. -1.
    9900012    2    1    2    0    0  0.20077697274E+02  0.19308933466E+02 -0.15516919047E+02  0.59301896191E+02  0.49999912757E+02 0.  0.
        -12    1    1    2    0    0 -0.20077697274E+02 -0.19308933466E+02  0.15516919047E+02  0.31886103809E+02  0.00000000000E+00 0.  1.
         11    1    3    3    0    0  0.23818888176E+00  0.11413873016E+01 -0.96395109725E+01  0.97097719317E+01  0.51100000000E-03 0. -1.
        -11    1    3    3    0    0  0.23060370258E+02  0.28400491025E+02  0.14304601597E+01  0.36611675507E+02  0.51100000000E-03 0.  1.
        -12    1    3    3    0    0 -0.32208618653E+01 -0.10232944861E+02 -0.73078682343E+01  0.12980448752E+02  0.00000000000E+00 0.  1.
</event>
<event>
 7    1  0.5761011E-013  0.5930187E+02  0.7816164E-02  0.1266605E+00
        -11   -1    0    0    0    0  0.00000000000E+00  0.00000000000E+00  0.45593999997E+02  0.45594000000E+02  0.51100000000E-03 0.  1.
         11   -1    0    0    0    0 -0.00000000000E+00 -0.00000000000E+00 -0.45593999997E+02  0.45594000000E+02  0.51100000000E-03 0. -1.
    9900012    2    1    2    0    0  0.11691369882E+00  0.11090510849E+01 -0.31866624815E+02  0.59301867587E+02  0.49999860591E+02 0.  0.
        -12    1    1    2    0    0 -0.11691369882E+00 -0.11090510849E+01  0.31866624815E+02  0.31886132413E+02  0.00000000000E+00 0.  1.
         11    1    3    3    0    0 -0.22733626881E+02  0.45038428458E+01 -0.10686001695E+02  0.25520443257E+02  0.51100000000E-03 0. -1.
        -11    1    3    3    0    0  0.21372885430E+02 -0.28703847633E+01 -0.12428367958E+02  0.24889830668E+02  0.51100000000E-03 0.  1.
        -12    1    3    3    0    0  0.14776551499E+01 -0.52440699756E+00 -0.87522551619E+01  0.88915936626E+01  0.00000000000E+00 0.  1.
</event>
<event>
 7    1  0.5761011E-013  0.5930192E+02  0.7816164E-02  0.1266605E+00
        -11   -1    0    0    0    0  0.00000000000E+00  0.00000000000E+00  0.45593999997E+02  0.45594000000E+02  0.51100000000E-03 0.  1.
         11   -1    0    0    0    0 -0.00000000000E+00 -0.00000000000E+00 -0.45593999997E+02  0.45594000000E+02  0.51100000000E-03 0. -1.
    9900012    2    1    2    0    0  0.19212227415E+02 -0.85669837207E+01 -0.23962867054E+02  0.59301923262E+02  0.49999962128E+02 0.  0.
        -12    1    1    2    0    0 -0.19212227415E+02  0.85669837207E+01  0.23962867054E+02  0.31886076738E+02  0.00000000000E+00 0.  1.
         11    1    3    3    0    0  0.20889881354E+02 -0.71882790493E+01 -0.28040451898E+02  0.35697695186E+02  0.51100000000E-03 0. -1.
        -11    1    3    3    0    0  0.30724508358E+01  0.93244662486E+01  0.63276861313E+01  0.11680121446E+02  0.51100000000E-03 0.  1.
         12    1    3    3    0    0 -0.47501047746E+01 -0.10703170920E+02 -0.22501012875E+01  0.11924106630E+02  0.00000000000E+00 0. -1.
</event>
<event>
 7    1  0.5761011E-013  0.5930198E+02  0.7816164E-02  0.1266605E+00
        -11   -1    0    0    0    0  0.00000000000E+00  0.00000000000E+00  0.45593999997E+02  0.45594000000E+02  0.51100000000E-03 0. -1.
         11   -1    0    0    0    0 -0.00000000000E+00 -0.00000000000E+00 -0.45593999997E+02  0.45594000000E+02  0.51100000000E-03 0.  1.
    9900012    2    1    2    0    0 -0.19257855755E+02 -0.25405975768E+02 -0.62446309316E+00  0.59301975363E+02  0.50000057149E+02 0.  0.
        -12    1    1    2    0    0  0.19257855755E+02  0.25405975768E+02  0.62446309316E+00  0.31886024637E+02  0.00000000000E+00 0.  1.
         11    1    3    3    0    0 -0.19669950757E+01 -0.14453094794E+02  0.10238023491E+02  0.17820722320E+02  0.51100000000E-03 0. -1.
        -11    1    3    3    0    0 -0.22152064698E+02 -0.31328718417E+00 -0.17318732725E+02  0.28120288454E+02  0.51100000000E-03 0.  1.
        -12    1    3    3    0    0  0.48612040193E+01 -0.10639593790E+02  0.64562461408E+01  0.13360964589E+02  0.00000000000E+00 0.  1.
</event>
<event>
 7    1  0.5761011E-013  0.5930197E+02  0.7816164E-02  0.1266605E+00
        -11   -1    0    0    0    0  0.00000000000E+00  0.00000000000E+00  0.45593999997E+02  0.45594000000E+02  0.51100000000E-03 0.  1.
         11   -1    0    0    0    0 -0.00000000000E+00 -0.00000000000E+00 -0.45593999997E+02  0.45594000000E+02  0.51100000000E-03 0. -1.
    9900012    2    1    2    0    0 -0.26216715598E+02 -0.31362058887E+01 -0.17876439391E+02  0.59301967801E+02  0.50000043356E+02 0.  0.
        -12    1    1    2    0    0  0.26216715598E+02  0.31362058887E+01  0.17876439391E+02  0.31886032199E+02  0.00000000000E+00 0.  1.
         11    1    3    3    0    0  0.61948985937E+01 -0.82270661538E+01 -0.11903109156E+02  0.15739929921E+02  0.51100000000E-03 0. -1.
        -11    1    3    3    0    0 -0.28079974629E+02 -0.80050649894E+01 -0.23088828635E+01  0.29289878474E+02  0.51100000000E-03 0.  1.
        -12    1    3    3    0    0 -0.43316395619E+01  0.13095925254E+02 -0.36644473717E+01  0.14272159406E+02  0.00000000000E+00 0.  1.
</event>
<event>
 7    1  0.5761011E-013  0.5930194E+02  0.7816164E-02  0.1266605E+00
        -11   -1    0    0    0    0  0.00000000000E+00  0.00000000000E+00  0.45593999997E+02  0.45594000000E+02  0.51100000000E-03 0.  1.
         11   -1    0    0    0    0 -0.00000000000E+00 -0.00000000000E+00 -0.45593999997E+02  0.45594000000E+02  0.51100000000E-03 0. -1.
    9900012    2    1    2    0    0 -0.21484139392E+02 -0.14364321640E+02  0.18676699268E+02  0.59301936004E+02  0.49999985367E+02 0.  0.
        -12    1    1    2    0    0  0.21484139392E+02  0.14364321640E+02 -0.18676699268E+02  0.31886063996E+02  0.00000000000E+00 0.  1.
         11    1    3    3    0    0 -0.74270169127E+01  0.33767897908E+01 -0.33896454172E+01  0.88347600889E+01  0.51100000000E-03 0. -1.
        -11    1    3    3    0    0 -0.80808554409E+01 -0.29009776907E+02  0.22676336688E+02  0.37697262855E+02  0.51100000000E-03 0.  1.
        -12    1    3    3    0    0 -0.59762670386E+01  0.11268665476E+02 -0.60999200325E+00  0.12769913061E+02  0.00000000000E+00 0.  1.
</event>
<event>
 7    1  0.5761011E-013  0.5930197E+02  0.7816164E-02  0.1266605E+00
        -11   -1    0    0    0    0  0.00000000000E+00  0.00000000000E+00  0.45593999997E+02  0.45594000000E+02  0.51100000000E-03 0. -1.
         11   -1    0    0    0    0 -0.00000000000E+00 -0.00000000000E+00 -0.45593999997E+02  0.45594000000E+02  0.51100000000E-03 0.  1.
    9900012    2    1    2    0    0 -0.20539294977E+02 -0.11229001603E+02  0.21650998968E+02  0.59301970591E+02  0.50000048445E+02 0.  0.
        -12    1    1    2    0    0  0.20539294977E+02  0.11229001603E+02 -0.21650998968E+02  0.31886029409E+02  0.00000000000E+00 0.  1.
         11    1    3    3    0    0  0.54317333473E+01  0.32133627142E+01  0.22030427613E+02  0.22916569730E+02  0.51100000000E-03 0. -1.
        -11    1    3    3    0    0 -0.25634984488E+02 -0.11289078971E+02 -0.71501690906E+01  0.28908833459E+02  0.51100000000E-03 0.  1.
        -12    1    3    3    0    0 -0.33604383635E+00 -0.31532853468E+01  0.67707404456E+01  0.74765674022E+01  0.00000000000E+00 0.  1.
</event>
<event>
 7    1  0.5761011E-013  0.5930195E+02  0.7816164E-02  0.1266605E+00
        -11   -1    0    0    0    0  0.00000000000E+00  0.00000000000E+00  0.45593999997E+02  0.45594000000E+02  0.51100000000E-03 0. -1.
         11   -1    0    0    0    0 -0.00000000000E+00 -0.00000000000E+00 -0.45593999997E+02  0.45594000000E+02  0.51100000000E-03 0.  1.
    9900012    2    1    2    0    0 -0.26543158208E+01  0.28912840543E+02 -0.13180388306E+02  0.59301946989E+02  0.50000005400E+02 0.  0.
        -12    1    1    2    0    0  0.26543158208E+01 -0.28912840543E+02  0.13180388306E+02  0.31886053011E+02  0.00000000000E+00 0.  1.
         11    1    3    3    0    0 -0.40611672107E+01 -0.58484758085E+01  0.10567589422E+02  0.12742515248E+02  0.51100000000E-03 0. -1.
        -11    1    3    3    0    0 -0.22947047710E+01  0.34831398267E+02 -0.16918041966E+02  0.38790618962E+02  0.51100000000E-03 0.  1.
         12    1    3    3    0    0  0.37015561609E+01 -0.70081915135E-01 -0.68299357619E+01  0.77688127792E+01  0.00000000000E+00 0. -1.
</event>
<event>
 7    1  0.5761011E-013  0.5930193E+02  0.7816164E-02  0.1266605E+00
        -11   -1    0    0    0    0  0.00000000000E+00  0.00000000000E+00  0.45593999997E+02  0.45594000000E+02  0.51100000000E-03 0. -1.
         11   -1    0    0    0    0 -0.00000000000E+00 -0.00000000000E+00 -0.45593999997E+02  0.45594000000E+02  0.51100000000E-03 0.  1.
    9900012    2    1    2    0    0  0.10628633606E+01 -0.28877631619E+02  0.13478656780E+02  0.59301929765E+02  0.49999973989E+02 0.  0.
        -12    1    1    2    0    0 -0.10628633606E+01  0.28877631619E+02 -0.13478656780E+02  0.31886070235E+02  0.00000000000E+00 0.  1.
         11    1    3    3    0    0  0.14967511170E+01 -0.34159110074E+02  0.43380464821E+00  0.34194637762E+02  0.51100000000E-03 0. -1.
        -11    1    3    3    0    0 -0.77017316221E+01 -0.10470735473E+01  0.13369632662E+02  0.15464802319E+02  0.51100000000E-03 0.  1.
        -12    1    3    3    0    0  0.72678438657E+01  0.63285520029E+01 -0.32478053074E+00  0.96424896838E+01  0.00000000000E+00 0.  1.
</event>
<event>
 7    1  0.5761011E-013  0.5930195E+02  0.7816164E-02  0.1266605E+00
        -11   -1    0    0    0    0  0.00000000000E+00  0.00000000000E+00  0.45593999997E+02  0.45594000000E+02  0.51100000000E-03 0.  1.
         11   -1    0    0    0    0 -0.00000000000E+00 -0.00000000000E+00 -0.45593999997E+02  0.45594000000E+02  0.51100000000E-03 0. -1.
    9900012    2    1    2    0    0 -0.41119961244E+00  0.18333743982E+02 -0.26084956978E+02  0.59301949224E+02  0.50000009477E+02 0.  0.
        -12    1    1    2    0    0  0.41119961244E+00 -0.18333743982E+02  0.26084956978E+02  0.31886050776E+02  0.00000000000E+00 0.  1.
         11    1    3    3    0    0  0.54122957788E+00 -0.12109078888E+01 -0.33115608150E+02  0.33142159416E+02  0.51100000000E-03 0. -1.
        -11    1    3    3    0    0  0.19946985217E+01  0.63902370966E+01  0.10303907120E+02  0.12287573175E+02  0.51100000000E-03 0.  1.
        -12    1    3    3    0    0 -0.29471277121E+01  0.13154414774E+02 -0.32732559477E+01  0.13872216633E+02  0.00000000000E+00 0.  1.
</event>
<event>
 7    1  0.5761011E-013  0.5930193E+02  0.7816164E-02  0.1266605E+00
        -11   -1    0    0    0    0  0.00000000000E+00  0.00000000000E+00  0.45593999997E+02  0.45594000000E+02  0.51100000000E-03 0.  1.
         11   -1    0    0    0    0 -0.00000000000E+00 -0.00000000000E+00 -0.45593999997E+02  0.45594000000E+02  0.51100000000E-03 0. -1.
    9900012    2    1    2    0    0  0.24566965515E+02 -0.10309891457E+00 -0.20326714150E+02  0.59301925734E+02  0.49999966636E+02 0.  0.
        -12    1    1    2    0    0 -0.24566965515E+02  0.10309891457E+00  0.20326714150E+02  0.31886074266E+02  0.00000000000E+00 0.  1.
         11    1    3    3    0    0  0.10195763148E+02 -0.14581581160E+02 -0.12535262706E+02  0.21764854851E+02  0.51100000000E-03 0. -1.
        -11    1    3    3    0    0  0.73452361658E+01  0.13543934388E+02  0.10011906978E+02  0.18374681892E+02  0.51100000000E-03 0.  1.
         12    1    3    3    0    0  0.70259662009E+01  0.93454785668E+00 -0.17803358421E+02  0.19162388991E+02  0.00000000000E+00 0. -1.
</event>
<event>
 7    1  0.5761011E-013  0.5930194E+02  0.7816164E-02  0.1266605E+00
        -11   -1    0    0    0    0  0.00000000000E+00  0.00000000000E+00  0.45593999997E+02  0.45594000000E+02  0.51100000000E-03 0.  1.
         11   -1    0    0    0    0 -0.00000000000E+00 -0.00000000000E+00 -0.45593999997E+02  0.45594000000E+02  0.51100000000E-03 0. -1.
    9900012    2    1    2    0    0 -0.14585677055E+02 -0.22557281710E+02 -0.17179866505E+02  0.59301941190E+02  0.49999994824E+02 0.  0.
        -12    1    1    2    0    0  0.14585677055E+02  0.22557281710E+02  0.17179866505E+02  0.31886058810E+02  0.00000000000E+00 0.  1.
         11    1    3    3    0    0  0.14697792992E+02 -0.20203772268E+02 -0.70896437757E+01  0.25970763982E+02  0.51100000000E-03 0. -1.
        -11    1    3    3    0    0 -0.19917601093E+02 -0.65454727124E-01 -0.78701233151E+00  0.19933251273E+02  0.51100000000E-03 0.  1.
         12    1    3    3    0    0 -0.93658689542E+01 -0.22880547150E+01 -0.93032103983E+01  0.13397925935E+02  0.00000000000E+00 0. -1.
</event>
<event>
 7    1  0.5761011E-013  0.5930192E+02  0.7816164E-02  0.1266605E+00
        -11   -1    0    0    0    0  0.00000000000E+00  0.00000000000E+00  0.45593999997E+02  0.45594000000E+02  0.51100000000E-03 0. -1.
         11   -1    0    0    0    0 -0.00000000000E+00 -0.00000000000E+00 -0.45593999997E+02  0.45594000000E+02  0.51100000000E-03 0.  1.
    9900012    2    1    2    0    0 -0.15615219398E+02 -0.15722507508E+02  0.22927924234E+02  0.59301921081E+02  0.49999958150E+02 0.  0.
        -12    1    1    2    0    0  0.15615219398E+02  0.15722507508E+02 -0.22927924234E+02  0.31886078919E+02  0.00000000000E+00 0.  1.
         11    1    3    3    0    0 -0.78873257322E-01 -0.24138746069E+02  0.13097957208E+02  0.27463462383E+02  0.51100000000E-03 0.  1.
        -11    1    3    3    0    0 -0.45362698461E+01  0.15484587288E+02  0.95713269297E+01  0.18760609987E+02  0.51100000000E-03 0. -1.
         12    1    3    3    0    0 -0.11000076294E+02 -0.70683487277E+01  0.25864009591E+00  0.13077848711E+02  0.00000000000E+00 0. -1.
</event>
<event>
 7    1  0.5761011E-013  0.5930197E+02  0.7816164E-02  0.1266605E+00
        -11   -1    0    0    0    0  0.00000000000E+00  0.00000000000E+00  0.45593999997E+02  0.45594000000E+02  0.51100000000E-03 0.  1.
         11   -1    0    0    0    0 -0.00000000000E+00 -0.00000000000E+00 -0.45593999997E+02  0.45594000000E+02  0.51100000000E-03 0. -1.
    9900012    2    1    2    0    0  0.39368736885E+01  0.71927971815E+01 -0.30813687922E+02  0.59301973764E+02  0.50000054233E+02 0.  0.
        -12    1    1    2    0    0 -0.39368736885E+01 -0.71927971815E+01  0.30813687922E+02  0.31886026236E+02  0.00000000000E+00 0.  1.
         11    1    3    3    0    0  0.58996715628E+01 -0.97947151768E+01 -0.20383892428E+01  0.11614542647E+02  0.51100000000E-03 0. -1.
        -11    1    3    3    0    0  0.59802381928E+01  0.25306858551E+02 -0.23435631552E+02  0.35006130392E+02  0.51100000000E-03 0.  1.
        -12    1    3    3    0    0 -0.79430360671E+01 -0.83193461925E+01 -0.53396671276E+01  0.12681300725E+02  0.00000000000E+00 0.  1.
</event>
<event>
 7    1  0.5761011E-013  0.5930194E+02  0.7816164E-02  0.1266605E+00
        -11   -1    0    0    0    0  0.00000000000E+00  0.00000000000E+00  0.45593999997E+02  0.45594000000E+02  0.51100000000E-03 0.  1.
         11   -1    0    0    0    0 -0.00000000000E+00 -0.00000000000E+00 -0.45593999997E+02  0.45594000000E+02  0.51100000000E-03 0. -1.
    9900012    2    1    2    0    0  0.23746644824E+02 -0.11157889851E+02 -0.18119581336E+02  0.59301939187E+02  0.49999991172E+02 0.  0.
        -12    1    1    2    0    0 -0.23746644824E+02  0.11157889851E+02  0.18119581336E+02  0.31886060813E+02  0.00000000000E+00 0.  1.
         11    1    3    3    0    0  0.92404038963E+01  0.28108910614E+01 -0.27532522117E+02  0.29177490419E+02  0.51100000000E-03 0. -1.
        -11    1    3    3    0    0  0.19096336214E+02 -0.78483591351E+01  0.48205410023E+01  0.21201519138E+02  0.51100000000E-03 0.  1.
         12    1    3    3    0    0 -0.45900952865E+01 -0.61204217779E+01  0.45923997786E+01  0.89229296312E+01  0.00000000000E+00 0. -1.
</event>
<event>
 7    1  0.5761011E-013  0.5930194E+02  0.7816164E-02  0.1266605E+00
        -11   -1    0    0    0    0  0.00000000000E+00  0.00000000000E+00  0.45593999997E+02  0.45594000000E+02  0.51100000000E-03 0.  1.
         11   -1    0    0    0    0 -0.00000000000E+00 -0.00000000000E+00 -0.45593999997E+02  0.45594000000E+02  0.51100000000E-03 0. -1.
    9900012    2    1    2    0    0  0.29351140375E+02 -0.12272472099E+02 -0.21489631439E+01  0.59301936346E+02  0.49999985990E+02 0.  0.
        -12    1    1    2    0    0 -0.29351140375E+02  0.12272472099E+02  0.21489631439E+01  0.31886063654E+02  0.00000000000E+00 0.  1.
         11    1    3    3    0    0  0.38316010026E+02 -0.16575910961E+02 -0.91827706680E+01  0.42745768515E+02  0.51100000000E-03 0. -1.
        -11    1    3    3    0    0 -0.41540883876E+01 -0.11409648496E+01 -0.21754468472E+01  0.48260563990E+01  0.51100000000E-03 0.  1.
         12    1    3    3    0    0 -0.48107812633E+01  0.54444037112E+01  0.92092543714E+01  0.11730111432E+02  0.00000000000E+00 0. -1.
</event>
<event>
 7    1  0.5761011E-013  0.5930192E+02  0.7816164E-02  0.1266605E+00
        -11   -1    0    0    0    0  0.00000000000E+00  0.00000000000E+00  0.45593999997E+02  0.45594000000E+02  0.51100000000E-03 0.  1.
         11   -1    0    0    0    0 -0.00000000000E+00 -0.00000000000E+00 -0.45593999997E+02  0.45594000000E+02  0.51100000000E-03 0. -1.
    9900012    2    1    2    0    0  0.80150768183E+01 -0.77246472847E+01 -0.29879937914E+02  0.59301916487E+02  0.49999949772E+02 0.  0.
        -12    1    1    2    0    0 -0.80150768183E+01  0.77246472847E+01  0.29879937914E+02  0.31886083513E+02  0.00000000000E+00 0.  1.
         11    1    3    3    0    0  0.10757590462E+02  0.17013680114E+02 -0.65796050969E+01  0.21177399913E+02  0.51100000000E-03 0. -1.
        -11    1    3    3    0    0 -0.49034603376E+01 -0.80864500224E+01 -0.65454485227E-01  0.94572132152E+01  0.51100000000E-03 0.  1.
         12    1    3    3    0    0  0.21609466934E+01 -0.16651877376E+02 -0.23234878332E+02  0.28667303359E+02  0.00000000000E+00 0. -1.
</event>
<event>
 7    1  0.5761011E-013  0.5930193E+02  0.7816164E-02  0.1266605E+00
        -11   -1    0    0    0    0  0.00000000000E+00  0.00000000000E+00  0.45593999997E+02  0.45594000000E+02  0.51100000000E-03 0. -1.
         11   -1    0    0    0    0 -0.00000000000E+00 -0.00000000000E+00 -0.45593999997E+02  0.45594000000E+02  0.51100000000E-03 0.  1.
    9900012    2    1    2    0    0 -0.20508943871E+02 -0.12982316790E+02  0.20677629110E+02  0.59301926652E+02  0.49999968310E+02 0.  0.
        -12    1    1    2    0    0  0.20508943871E+02  0.12982316790E+02 -0.20677629110E+02  0.31886073348E+02  0.00000000000E+00 0.  1.
         11    1    3    3    0    0 -0.10943786990E+02  0.88679012653E+01  0.19167991421E+02  0.23786930065E+02  0.51100000000E-03 0. -1.
        -11    1    3    3    0    0 -0.96215096912E+01 -0.20325411014E+02 -0.94913926023E+01  0.24408652471E+02  0.51100000000E-03 0.  1.
        -12    1    3    3    0    0  0.56352810062E-01 -0.15248070412E+01  0.11001030291E+02  0.11106344116E+02  0.00000000000E+00 0.  1.
</event>
<event>
 7    1  0.5761011E-013  0.5930195E+02  0.7816164E-02  0.1266605E+00
        -11   -1    0    0    0    0  0.00000000000E+00  0.00000000000E+00  0.45593999997E+02  0.45594000000E+02  0.51100000000E-03 0.  1.
         11   -1    0    0    0    0 -0.00000000000E+00 -0.00000000000E+00 -0.45593999997E+02  0.45594000000E+02  0.51100000000E-03 0. -1.
    9900012    2    1    2    0    0 -0.73661847908E+01 -0.25710438187E+02 -0.17361830997E+02  0.59301945279E+02  0.50000002282E+02 0.  0.
        -12    1    1    2    0    0  0.73661847908E+01  0.25710438187E+02  0.17361830997E+02  0.31886054721E+02  0.00000000000E+00 0.  1.
         11    1    3    3    0    0  0.56390990213E+01 -0.10031427208E+02 -0.21265211931E+02  0.24179292966E+02  0.51100000000E-03 0. -1.
        -11    1    3    3    0    0  0.82022466390E+00 -0.38651968892E+01  0.13844547644E+02  0.14397361398E+02  0.51100000000E-03 0.  1.
         12    1    3    3    0    0 -0.13825508476E+02 -0.11813814089E+02 -0.99411667101E+01  0.20725290915E+02  0.00000000000E+00 0. -1.
</event>
<event>
 7    1  0.5761011E-013  0.5930198E+02  0.7816164E-02  0.1266605E+00
        -11   -1    0    0    0    0  0.00000000000E+00  0.00000000000E+00  0.45593999997E+02  0.45594000000E+02  0.51100000000E-03 0. -1.
         11   -1    0    0    0    0 -0.00000000000E+00 -0.00000000000E+00 -0.45593999997E+02  0.45594000000E+02  0.51100000000E-03 0.  1.
    9900012    2    1    2    0    0 -0.16868137294E+02 -0.26365226899E+02  0.60875967342E+01  0.59301983014E+02  0.50000071101E+02 0.  0.
        -12    1    1    2    0    0  0.16868137294E+02  0.26365226899E+02 -0.60875967342E+01  0.31886016986E+02  0.00000000000E+00 0.  1.
         11    1    3    3    0    0  0.53405821992E+01 -0.10270682456E+01  0.10859790758E+01  0.55458126746E+01  0.51100000000E-03 0.  1.
        -11    1    3    3    0    0 -0.15991028449E+02 -0.32044408955E+02 -0.90980500020E+01  0.36950394453E+02  0.51100000000E-03 0. -1.
        -12    1    3    3    0    0 -0.62176910448E+01  0.67062503007E+01  0.14099667660E+02  0.16805775887E+02  0.00000000000E+00 0.  1.
</event>
<event>
 7    1  0.5761011E-013  0.5930193E+02  0.7816164E-02  0.1266605E+00
        -11   -1    0    0    0    0  0.00000000000E+00  0.00000000000E+00  0.45593999997E+02  0.45594000000E+02  0.51100000000E-03 0.  1.
         11   -1    0    0    0    0 -0.00000000000E+00 -0.00000000000E+00 -0.45593999997E+02  0.45594000000E+02  0.51100000000E-03 0. -1.
    9900012    2    1    2    0    0 -0.21604927525E+02  0.19747841803E+02 -0.12647971329E+02  0.59301932071E+02  0.49999978194E+02 0.  0.
        -12    1    1    2    0    0  0.21604927525E+02 -0.19747841803E+02  0.12647971329E+02  0.31886067929E+02  0.00000000000E+00 0.  1.
         11    1    3    3    0    0 -0.36371912718E+01  0.20193591119E+02 -0.13536246797E+02  0.24581298994E+02  0.51100000000E-03 0. -1.
        -11    1    3    3    0    0  0.37696917930E+01  0.16398387742E+01  0.10187623686E+02  0.10985778263E+02  0.51100000000E-03 0.  1.
         12    1    3    3    0    0 -0.21737428047E+02 -0.20855880903E+01 -0.92993482172E+01  0.23734854814E+02  0.00000000000E+00 0. -1.
</event>
<event>
 7    1  0.5761011E-013  0.5930204E+02  0.7816164E-02  0.1266604E+00
        -11   -1    0    0    0    0  0.00000000000E+00  0.00000000000E+00  0.45593999997E+02  0.45594000000E+02  0.51100000000E-03 0.  1.
         11   -1    0    0    0    0 -0.00000000000E+00 -0.00000000000E+00 -0.45593999997E+02  0.45594000000E+02  0.51100000000E-03 0. -1.
    9900012    2    1    2    0    0 -0.11981142565E+02  0.23227695389E+02 -0.18265838930E+02  0.59302039421E+02  0.50000173974E+02 0.  0.
        -12    1    1    2    0    0  0.11981142565E+02 -0.23227695389E+02  0.18265838930E+02  0.31885960579E+02  0.00000000000E+00 0.  1.
         11    1    3    3    0    0  0.35334873782E+01 -0.70812803557E+01 -0.17438062693E+02  0.19149832774E+02  0.51100000000E-03 0. -1.
        -11    1    3    3    0    0 -0.20488051001E+02  0.20466872807E+02 -0.21842509741E+01  0.29041764218E+02  0.51100000000E-03 0.  1.
         12    1    3    3    0    0  0.49734210575E+01  0.98421029375E+01  0.13564747369E+01  0.11110442429E+02  0.00000000000E+00 0. -1.
</event>
<event>
 7    1  0.5761011E-013  0.5930193E+02  0.7816164E-02  0.1266605E+00
        -11   -1    0    0    0    0  0.00000000000E+00  0.00000000000E+00  0.45593999997E+02  0.45594000000E+02  0.51100000000E-03 0.  1.
         11   -1    0    0    0    0 -0.00000000000E+00 -0.00000000000E+00 -0.45593999997E+02  0.45594000000E+02  0.51100000000E-03 0. -1.
    9900012    2    1    2    0    0  0.24006550532E+02 -0.18886341839E+02  0.91494688175E+01  0.59301934766E+02  0.49999983108E+02 0.  0.
        -12    1    1    2    0    0 -0.24006550532E+02  0.18886341839E+02 -0.91494688175E+01  0.31886065234E+02  0.00000000000E+00 0.  1.
         11    1    3    3    0    0  0.36054641129E+02 -0.12064869700E+02  0.37125462579E+01  0.38200539627E+02  0.51100000000E-03 0. -1.
        -11    1    3    3    0    0 -0.10430460489E+02 -0.11302252144E+02  0.27235048980E+01  0.15618991284E+02  0.51100000000E-03 0.  1.
        -12    1    3    3    0    0 -0.16176301076E+01  0.44807800054E+01  0.27134176617E+01  0.54824038549E+01  0.00000000000E+00 0.  1.
</event>
<event>
 7    1  0.5761011E-013  0.5930195E+02  0.7816164E-02  0.1266605E+00
        -11   -1    0    0    0    0  0.00000000000E+00  0.00000000000E+00  0.45593999997E+02  0.45594000000E+02  0.51100000000E-03 0.  1.
         11   -1    0    0    0    0 -0.00000000000E+00 -0.00000000000E+00 -0.45593999997E+02  0.45594000000E+02  0.51100000000E-03 0. -1.
    9900012    2    1    2    0    0 -0.72977270920E+01  0.23945315403E+02 -0.19750583393E+02  0.59301945136E+02  0.50000002020E+02 0.  0.
        -12    1    1    2    0    0  0.72977270920E+01 -0.23945315403E+02  0.19750583393E+02  0.31886054864E+02  0.00000000000E+00 0.  1.
         11    1    3    3    0    0 -0.66740003966E+01  0.83725446199E+01  0.21738332661E+01  0.10925535961E+02  0.51100000000E-03 0. -1.
        -11    1    3    3    0    0 -0.14230998129E+02  0.50407752715E+01 -0.26564355801E+02  0.30554798682E+02  0.51100000000E-03 0.  1.
        -12    1    3    3    0    0  0.13607271433E+02  0.10531995512E+02  0.46399391423E+01  0.17821610493E+02  0.00000000000E+00 0.  1.
</event>
<event>
 7    1  0.5761011E-013  0.5930194E+02  0.7816164E-02  0.1266605E+00
        -11   -1    0    0    0    0  0.00000000000E+00  0.00000000000E+00  0.45593999997E+02  0.45594000000E+02  0.51100000000E-03 0.  1.
         11   -1    0    0    0    0 -0.00000000000E+00 -0.00000000000E+00 -0.45593999997E+02  0.45594000000E+02  0.51100000000E-03 0. -1.
    9900012    2    1    2    0    0 -0.18383576041E+02  0.26050301941E+02  0.38328934077E+00  0.59301937057E+02  0.49999987288E+02 0.  0.
        -12    1    1    2    0    0  0.18383576041E+02 -0.26050301941E+02 -0.38328934077E+00  0.31886062943E+02  0.00000000000E+00 0.  1.
         11    1    3    3    0    0 -0.27475068932E+02  0.75872566348E+01  0.22972494997E+01  0.28595860392E+02  0.51100000000E-03 0. -1.
        -11    1    3    3    0    0  0.12325659194E+02  0.12501167222E+01 -0.41144623603E+01  0.13054250923E+02  0.51100000000E-03 0.  1.
         12    1    3    3    0    0 -0.32341663022E+01  0.17212928584E+02  0.22005022013E+01  0.17651825742E+02  0.00000000000E+00 0. -1.
</event>
<event>
 7    1  0.5761011E-013  0.5930193E+02  0.7816164E-02  0.1266605E+00
        -11   -1    0    0    0    0  0.00000000000E+00  0.00000000000E+00  0.45593999997E+02  0.45594000000E+02  0.51100000000E-03 0.  1.
         11   -1    0    0    0    0 -0.00000000000E+00 -0.00000000000E+00 -0.45593999997E+02  0.45594000000E+02  0.51100000000E-03 0. -1.
    9900012    2    1    2    0    0  0.23067756872E+02 -0.11224526641E+02 -0.18937007434E+02  0.59301926928E+02  0.49999968813E+02 0.  0.
        -12    1    1    2    0    0 -0.23067756872E+02  0.11224526641E+02  0.18937007434E+02  0.31886073072E+02  0.00000000000E+00 0.  1.
         11    1    3    3    0    0  0.27782147302E+02 -0.23167729789E+02 -0.25346170413E+02  0.44170349412E+02  0.51100000000E-03 0. -1.
        -11    1    3    3    0    0 -0.21662195162E+01  0.10018498523E+01  0.50151471063E+00  0.24387962984E+01  0.51100000000E-03 0.  1.
         12    1    3    3    0    0 -0.25481709140E+01  0.10941353296E+02  0.59076482684E+01  0.12692781217E+02  0.00000000000E+00 0. -1.
</event>
<event>
 7    1  0.5761011E-013  0.5930195E+02  0.7816164E-02  0.1266605E+00
        -11   -1    0    0    0    0  0.00000000000E+00  0.00000000000E+00  0.45593999997E+02  0.45594000000E+02  0.51100000000E-03 0.  1.
         11   -1    0    0    0    0 -0.00000000000E+00 -0.00000000000E+00 -0.45593999997E+02  0.45594000000E+02  0.51100000000E-03 0. -1.
    9900012    2    1    2    0    0 -0.15317061545E+02  0.15524775860E+02 -0.23261321928E+02  0.59301950735E+02  0.50000012233E+02 0.  0.
        -12    1    1    2    0    0  0.15317061545E+02 -0.15524775860E+02  0.23261321928E+02  0.31886049265E+02  0.00000000000E+00 0.  1.
         11    1    3    3    0    0 -0.23074400043E+02  0.15248711837E+02 -0.22096921481E+02  0.35400919328E+02  0.51100000000E-03 0. -1.
        -11    1    3    3    0    0  0.41032339758E-01  0.29934255105E+01  0.97851666077E+01  0.10232876709E+02  0.51100000000E-03 0.  1.
        -12    1    3    3    0    0  0.77163061583E+01 -0.27173614882E+01 -0.10949567054E+02  0.13668154699E+02  0.00000000000E+00 0.  1.
</event>
<event>
 7    1  0.5761011E-013  0.5930194E+02  0.7816164E-02  0.1266605E+00
        -11   -1    0    0    0    0  0.00000000000E+00  0.00000000000E+00  0.45593999997E+02  0.45594000000E+02  0.51100000000E-03 0.  1.
         11   -1    0    0    0    0 -0.00000000000E+00 -0.00000000000E+00 -0.45593999997E+02  0.45594000000E+02  0.51100000000E-03 0. -1.
    9900012    2    1    2    0    0 -0.56404006258E+01  0.16214313153E+02 -0.26870108330E+02  0.59301940477E+02  0.49999993525E+02 0.  0.
        -12    1    1    2    0    0  0.56404006258E+01 -0.16214313153E+02  0.26870108330E+02  0.31886059523E+02  0.00000000000E+00 0.  1.
         11    1    3    3    0    0  0.13797798846E+02 -0.22558913681E+00 -0.20576272616E+02  0.24775252541E+02  0.51100000000E-03 0. -1.
        -11    1    3    3    0    0 -0.14361998049E+02  0.14661164752E+02 -0.14205163081E+02  0.24960036023E+02  0.51100000000E-03 0.  1.
        -12    1    3    3    0    0 -0.50762014230E+01  0.17787375374E+01  0.79113273670E+01  0.95666519129E+01  0.00000000000E+00 0.  1.
</event>
<event>
 7    1  0.5761011E-013  0.5930191E+02  0.7816164E-02  0.1266605E+00
        -11   -1    0    0    0    0  0.00000000000E+00  0.00000000000E+00  0.45593999997E+02  0.45594000000E+02  0.51100000000E-03 0.  1.
         11   -1    0    0    0    0 -0.00000000000E+00 -0.00000000000E+00 -0.45593999997E+02  0.45594000000E+02  0.51100000000E-03 0. -1.
    9900012    2    1    2    0    0 -0.20214538855E+02 -0.13448606060E+02 -0.20669541322E+02  0.59301913308E+02  0.49999943975E+02 0.  0.
        -12    1    1    2    0    0  0.20214538855E+02  0.13448606060E+02  0.20669541322E+02  0.31886086692E+02  0.00000000000E+00 0.  1.
         11    1    3    3    0    0  0.12527458295E+02 -0.46025554818E+01 -0.96587919952E+01  0.16474616577E+02  0.51100000000E-03 0. -1.
        -11    1    3    3    0    0 -0.25444677564E+02 -0.76237335365E+00  0.23801696796E+01  0.25567128063E+02  0.51100000000E-03 0.  1.
         12    1    3    3    0    0 -0.72973195859E+01 -0.80836772244E+01 -0.13390919006E+02  0.17260168668E+02  0.00000000000E+00 0. -1.
</event>
<event>
 7    1  0.5761011E-013  0.5930192E+02  0.7816164E-02  0.1266605E+00
        -11   -1    0    0    0    0  0.00000000000E+00  0.00000000000E+00  0.45593999997E+02  0.45594000000E+02  0.51100000000E-03 0. -1.
         11   -1    0    0    0    0 -0.00000000000E+00 -0.00000000000E+00 -0.45593999997E+02  0.45594000000E+02  0.51100000000E-03 0.  1.
    9900012    2    1    2    0    0  0.19995586760E+02 -0.24427931737E+02  0.44916027158E+01  0.59301924140E+02  0.49999963729E+02 0.  0.
        -12    1    1    2    0    0 -0.19995586760E+02  0.24427931737E+02 -0.44916027158E+01  0.31886075860E+02  0.00000000000E+00 0.  1.
         11    1    3    3    0    0  0.11988847765E+02  0.65106191316E+01  0.96003823869E+01  0.16681965545E+02  0.51100000000E-03 0. -1.
        -11    1    3    3    0    0 -0.86808642357E+01 -0.96090077527E+01 -0.82535457842E+01  0.15356153560E+02  0.51100000000E-03 0.  1.
         12    1    3    3    0    0  0.16687603230E+02 -0.21329543116E+02  0.31447661130E+01  0.27263805035E+02  0.00000000000E+00 0. -1.
</event>
<event>
 7    1  0.5761011E-013  0.5930199E+02  0.7816164E-02  0.1266605E+00
        -11   -1    0    0    0    0  0.00000000000E+00  0.00000000000E+00  0.45593999997E+02  0.45594000000E+02  0.51100000000E-03 0.  1.
         11   -1    0    0    0    0 -0.00000000000E+00 -0.00000000000E+00 -0.45593999997E+02  0.45594000000E+02  0.51100000000E-03 0. -1.
    9900012    2    1    2    0    0 -0.37566938014E+01 -0.25155958221E+02 -0.19229726261E+02  0.59301994380E+02  0.50000091830E+02 0.  0.
        -12    1    1    2    0    0  0.37566938014E+01  0.25155958221E+02  0.19229726261E+02  0.31886005620E+02  0.00000000000E+00 0.  1.
         11    1    3    3    0    0 -0.16104319542E+02 -0.90181205797E+00  0.44901544371E+01  0.16742874904E+02  0.51100000000E-03 0. -1.
        -11    1    3    3    0    0  0.55902372254E+01  0.12309236096E+01 -0.12799795178E+02  0.14021436518E+02  0.51100000000E-03 0.  1.
        -12    1    3    3    0    0  0.67573885156E+01 -0.25485069773E+02 -0.10920085520E+02  0.28537682958E+02  0.00000000000E+00 0.  1.
</event>
<event>
 7    1  0.5761011E-013  0.5930194E+02  0.7816164E-02  0.1266605E+00
        -11   -1    0    0    0    0  0.00000000000E+00  0.00000000000E+00  0.45593999997E+02  0.45594000000E+02  0.51100000000E-03 0. -1.
         11   -1    0    0    0    0 -0.00000000000E+00 -0.00000000000E+00 -0.45593999997E+02  0.45594000000E+02  0.51100000000E-03 0.  1.
    9900012    2    1    2    0    0 -0.24994875058E+02 -0.91082558111E+01  0.17578864618E+02  0.59301943732E+02  0.49999999461E+02 0.  0.
        -12    1    1    2    0    0  0.24994875058E+02  0.91082558111E+01 -0.17578864618E+02  0.31886056268E+02  0.00000000000E+00 0.  1.
         11    1    3    3    0    0 -0.82301123728E+01 -0.10890841056E+02  0.25000626178E+02  0.28484670932E+02  0.51100000000E-03 0. -1.
        -11    1    3    3    0    0 -0.98467805348E+00  0.82452881030E+01 -0.10606296694E+02  0.13470259708E+02  0.51100000000E-03 0.  1.
        -12    1    3    3    0    0 -0.15780084631E+02 -0.64627028579E+01  0.31845351338E+01  0.17347013092E+02  0.00000000000E+00 0.  1.
</event>
<event>
 7    1  0.5761011E-013  0.5930192E+02  0.7816164E-02  0.1266605E+00
        -11   -1    0    0    0    0  0.00000000000E+00  0.00000000000E+00  0.45593999997E+02  0.45594000000E+02  0.51100000000E-03 0.  1.
         11   -1    0    0    0    0 -0.00000000000E+00 -0.00000000000E+00 -0.45593999997E+02  0.45594000000E+02  0.51100000000E-03 0. -1.
    9900012    2    1    2    0    0  0.55217804418E+01 -0.28882939390E+01 -0.31271224667E+02  0.59301924774E+02  0.49999964886E+02 0.  0.
        -12    1    1    2    0    0 -0.55217804418E+01  0.28882939390E+01  0.31271224667E+02  0.31886075226E+02  0.00000000000E+00 0.  1.
         11    1    3    3    0    0 -0.13725756265E+02  0.97775303959E+01 -0.15978347040E+02  0.23222921007E+02  0.51100000000E-03 0. -1.
        -11    1    3    3    0    0  0.75670798677E+01 -0.18212790717E+02 -0.85490207639E+01  0.21495399501E+02  0.51100000000E-03 0.  1.
         12    1    3    3    0    0  0.11680456840E+02  0.55469663817E+01 -0.67438568636E+01  0.14583604267E+02  0.00000000000E+00 0. -1.
</event>
<event>
 7    1  0.5761011E-013  0.5930197E+02  0.7816164E-02  0.1266605E+00
        -11   -1    0    0    0    0  0.00000000000E+00  0.00000000000E+00  0.45593999997E+02  0.45594000000E+02  0.51100000000E-03 0. -1.
         11   -1    0    0    0    0 -0.00000000000E+00 -0.00000000000E+00 -0.45593999997E+02  0.45594000000E+02  0.51100000000E-03 0.  1.
    9900012    2    1    2    0    0 -0.14348642350E+01  0.22338479226E+02  0.22707982151E+02  0.59301969472E+02  0.50000046403E+02 0.  0.
        -12    1    1    2    0    0  0.14348642350E+01 -0.22338479226E+02 -0.22707982151E+02  0.31886030528E+02  0.00000000000E+00 0.  1.
         11    1    3    3    0    0 -0.13086499505E+02  0.20775389942E+02  0.77569110994E+01  0.25749620708E+02  0.51100000000E-03 0. -1.
        -11    1    3    3    0    0  0.14143432247E+02  0.86308759599E+01  0.18856407856E+02  0.25101649608E+02  0.51100000000E-03 0.  1.
         12    1    3    3    0    0 -0.24917969774E+01 -0.70677866757E+01 -0.39053368041E+01  0.84506991559E+01  0.00000000000E+00 0. -1.
</event>
<event>
 7    1  0.5761011E-013  0.5930194E+02  0.7816164E-02  0.1266605E+00
        -11   -1    0    0    0    0  0.00000000000E+00  0.00000000000E+00  0.45593999997E+02  0.45594000000E+02  0.51100000000E-03 0. -1.
         11   -1    0    0    0    0 -0.00000000000E+00 -0.00000000000E+00 -0.45593999997E+02  0.45594000000E+02  0.51100000000E-03 0.  1.
    9900012    2    1    2    0    0 -0.19342145865E+02 -0.19638941791E+02 -0.16028546480E+02  0.59301938098E+02  0.49999989185E+02 0.  0.
        -12    1    1    2    0    0  0.19342145865E+02  0.19638941791E+02  0.16028546480E+02  0.31886061902E+02  0.00000000000E+00 0.  1.
         11    1    3    3    0    0 -0.21859034963E+02 -0.11862628394E+02  0.76025798335E-01  0.24870567788E+02  0.51100000000E-03 0. -1.
        -11    1    3    3    0    0 -0.58659674045E+00  0.20552664414E+01 -0.22300721377E+02  0.22402910303E+02  0.51100000000E-03 0.  1.
        -12    1    3    3    0    0  0.31034858378E+01 -0.98315798390E+01  0.61961490982E+01  0.12028460006E+02  0.00000000000E+00 0.  1.
</event>
<event>
 7    1  0.5761011E-013  0.5930195E+02  0.7816164E-02  0.1266605E+00
        -11   -1    0    0    0    0  0.00000000000E+00  0.00000000000E+00  0.45593999997E+02  0.45594000000E+02  0.51100000000E-03 0. -1.
         11   -1    0    0    0    0 -0.00000000000E+00 -0.00000000000E+00 -0.45593999997E+02  0.45594000000E+02  0.51100000000E-03 0.  1.
    9900012    2    1    2    0    0  0.30847472638E+02 -0.59963067537E+01 -0.54035332330E+01  0.59301946086E+02  0.50000003753E+02 0.  0.
        -12    1    1    2    0    0 -0.30847472638E+02  0.59963067537E+01  0.54035332330E+01  0.31886053914E+02  0.00000000000E+00 0.  1.
         11    1    3    3    0    0  0.22348481828E+02 -0.19357950996E+02 -0.78356671494E+00  0.29576999237E+02  0.51100000000E-03 0. -1.
        -11    1    3    3    0    0  0.33445156024E+01  0.13304123657E+02  0.81481768995E+01  0.15955509329E+02  0.51100000000E-03 0.  1.
         12    1    3    3    0    0  0.51544752077E+01  0.57520585243E-01 -0.12768143418E+02  0.13769437520E+02  0.00000000000E+00 0. -1.
</event>
<event>
 7    1  0.5761011E-013  0.5930193E+02  0.7816164E-02  0.1266605E+00
        -11   -1    0    0    0    0  0.00000000000E+00  0.00000000000E+00  0.45593999997E+02  0.45594000000E+02  0.51100000000E-03 0.  1.
         11   -1    0    0    0    0 -0.00000000000E+00 -0.00000000000E+00 -0.45593999997E+02  0.45594000000E+02  0.51100000000E-03 0. -1.
    9900012    2    1    2    0    0  0.29856972310E+02  0.76216632301E+01 -0.81971212637E+01  0.59301931837E+02  0.49999977767E+02 0.  0.
        -12    1    1    2    0    0 -0.29856972310E+02 -0.76216632301E+01  0.81971212637E+01  0.31886068163E+02  0.00000000000E+00 0.  1.
         11    1    3    3    0    0  0.41565092557E+02  0.11673464623E+02 -0.13800947997E+02  0.45325410770E+02  0.51100000000E-03 0. -1.
        -11    1    3    3    0    0 -0.90839873710E+01 -0.16419251806E+01  0.42880913400E+01  0.10178529975E+02  0.51100000000E-03 0.  1.
         12    1    3    3    0    0 -0.26241328760E+01 -0.24098762122E+01  0.13157353937E+01  0.37979910921E+01  0.00000000000E+00 0. -1.
</event>
<event>
 7    1  0.5761011E-013  0.5930188E+02  0.7816164E-02  0.1266605E+00
        -11   -1    0    0    0    0  0.00000000000E+00  0.00000000000E+00  0.45593999997E+02  0.45594000000E+02  0.51100000000E-03 0.  1.
         11   -1    0    0    0    0 -0.00000000000E+00 -0.00000000000E+00 -0.45593999997E+02  0.45594000000E+02  0.51100000000E-03 0. -1.
    9900012    2    1    2    0    0  0.22881040820E+02 -0.49325951316E+01 -0.21652995917E+02  0.59301878317E+02  0.49999880160E+02 0.  0.
        -12    1    1    2    0    0 -0.22881040820E+02  0.49325951316E+01  0.21652995917E+02  0.31886121683E+02  0.00000000000E+00 0.  1.
         11    1    3    3    0    0 -0.27294635933E+01 -0.72083259642E+01 -0.21931053120E+02  0.23246097004E+02  0.51100000000E-03 0. -1.
        -11    1    3    3    0    0  0.87263152584E+01  0.13077248072E+02  0.23865048788E+01  0.15901521969E+02  0.51100000000E-03 0.  1.
        -12    1    3    3    0    0  0.16884189155E+02 -0.10801517240E+02 -0.21084476763E+01  0.20154259344E+02  0.00000000000E+00 0.  1.
</event>
<event>
 7    1  0.5761011E-013  0.5930193E+02  0.7816164E-02  0.1266605E+00
        -11   -1    0    0    0    0  0.00000000000E+00  0.00000000000E+00  0.45593999997E+02  0.45594000000E+02  0.51100000000E-03 0. -1.
         11   -1    0    0    0    0 -0.00000000000E+00 -0.00000000000E+00 -0.45593999997E+02  0.45594000000E+02  0.51100000000E-03 0.  1.
    9900012    2    1    2    0    0 -0.27632623971E+02  0.14697631958E+02 -0.60941904329E+01  0.59301930162E+02  0.49999974712E+02 0.  0.
        -12    1    1    2    0    0  0.27632623971E+02 -0.14697631958E+02  0.60941904329E+01  0.31886069838E+02  0.00000000000E+00 0.  1.
         11    1    3    3    0    0  0.35676058233E+00  0.21108734663E+01  0.10660276410E+02  0.10873111712E+02  0.51100000000E-03 0. -1.
        -11    1    3    3    0    0 -0.10850353553E+02  0.20695374668E+02 -0.17897805489E+02  0.29433996440E+02  0.51100000000E-03 0.  1.
        -12    1    3    3    0    0 -0.17139031000E+02 -0.81086161765E+01  0.11433386462E+01  0.18994822010E+02  0.00000000000E+00 0.  1.
</event>
<event>
 7    1  0.5761011E-013  0.5930180E+02  0.7816164E-02  0.1266605E+00
        -11   -1    0    0    0    0  0.00000000000E+00  0.00000000000E+00  0.45593999997E+02  0.45594000000E+02  0.51100000000E-03 0.  1.
         11   -1    0    0    0    0 -0.00000000000E+00 -0.00000000000E+00 -0.45593999997E+02  0.45594000000E+02  0.51100000000E-03 0. -1.
    9900012    2    1    2    0    0  0.49972824837E+01  0.31425224882E+02  0.20523412852E+01  0.59301800856E+02  0.49999738889E+02 0.  0.
        -12    1    1    2    0    0 -0.49972824837E+01 -0.31425224882E+02 -0.20523412852E+01  0.31886199144E+02  0.00000000000E+00 0.  1.
         11    1    3    3    0    0 -0.18655956277E+01 -0.29101167548E+01 -0.13072683764E+02  0.13521992739E+02  0.51100000000E-03 0.  1.
        -11    1    3    3    0    0  0.45156612411E+01  0.35992718866E+02  0.19004860488E+02  0.40951822062E+02  0.51100000000E-03 0. -1.
         12    1    3    3    0    0  0.23472168703E+01 -0.16573772290E+01 -0.38798354387E+01  0.48279860550E+01  0.00000000000E+00 0. -1.
</event>
<event>
 7    1  0.5761011E-013  0.5930186E+02  0.7816164E-02  0.1266605E+00
        -11   -1    0    0    0    0  0.00000000000E+00  0.00000000000E+00  0.45593999997E+02  0.45594000000E+02  0.51100000000E-03 0. -1.
         11   -1    0    0    0    0 -0.00000000000E+00 -0.00000000000E+00 -0.45593999997E+02  0.45594000000E+02  0.51100000000E-03 0.  1.
    9900012    2    1    2    0    0  0.23927740540E+02 -0.73025654722E+01  0.19770226931E+02  0.59301857199E+02  0.49999841644E+02 0.  0.
        -12    1    1    2    0    0 -0.23927740540E+02  0.73025654722E+01 -0.19770226931E+02  0.31886142801E+02  0.00000000000E+00 0.  1.
         11    1    3    3    0    0  0.16402151712E+02 -0.10699737977E+02  0.24329933671E+02  0.31232365364E+02  0.51100000000E-03 0. -1.
        -11    1    3    3    0    0 -0.49864472645E+01  0.11182565283E+02 -0.52382347935E+01  0.13317414413E+02  0.51100000000E-03 0.  1.
         12    1    3    3    0    0  0.12512036093E+02 -0.77853927790E+01  0.67852805361E+00  0.14752077421E+02  0.00000000000E+00 0. -1.
</event>
<event>
 7    1  0.5761011E-013  0.5930197E+02  0.7816164E-02  0.1266605E+00
        -11   -1    0    0    0    0  0.00000000000E+00  0.00000000000E+00  0.45593999997E+02  0.45594000000E+02  0.51100000000E-03 0. -1.
         11   -1    0    0    0    0 -0.00000000000E+00 -0.00000000000E+00 -0.45593999997E+02  0.45594000000E+02  0.51100000000E-03 0.  1.
    9900012    2    1    2    0    0 -0.56804081281E+01 -0.19015618326E+02  0.24957131250E+02  0.59301965800E+02  0.50000039707E+02 0.  0.
        -12    1    1    2    0    0  0.56804081281E+01  0.19015618326E+02 -0.24957131250E+02  0.31886034200E+02  0.00000000000E+00 0.  1.
         11    1    3    3    0    0  0.10786296364E+02 -0.31579809315E+01  0.32016073380E+02  0.33931489619E+02  0.51100000000E-03 0. -1.
        -11    1    3    3    0    0 -0.75607436933E+01 -0.48406212017E+01  0.10639460506E+01  0.90403783258E+01  0.51100000000E-03 0.  1.
         12    1    3    3    0    0 -0.89059607986E+01 -0.11017016193E+02 -0.81228881815E+01  0.16330097855E+02  0.00000000000E+00 0. -1.
</event>
<event>
 7    1  0.5761011E-013  0.5930193E+02  0.7816164E-02  0.1266605E+00
        -11   -1    0    0    0    0  0.00000000000E+00  0.00000000000E+00  0.45593999997E+02  0.45594000000E+02  0.51100000000E-03 0. -1.
         11   -1    0    0    0    0 -0.00000000000E+00 -0.00000000000E+00 -0.45593999997E+02  0.45594000000E+02  0.51100000000E-03 0.  1.
    9900012    2    1    2    0    0  0.15799542784E+02 -0.19700875897E+02  0.19467187981E+02  0.59301929825E+02  0.49999974097E+02 0.  0.
        -12    1    1    2    0    0 -0.15799542784E+02  0.19700875897E+02 -0.19467187981E+02  0.31886070175E+02  0.00000000000E+00 0.  1.
         11    1    3    3    0    0  0.17050447943E+02 -0.25543047822E+02  0.93966693160E+01  0.32116389299E+02  0.51100000000E-03 0. -1.
        -11    1    3    3    0    0 -0.11147263200E+02  0.86260422455E+01  0.92780037090E+01  0.16874579543E+02  0.51100000000E-03 0.  1.
        -12    1    3    3    0    0  0.98963580410E+01 -0.27838703211E+01  0.79251495651E+00  0.10310960983E+02  0.00000000000E+00 0.  1.
</event>
<event>
 7    1  0.5761011E-013  0.5930194E+02  0.7816164E-02  0.1266605E+00
        -11   -1    0    0    0    0  0.00000000000E+00  0.00000000000E+00  0.45593999997E+02  0.45594000000E+02  0.51100000000E-03 0.  1.
         11   -1    0    0    0    0 -0.00000000000E+00 -0.00000000000E+00 -0.45593999997E+02  0.45594000000E+02  0.51100000000E-03 0. -1.
    9900012    2    1    2    0    0 -0.19876565734E+02  0.73068083120E+01 -0.23838070844E+02  0.59301938238E+02  0.49999989441E+02 0.  0.
        -12    1    1    2    0    0  0.19876565734E+02 -0.73068083120E+01  0.23838070844E+02  0.31886061762E+02  0.00000000000E+00 0.  1.
         11    1    3    3    0    0 -0.43661500413E-01 -0.48497627698E+01 -0.32340960185E+02  0.32702596398E+02  0.51100000000E-03 0. -1.
        -11    1    3    3    0    0 -0.87271765519E+01  0.53983914890E+01  0.89134170044E+01  0.13592470128E+02  0.51100000000E-03 0.  1.
         12    1    3    3    0    0 -0.11105727682E+02  0.67581795928E+01 -0.41052766409E+00  0.13006871712E+02  0.00000000000E+00 0. -1.
</event>
<event>
 7    1  0.5761011E-013  0.5930195E+02  0.7816164E-02  0.1266605E+00
        -11   -1    0    0    0    0  0.00000000000E+00  0.00000000000E+00  0.45593999997E+02  0.45594000000E+02  0.51100000000E-03 0.  1.
         11   -1    0    0    0    0 -0.00000000000E+00 -0.00000000000E+00 -0.45593999997E+02  0.45594000000E+02  0.51100000000E-03 0. -1.
    9900012    2    1    2    0    0  0.14118113780E+02  0.18504618449E+02 -0.21793990397E+02  0.59301951984E+02  0.50000014511E+02 0.  0.
        -12    1    1    2    0    0 -0.14118113780E+02 -0.18504618449E+02  0.21793990397E+02  0.31886048016E+02  0.00000000000E+00 0.  1.
         11    1    3    3    0    0 -0.57184207233E+01 -0.19904337923E+01 -0.16685927886E+02  0.17750559200E+02  0.51100000000E-03 0. -1.
        -11    1    3    3    0    0  0.20553365311E+02  0.12416604827E+01  0.26911414066E+01  0.20765952631E+02  0.51100000000E-03 0.  1.
         12    1    3    3    0    0 -0.71683080763E+00  0.19253391758E+02 -0.77992039178E+01  0.20785440153E+02  0.00000000000E+00 0. -1.
</event>
<event>
 7    1  0.5761011E-013  0.5930183E+02  0.7816164E-02  0.1266605E+00
        -11   -1    0    0    0    0  0.00000000000E+00  0.00000000000E+00  0.45593999997E+02  0.45594000000E+02  0.51100000000E-03 0. -1.
         11   -1    0    0    0    0 -0.00000000000E+00 -0.00000000000E+00 -0.45593999997E+02  0.45594000000E+02  0.51100000000E-03 0.  1.
    9900012    2    1    2    0    0 -0.34391044613E+01  0.26601061411E+02 -0.17241915362E+02  0.59301834457E+02  0.49999800168E+02 0.  0.
        -12    1    1    2    0    0  0.34391044613E+01 -0.26601061411E+02  0.17241915362E+02  0.31886165543E+02  0.00000000000E+00 0.  1.
         11    1    3    3    0    0 -0.17971718789E+01  0.25511931058E+02  0.14049423332E+01  0.25613713442E+02  0.51100000000E-03 0. -1.
        -11    1    3    3    0    0  0.47207318369E+01 -0.87011468416E+01  0.18767551551E+01  0.10075588102E+02  0.51100000000E-03 0.  1.
         12    1    3    3    0    0 -0.63626644194E+01  0.97902771945E+01 -0.20523612851E+02  0.23612532912E+02  0.00000000000E+00 0. -1.
</event>
<event>
 7    1  0.5761011E-013  0.5930185E+02  0.7816164E-02  0.1266605E+00
        -11   -1    0    0    0    0  0.00000000000E+00  0.00000000000E+00  0.45593999997E+02  0.45594000000E+02  0.51100000000E-03 0. -1.
         11   -1    0    0    0    0 -0.00000000000E+00 -0.00000000000E+00 -0.45593999997E+02  0.45594000000E+02  0.51100000000E-03 0.  1.
    9900012    2    1    2    0    0 -0.24068120744E+01 -0.91551762200E+01  0.30448587969E+02  0.59301850887E+02  0.49999830133E+02 0.  0.
        -12    1    1    2    0    0  0.24068120744E+01  0.91551762200E+01 -0.30448587969E+02  0.31886149113E+02  0.00000000000E+00 0.  1.
         11    1    3    3    0    0 -0.10093276162E+02  0.11326135371E+02  0.32567760995E+02  0.35927908687E+02  0.51100000000E-03 0. -1.
        -11    1    3    3    0    0 -0.57912046959E+00 -0.95236024844E+01 -0.12212064496E+01  0.96190295900E+01  0.51100000000E-03 0.  1.
         12    1    3    3    0    0  0.82655845570E+01 -0.10957709107E+02 -0.89796657637E+00  0.13754912610E+02  0.00000000000E+00 0. -1.
</event>
<event>
 7    1  0.5919214E-013  0.5930197E+02  0.7816164E-02  0.1266605E+00
        -11   -1    0    0    0    0  0.00000000000E+00  0.00000000000E+00  0.45593999997E+02  0.45594000000E+02  0.51100000000E-03 0. -1.
         11   -1    0    0    0    0 -0.00000000000E+00 -0.00000000000E+00 -0.45593999997E+02  0.45594000000E+02  0.51100000000E-03 0.  1.
    9900012    2    1    2    0    0  0.26546032827E+02  0.49996671085E+01  0.16941977252E+02  0.59301966643E+02  0.50000041245E+02 0.  0.
        -12    1    1    2    0    0 -0.26546032827E+02 -0.49996671085E+01 -0.16941977252E+02  0.31886033357E+02  0.00000000000E+00 0.  1.
         11    1    3    3    0    0  0.28778554422E+02 -0.87254498062E+01  0.17950820781E+02  0.35022430468E+02  0.51100000000E-03 0. -1.
        -11    1    3    3    0    0 -0.23085931991E+01 -0.40933867906E+01 -0.40492069182E+01  0.62033454606E+01  0.51100000000E-03 0.  1.
         12    1    3    3    0    0  0.76071604465E-01  0.17818503705E+02  0.30403633887E+01  0.18076190714E+02  0.00000000000E+00 0. -1.
</event>
<event>
 7    1  0.5761011E-013  0.5930194E+02  0.7816164E-02  0.1266605E+00
        -11   -1    0    0    0    0  0.00000000000E+00  0.00000000000E+00  0.45593999997E+02  0.45594000000E+02  0.51100000000E-03 0.  1.
         11   -1    0    0    0    0 -0.00000000000E+00 -0.00000000000E+00 -0.45593999997E+02  0.45594000000E+02  0.51100000000E-03 0. -1.
    9900012    2    1    2    0    0 -0.21930684644E+01  0.18869981614E+02 -0.25609280528E+02  0.59301937142E+02  0.49999987442E+02 0.  0.
        -12    1    1    2    0    0  0.21930684644E+01 -0.18869981614E+02  0.25609280528E+02  0.31886062858E+02  0.00000000000E+00 0.  1.
         11    1    3    3    0    0 -0.29099754617E+01  0.10095091774E+02 -0.85330146036E+01  0.13534813394E+02  0.51100000000E-03 0. -1.
        -11    1    3    3    0    0  0.78039083608E-01  0.50528036589E+01  0.13781676218E+02  0.14678948006E+02  0.51100000000E-03 0.  1.
        -12    1    3    3    0    0  0.63886791376E+00  0.37220861813E+01 -0.30857942142E+02  0.31088175743E+02  0.00000000000E+00 0.  1.
</event>
<event>
 7    1  0.5761011E-013  0.5930186E+02  0.7816164E-02  0.1266605E+00
        -11   -1    0    0    0    0  0.00000000000E+00  0.00000000000E+00  0.45593999997E+02  0.45594000000E+02  0.51100000000E-03 0. -1.
         11   -1    0    0    0    0 -0.00000000000E+00 -0.00000000000E+00 -0.45593999997E+02  0.45594000000E+02  0.51100000000E-03 0.  1.
    9900012    2    1    2    0    0 -0.51600877629E+01 -0.31215187822E+02  0.39637396835E+01  0.59301863690E+02  0.49999853484E+02 0.  0.
        -12    1    1    2    0    0  0.51600877629E+01  0.31215187822E+02 -0.39637396835E+01  0.31886136310E+02  0.00000000000E+00 0.  1.
         11    1    3    3    0    0  0.12873200470E+00  0.77418519701E+01 -0.56733355705E+01  0.95989364314E+01  0.51100000000E-03 0. -1.
        -11    1    3    3    0    0 -0.13676121650E+02 -0.16265942280E+02  0.13540485771E+02  0.25198451079E+02  0.51100000000E-03 0.  1.
         12    1    3    3    0    0  0.83873018823E+01 -0.22691097512E+02 -0.39034105165E+01  0.24504476180E+02  0.00000000000E+00 0. -1.
</event>
<event>
 7    1  0.5761011E-013  0.5930199E+02  0.7816164E-02  0.1266605E+00
        -11   -1    0    0    0    0  0.00000000000E+00  0.00000000000E+00  0.45593999997E+02  0.45594000000E+02  0.51100000000E-03 0. -1.
         11   -1    0    0    0    0 -0.00000000000E+00 -0.00000000000E+00 -0.45593999997E+02  0.45594000000E+02  0.51100000000E-03 0.  1.
    9900012    2    1    2    0    0 -0.17160781175E+02 -0.12134191951E+02  0.23978883913E+02  0.59301985847E+02  0.50000076268E+02 0.  0.
        -12    1    1    2    0    0  0.17160781175E+02  0.12134191951E+02 -0.23978883913E+02  0.31886014153E+02  0.00000000000E+00 0.  1.
         11    1    3    3    0    0 -0.69803554105E+00 -0.21232456162E+02  0.57758703974E+01  0.22015111342E+02  0.51100000000E-03 0. -1.
        -11    1    3    3    0    0 -0.93791218325E+00  0.77500098948E+01 -0.50481823287E+01  0.92965841962E+01  0.51100000000E-03 0.  1.
         12    1    3    3    0    0 -0.15524833451E+02  0.13482543167E+01  0.23251195844E+02  0.27990290309E+02  0.00000000000E+00 0. -1.
</event>
<event>
 7    1  0.5761011E-013  0.5930193E+02  0.7816164E-02  0.1266605E+00
        -11   -1    0    0    0    0  0.00000000000E+00  0.00000000000E+00  0.45593999997E+02  0.45594000000E+02  0.51100000000E-03 0. -1.
         11   -1    0    0    0    0 -0.00000000000E+00 -0.00000000000E+00 -0.45593999997E+02  0.45594000000E+02  0.51100000000E-03 0.  1.
    9900012    2    1    2    0    0 -0.83744062100E+01 -0.52418974045E+01  0.30316880970E+02  0.59301930322E+02  0.49999975003E+02 0.  0.
        -12    1    1    2    0    0  0.83744062100E+01  0.52418974045E+01 -0.30316880970E+02  0.31886069678E+02  0.00000000000E+00 0.  1.
         11    1    3    3    0    0 -0.18345256469E+02 -0.95259661572E+01  0.24371123554E+02  0.31956910515E+02  0.51100000000E-03 0. -1.
        -11    1    3    3    0    0  0.16678157315E+02  0.94247257243E+00  0.93177132692E+01  0.19127701555E+02  0.51100000000E-03 0.  1.
        -12    1    3    3    0    0 -0.67073070555E+01  0.33415961803E+01 -0.33719558526E+01  0.82173182511E+01  0.00000000000E+00 0.  1.
</event>
<event>
 7    1  0.5761011E-013  0.5930200E+02  0.7816164E-02  0.1266605E+00
        -11   -1    0    0    0    0  0.00000000000E+00  0.00000000000E+00  0.45593999997E+02  0.45594000000E+02  0.51100000000E-03 0.  1.
         11   -1    0    0    0    0 -0.00000000000E+00 -0.00000000000E+00 -0.45593999997E+02  0.45594000000E+02  0.51100000000E-03 0. -1.
    9900012    2    1    2    0    0 -0.16496389432E+02 -0.65325999383E+01 -0.26493604681E+02  0.59302002835E+02  0.50000107249E+02 0.  0.
        -12    1    1    2    0    0  0.16496389432E+02  0.65325999383E+01  0.26493604681E+02  0.31885997165E+02  0.00000000000E+00 0.  1.
         11    1    3    3    0    0  0.13985010244E+02 -0.61065266610E+01  0.30348467068E+00  0.15263101998E+02  0.51100000000E-03 0. -1.
        -11    1    3    3    0    0 -0.95795275597E+01  0.41680833169E+01 -0.96198966979E+00  0.10491219719E+02  0.51100000000E-03 0.  1.
         12    1    3    3    0    0 -0.20901872117E+02 -0.45941565942E+01 -0.25835099682E+02  0.33547681118E+02  0.00000000000E+00 0. -1.
</event>
<event>
 7    1  0.5761011E-013  0.5930196E+02  0.7816164E-02  0.1266605E+00
        -11   -1    0    0    0    0  0.00000000000E+00  0.00000000000E+00  0.45593999997E+02  0.45594000000E+02  0.51100000000E-03 0. -1.
         11   -1    0    0    0    0 -0.00000000000E+00 -0.00000000000E+00 -0.45593999997E+02  0.45594000000E+02  0.51100000000E-03 0.  1.
    9900012    2    1    2    0    0  0.92190130798E+01 -0.17429801795E+02  0.25058552258E+02  0.59301964905E+02  0.50000038076E+02 0.  0.
        -12    1    1    2    0    0 -0.92190130798E+01  0.17429801795E+02 -0.25058552258E+02  0.31886035095E+02  0.00000000000E+00 0.  1.
         11    1    3    3    0    0  0.11978819623E+02 -0.17998699241E+02  0.25009097983E+02  0.33059042275E+02  0.51100000000E-03 0. -1.
        -11    1    3    3    0    0 -0.13629656068E+01 -0.10374067913E+02 -0.75014835259E+01  0.12874440401E+02  0.51100000000E-03 0.  1.
         12    1    3    3    0    0 -0.13968409363E+01  0.10942965359E+02  0.75509378005E+01  0.13368482229E+02  0.00000000000E+00 0. -1.
</event>
<event>
 7    1  0.5761011E-013  0.5930194E+02  0.7816164E-02  0.1266605E+00
        -11   -1    0    0    0    0  0.00000000000E+00  0.00000000000E+00  0.45593999997E+02  0.45594000000E+02  0.51100000000E-03 0. -1.
         11   -1    0    0    0    0 -0.00000000000E+00 -0.00000000000E+00 -0.45593999997E+02  0.45594000000E+02  0.51100000000E-03 0.  1.
    9900012    2    1    2    0    0  0.19034406016E+02  0.12878929924E+02  0.22103058980E+02  0.59301942473E+02  0.49999997164E+02 0.  0.
        -12    1    1    2    0    0 -0.19034406016E+02 -0.12878929924E+02 -0.22103058980E+02  0.31886057527E+02  0.00000000000E+00 0.  1.
         11    1    3    3    0    0 -0.13427377034E+02  0.17350481605E+01  0.15502785602E+02  0.20582546194E+02  0.51100000000E-03 0. -1.
        -11    1    3    3    0    0  0.28037903948E+02  0.15396151879E+02  0.60949299024E+01  0.32562458772E+02  0.51100000000E-03 0.  1.
        -12    1    3    3    0    0  0.44238791013E+01 -0.42522701158E+01  0.50534347578E+00  0.61569375073E+01  0.00000000000E+00 0.  1.
</event>
<event>
 7    1  0.5761011E-013  0.5930195E+02  0.7816164E-02  0.1266605E+00
        -11   -1    0    0    0    0  0.00000000000E+00  0.00000000000E+00  0.45593999997E+02  0.45594000000E+02  0.51100000000E-03 0. -1.
         11   -1    0    0    0    0 -0.00000000000E+00 -0.00000000000E+00 -0.45593999997E+02  0.45594000000E+02  0.51100000000E-03 0.  1.
    9900012    2    1    2    0    0  0.16992950345E+02  0.15755065994E+02  0.21902915961E+02  0.59301949860E+02  0.50000010637E+02 0.  0.
        -12    1    1    2    0    0 -0.16992950345E+02 -0.15755065994E+02 -0.21902915961E+02  0.31886050140E+02  0.00000000000E+00 0.  1.
         11    1    3    3    0    0 -0.74000758765E+01 -0.51682454553E+01  0.72055441070E+01  0.11549534631E+02  0.51100000000E-03 0. -1.
        -11    1    3    3    0    0  0.31915677043E+02  0.16401695577E+02  0.15179800782E+02  0.38962192071E+02  0.51100000000E-03 0.  1.
        -12    1    3    3    0    0 -0.75226508220E+01  0.45216158727E+01 -0.48242892760E+00  0.87902231575E+01  0.00000000000E+00 0.  1.
</event>
<event>
 7    1  0.5761011E-013  0.5930195E+02  0.7816164E-02  0.1266605E+00
        -11   -1    0    0    0    0  0.00000000000E+00  0.00000000000E+00  0.45593999997E+02  0.45594000000E+02  0.51100000000E-03 0.  1.
         11   -1    0    0    0    0 -0.00000000000E+00 -0.00000000000E+00 -0.45593999997E+02  0.45594000000E+02  0.51100000000E-03 0. -1.
    9900012    2    1    2    0    0  0.31855756238E+02 -0.11249664015E+01  0.81584775076E+00  0.59301947212E+02  0.50000005807E+02 0.  0.
        -12    1    1    2    0    0 -0.31855756238E+02  0.11249664015E+01 -0.81584775076E+00  0.31886052788E+02  0.00000000000E+00 0.  1.
         11    1    3    3    0    0  0.14927188469E+02 -0.16205277168E+02 -0.18683466604E+02  0.28887780951E+02  0.51100000000E-03 0. -1.
        -11    1    3    3    0    0  0.94139317961E+01  0.73049168398E+01  0.13653591468E+02  0.18121933730E+02  0.51100000000E-03 0.  1.
         12    1    3    3    0    0  0.75146359723E+01  0.77753939268E+01  0.58457228867E+01  0.12292232530E+02  0.00000000000E+00 0. -1.
</event>
<event>
 7    1  0.5761011E-013  0.5930194E+02  0.7816164E-02  0.1266605E+00
        -11   -1    0    0    0    0  0.00000000000E+00  0.00000000000E+00  0.45593999997E+02  0.45594000000E+02  0.51100000000E-03 0. -1.
         11   -1    0    0    0    0 -0.00000000000E+00 -0.00000000000E+00 -0.45593999997E+02  0.45594000000E+02  0.51100000000E-03 0.  1.
    9900012    2    1    2    0    0  0.14526702164E+02 -0.12354729180E+02  0.25554966630E+02  0.59301941473E+02  0.49999995341E+02 0.  0.
        -12    1    1    2    0    0 -0.14526702164E+02  0.12354729180E+02 -0.25554966630E+02  0.31886058527E+02  0.00000000000E+00 0.  1.
         11    1    3    3    0    0 -0.17461469794E+02 -0.26330742163E+01  0.93018997706E+01  0.19958991628E+02  0.51100000000E-03 0. -1.
        -11    1    3    3    0    0  0.83475795469E+01 -0.67367115067E+01  0.42213518636E+00  0.10735155546E+02  0.51100000000E-03 0.  1.
         12    1    3    3    0    0  0.23640592412E+02 -0.29849434572E+01  0.15830931674E+02  0.28607794299E+02  0.00000000000E+00 0. -1.
</event>
<event>
 7    1  0.5761011E-013  0.5930193E+02  0.7816164E-02  0.1266605E+00
        -11   -1    0    0    0    0  0.00000000000E+00  0.00000000000E+00  0.45593999997E+02  0.45594000000E+02  0.51100000000E-03 0. -1.
         11   -1    0    0    0    0 -0.00000000000E+00 -0.00000000000E+00 -0.45593999997E+02  0.45594000000E+02  0.51100000000E-03 0.  1.
    9900012    2    1    2    0    0 -0.27059173856E+02  0.14827492544E+02 -0.80416313902E+01  0.59301933131E+02  0.49999980127E+02 0.  0.
        -12    1    1    2    0    0  0.27059173856E+02 -0.14827492544E+02  0.80416313902E+01  0.31886066869E+02  0.00000000000E+00 0.  1.
         11    1    3    3    0    0  0.11302611578E+02  0.11179173644E+02 -0.13213207939E+01  0.15952079512E+02  0.51100000000E-03 0. -1.
        -11    1    3    3    0    0 -0.10744894460E+02 -0.45246164465E+01 -0.86004773900E+01  0.14487688655E+02  0.51100000000E-03 0.  1.
         12    1    3    3    0    0 -0.27616890974E+02  0.81729353466E+01  0.18801667936E+01  0.28862164965E+02  0.00000000000E+00 0. -1.
</event>
<event>
 7    1  0.5761011E-013  0.5930196E+02  0.7816164E-02  0.1266605E+00
        -11   -1    0    0    0    0  0.00000000000E+00  0.00000000000E+00  0.45593999997E+02  0.45594000000E+02  0.51100000000E-03 0. -1.
         11   -1    0    0    0    0 -0.00000000000E+00 -0.00000000000E+00 -0.45593999997E+02  0.45594000000E+02  0.51100000000E-03 0.  1.
    9900012    2    1    2    0    0  0.21793112283E+02 -0.20548799549E+02  0.10932833630E+02  0.59301956705E+02  0.50000023120E+02 0.  0.
        -12    1    1    2    0    0 -0.21793112283E+02  0.20548799549E+02 -0.10932833630E+02  0.31886043295E+02  0.00000000000E+00 0.  1.
         11    1    3    3    0    0  0.20914621491E+02 -0.36842478422E+01  0.24458734118E+02  0.32391738903E+02  0.51100000000E-03 0. -1.
        -11    1    3    3    0    0  0.82015981036E+01 -0.91526777079E+01 -0.95207807728E+01  0.15546156678E+02  0.51100000000E-03 0.  1.
        -12    1    3    3    0    0 -0.73231073121E+01 -0.77118739985E+01 -0.40051197155E+01  0.11364061123E+02  0.00000000000E+00 0.  1.
</event>
<event>
 7    1  0.5761011E-013  0.5930195E+02  0.7816164E-02  0.1266605E+00
        -11   -1    0    0    0    0  0.00000000000E+00  0.00000000000E+00  0.45593999997E+02  0.45594000000E+02  0.51100000000E-03 0. -1.
         11   -1    0    0    0    0 -0.00000000000E+00 -0.00000000000E+00 -0.45593999997E+02  0.45594000000E+02  0.51100000000E-03 0.  1.
    9900012    2    1    2    0    0  0.28459660804E+02 -0.33592906602E+01 -0.13981536989E+02  0.59301945001E+02  0.50000001776E+02 0.  0.
        -12    1    1    2    0    0 -0.28459660804E+02  0.33592906602E+01  0.13981536989E+02  0.31886054999E+02  0.00000000000E+00 0.  1.
         11    1    3    3    0    0  0.20094390708E+02  0.13266153305E+01 -0.32384811251E+02  0.38135553572E+02  0.51100000000E-03 0. -1.
        -11    1    3    3    0    0  0.45542462134E+01 -0.28674823913E+01  0.59801202104E+01  0.80452129760E+01  0.51100000000E-03 0.  1.
         12    1    3    3    0    0  0.38110238820E+01 -0.18184235994E+01  0.12423154052E+02  0.13121178454E+02  0.00000000000E+00 0. -1.
</event>
<event>
 7    1  0.5761011E-013  0.5930196E+02  0.7816164E-02  0.1266605E+00
        -11   -1    0    0    0    0  0.00000000000E+00  0.00000000000E+00  0.45593999997E+02  0.45594000000E+02  0.51100000000E-03 0. -1.
         11   -1    0    0    0    0 -0.00000000000E+00 -0.00000000000E+00 -0.45593999997E+02  0.45594000000E+02  0.51100000000E-03 0.  1.
    9900012    2    1    2    0    0  0.21060694501E+02  0.51139933366E+01  0.23388331468E+02  0.59301955567E+02  0.50000021046E+02 0.  0.
        -12    1    1    2    0    0 -0.21060694501E+02 -0.51139933366E+01 -0.23388331468E+02  0.31886044433E+02  0.00000000000E+00 0.  1.
         11    1    3    3    0    0  0.13776769047E+02  0.23886247139E+02  0.19250895852E+01  0.27641601580E+02  0.51100000000E-03 0. -1.
        -11    1    3    3    0    0 -0.20733526847E+01 -0.29640450634E+01  0.28995563537E+00  0.36288330114E+01  0.51100000000E-03 0.  1.
         12    1    3    3    0    0  0.93572781384E+01 -0.15808208739E+02  0.21173286247E+02  0.28031520976E+02  0.00000000000E+00 0. -1.
</event>
<event>
 7    1  0.5761011E-013  0.5930198E+02  0.7816164E-02  0.1266605E+00
        -11   -1    0    0    0    0  0.00000000000E+00  0.00000000000E+00  0.45593999997E+02  0.45594000000E+02  0.51100000000E-03 0.  1.
         11   -1    0    0    0    0 -0.00000000000E+00 -0.00000000000E+00 -0.45593999997E+02  0.45594000000E+02  0.51100000000E-03 0. -1.
    9900012    2    1    2    0    0 -0.77431241887E+01  0.30836044758E+02 -0.24291681065E+01  0.59301976632E+02  0.50000059462E+02 0.  0.
        -12    1    1    2    0    0  0.77431241887E+01 -0.30836044758E+02  0.24291681065E+01  0.31886023368E+02  0.00000000000E+00 0.  1.
         11    1    3    3    0    0 -0.47142197782E+01 -0.10616331322E+02 -0.39621405451E+01  0.12273097279E+02  0.51100000000E-03 0. -1.
        -11    1    3    3    0    0 -0.28421430320E+01  0.27527472092E+02  0.11432883265E+02  0.29942450080E+02  0.51100000000E-03 0.  1.
        -12    1    3    3    0    0 -0.18676137843E+00  0.13924903989E+02 -0.98999108268E+01  0.17086429273E+02  0.00000000000E+00 0.  1.
</event>
<event>
 7    1  0.5761011E-013  0.5930197E+02  0.7816164E-02  0.1266605E+00
        -11   -1    0    0    0    0  0.00000000000E+00  0.00000000000E+00  0.45593999997E+02  0.45594000000E+02  0.51100000000E-03 0.  1.
         11   -1    0    0    0    0 -0.00000000000E+00 -0.00000000000E+00 -0.45593999997E+02  0.45594000000E+02  0.51100000000E-03 0. -1.
    9900012    2    1    2    0    0 -0.27327315684E+02 -0.28678244310E+01 -0.16177528144E+02  0.59301968319E+02  0.50000044302E+02 0.  0.
        -12    1    1    2    0    0  0.27327315684E+02  0.28678244310E+01  0.16177528144E+02  0.31886031681E+02  0.00000000000E+00 0.  1.
         11    1    3    3    0    0 -0.17679439408E+02 -0.18932281881E+02 -0.14795095176E+02  0.29831002607E+02  0.51100000000E-03 0. -1.
        -11    1    3    3    0    0 -0.44603371933E+01  0.20259144249E+02  0.37160004105E+01  0.21074538973E+02  0.51100000000E-03 0.  1.
        -12    1    3    3    0    0 -0.51875390826E+01 -0.41946867996E+01 -0.50984333784E+01  0.83964267396E+01  0.00000000000E+00 0.  1.
</event>
<event>
 7    1  0.5761011E-013  0.5930195E+02  0.7816164E-02  0.1266605E+00
        -11   -1    0    0    0    0  0.00000000000E+00  0.00000000000E+00  0.45593999997E+02  0.45594000000E+02  0.51100000000E-03 0.  1.
         11   -1    0    0    0    0 -0.00000000000E+00 -0.00000000000E+00 -0.45593999997E+02  0.45594000000E+02  0.51100000000E-03 0. -1.
    9900012    2    1    2    0    0  0.36345621266E+01 -0.16428195570E+02 -0.27085503373E+02  0.59301950628E+02  0.50000012038E+02 0.  0.
        -12    1    1    2    0    0 -0.36345621266E+01  0.16428195570E+02  0.27085503373E+02  0.31886049372E+02  0.00000000000E+00 0.  1.
         11    1    3    3    0    0 -0.12279593704E+02 -0.14798640778E+02 -0.74444594925E+00  0.19244282019E+02  0.51100000000E-03 0. -1.
        -11    1    3    3    0    0  0.16618400627E+02  0.60585286642E+01 -0.66324514961E+01  0.18890908451E+02  0.51100000000E-03 0.  1.
        -12    1    3    3    0    0 -0.70424479674E+00 -0.76880834567E+01 -0.19708605928E+02  0.21166760158E+02  0.00000000000E+00 0.  1.
</event>
<event>
 7    1  0.5761011E-013  0.5930194E+02  0.7816164E-02  0.1266605E+00
        -11   -1    0    0    0    0  0.00000000000E+00  0.00000000000E+00  0.45593999997E+02  0.45594000000E+02  0.51100000000E-03 0.  1.
         11   -1    0    0    0    0 -0.00000000000E+00 -0.00000000000E+00 -0.45593999997E+02  0.45594000000E+02  0.51100000000E-03 0. -1.
    9900012    2    1    2    0    0 -0.18325294458E+02 -0.12298638281E+01 -0.26065141134E+02  0.59301944046E+02  0.50000000033E+02 0.  0.
        -12    1    1    2    0    0  0.18325294458E+02  0.12298638281E+01  0.26065141134E+02  0.31886055954E+02  0.00000000000E+00 0.  1.
         11    1    3    3    0    0  0.43863987341E+01 -0.11754147953E+02 -0.18850650179E+02  0.22643928555E+02  0.51100000000E-03 0. -1.
        -11    1    3    3    0    0 -0.18358056203E+02  0.15311347323E+02 -0.13653442403E+02  0.27529476459E+02  0.51100000000E-03 0.  1.
         12    1    3    3    0    0 -0.43536369887E+01 -0.47870631980E+01  0.64389514487E+01  0.91285390315E+01  0.00000000000E+00 0. -1.
</event>
<event>
 7    1  0.5761011E-013  0.5930193E+02  0.7816164E-02  0.1266605E+00
        -11   -1    0    0    0    0  0.00000000000E+00  0.00000000000E+00  0.45593999997E+02  0.45594000000E+02  0.51100000000E-03 0.  1.
         11   -1    0    0    0    0 -0.00000000000E+00 -0.00000000000E+00 -0.45593999997E+02  0.45594000000E+02  0.51100000000E-03 0. -1.
    9900012    2    1    2    0    0 -0.24967622691E+02 -0.32696037393E+01 -0.19561414906E+02  0.59301930242E+02  0.49999974859E+02 0.  0.
        -12    1    1    2    0    0  0.24967622691E+02  0.32696037393E+01  0.19561414906E+02  0.31886069758E+02  0.00000000000E+00 0.  1.
         11    1    3    3    0    0 -0.11660938948E+02 -0.16640800392E+02  0.93796314627E+01  0.22380152400E+02  0.51100000000E-03 0. -1.
        -11    1    3    3    0    0 -0.14906401728E+02  0.73932343884E+01 -0.19510819926E+02  0.25642402805E+02  0.51100000000E-03 0.  1.
         12    1    3    3    0    0  0.15997179845E+01  0.59779622637E+01 -0.94302264431E+01  0.11279375037E+02  0.00000000000E+00 0. -1.
</event>
<event>
 7    1  0.5761011E-013  0.5930195E+02  0.7816164E-02  0.1266605E+00
        -11   -1    0    0    0    0  0.00000000000E+00  0.00000000000E+00  0.45593999997E+02  0.45594000000E+02  0.51100000000E-03 0. -1.
         11   -1    0    0    0    0 -0.00000000000E+00 -0.00000000000E+00 -0.45593999997E+02  0.45594000000E+02  0.51100000000E-03 0.  1.
    9900012    2    1    2    0    0 -0.21855491513E+02  0.23210183173E+02 -0.58757710793E+00  0.59301947264E+02  0.50000005903E+02 0.  0.
        -12    1    1    2    0    0  0.21855491513E+02 -0.23210183173E+02  0.58757710793E+00  0.31886052736E+02  0.00000000000E+00 0.  1.
         11    1    3    3    0    0  0.10246660120E+02  0.30638204417E+01 -0.12858048447E+02  0.16724546315E+02  0.51100000000E-03 0. -1.
        -11    1    3    3    0    0 -0.26297679985E+02  0.22275745575E+02  0.91826461802E+01  0.35666480127E+02  0.51100000000E-03 0.  1.
         12    1    3    3    0    0 -0.58044716480E+01 -0.21293828435E+01  0.30878251585E+01  0.69109208226E+01  0.00000000000E+00 0. -1.
</event>
<event>
 7    1  0.5761011E-013  0.5930160E+02  0.7816164E-02  0.1266606E+00
        -11   -1    0    0    0    0  0.00000000000E+00  0.00000000000E+00  0.45593999997E+02  0.45594000000E+02  0.51100000000E-03 0. -1.
         11   -1    0    0    0    0 -0.00000000000E+00 -0.00000000000E+00 -0.45593999997E+02  0.45594000000E+02  0.51100000000E-03 0.  1.
    9900012    2    1    2    0    0  0.23691379687E+02 -0.11356105095E+02 -0.18069301686E+02  0.59301603875E+02  0.49999379639E+02 0.  0.
        -12    1    1    2    0    0 -0.23691379687E+02  0.11356105095E+02  0.18069301686E+02  0.31886396125E+02  0.00000000000E+00 0.  1.
         11    1    3    3    0    0  0.10108096839E+02  0.74100465707E+01 -0.92161025304E+01  0.15556958507E+02  0.51100000000E-03 0. -1.
        -11    1    3    3    0    0  0.29185477517E+01 -0.10294840209E+02  0.13708712115E+02  0.17390527422E+02  0.51100000000E-03 0.  1.
        -12    1    3    3    0    0  0.10664735097E+02 -0.84713114572E+01 -0.22561911271E+02  0.26354117946E+02  0.00000000000E+00 0.  1.
</event>
<event>
 7    1  0.5761011E-013  0.5930193E+02  0.7816164E-02  0.1266605E+00
        -11   -1    0    0    0    0  0.00000000000E+00  0.00000000000E+00  0.45593999997E+02  0.45594000000E+02  0.51100000000E-03 0.  1.
         11   -1    0    0    0    0 -0.00000000000E+00 -0.00000000000E+00 -0.45593999997E+02  0.45594000000E+02  0.51100000000E-03 0. -1.
    9900012    2    1    2    0    0 -0.31560012586E+02 -0.41716210353E+01 -0.18123873179E+01  0.59301928366E+02  0.49999971436E+02 0.  0.
        -12    1    1    2    0    0  0.31560012586E+02  0.41716210353E+01  0.18123873179E+01  0.31886071634E+02  0.00000000000E+00 0.  1.
         11    1    3    3    0    0 -0.88012386509E+01 -0.11044104460E+02 -0.20782542862E+02  0.25126641901E+02  0.51100000000E-03 0. -1.
        -11    1    3    3    0    0 -0.16578077567E+02 -0.17150893897E+01  0.16190143337E+02  0.23235639199E+02  0.51100000000E-03 0.  1.
        -12    1    3    3    0    0 -0.61806963676E+01  0.85875728145E+01  0.27800122071E+01  0.10939647266E+02  0.00000000000E+00 0.  1.
</event>
<event>
 7    1  0.5761011E-013  0.5930197E+02  0.7816164E-02  0.1266605E+00
        -11   -1    0    0    0    0  0.00000000000E+00  0.00000000000E+00  0.45593999997E+02  0.45594000000E+02  0.51100000000E-03 0.  1.
         11   -1    0    0    0    0 -0.00000000000E+00 -0.00000000000E+00 -0.45593999997E+02  0.45594000000E+02  0.51100000000E-03 0. -1.
    9900012    2    1    2    0    0  0.11505913650E+02  0.82852650325E+01 -0.28560235626E+02  0.59301972894E+02  0.50000052645E+02 0.  0.
        -12    1    1    2    0    0 -0.11505913650E+02 -0.82852650325E+01  0.28560235626E+02  0.31886027106E+02  0.00000000000E+00 0.  1.
         11    1    3    3    0    0  0.44772932852E-01  0.58038727732E+01 -0.39868589721E+02  0.40288849455E+02  0.51100000000E-03 0. -1.
        -11    1    3    3    0    0  0.11303569369E+02 -0.13292098699E+01  0.75456321174E+01  0.13655549922E+02  0.51100000000E-03 0.  1.
         12    1    3    3    0    0  0.15757134804E+00  0.38106021293E+01  0.37627219774E+01  0.53575735176E+01  0.00000000000E+00 0. -1.
</event>
<event>
 7    1  0.5761011E-013  0.5930195E+02  0.7816164E-02  0.1266605E+00
        -11   -1    0    0    0    0  0.00000000000E+00  0.00000000000E+00  0.45593999997E+02  0.45594000000E+02  0.51100000000E-03 0.  1.
         11   -1    0    0    0    0 -0.00000000000E+00 -0.00000000000E+00 -0.45593999997E+02  0.45594000000E+02  0.51100000000E-03 0. -1.
    9900012    2    1    2    0    0  0.25713754187E+02  0.18672577636E+02 -0.26187137363E+01  0.59301953340E+02  0.50000016984E+02 0.  0.
        -12    1    1    2    0    0 -0.25713754187E+02 -0.18672577636E+02  0.26187137363E+01  0.31886046660E+02  0.00000000000E+00 0.  1.
         11    1    3    3    0    0  0.12505026911E+02 -0.15684657416E+02  0.15861146308E+01  0.20122125538E+02  0.51100000000E-03 0. -1.
        -11    1    3    3    0    0 -0.35909570793E+00  0.11875968627E+02 -0.50451572019E+01  0.12908183142E+02  0.51100000000E-03 0.  1.
         12    1    3    3    0    0  0.13567822984E+02  0.22481266425E+02  0.84032883476E+00  0.26271644660E+02  0.00000000000E+00 0. -1.
</event>
<event>
 7    1  0.5761011E-013  0.5930194E+02  0.7816164E-02  0.1266605E+00
        -11   -1    0    0    0    0  0.00000000000E+00  0.00000000000E+00  0.45593999997E+02  0.45594000000E+02  0.51100000000E-03 0.  1.
         11   -1    0    0    0    0 -0.00000000000E+00 -0.00000000000E+00 -0.45593999997E+02  0.45594000000E+02  0.51100000000E-03 0. -1.
    9900012    2    1    2    0    0  0.16234972627E+02 -0.18529069678E+02 -0.20244012798E+02  0.59301940139E+02  0.49999992907E+02 0.  0.
        -12    1    1    2    0    0 -0.16234972627E+02  0.18529069678E+02  0.20244012798E+02  0.31886059861E+02  0.00000000000E+00 0.  1.
         11    1    3    3    0    0  0.80845641546E+01  0.10760898175E+02 -0.54190752020E+01  0.14509427398E+02  0.51100000000E-03 0. -1.
        -11    1    3    3    0    0  0.27926976893E+01 -0.33822460865E+02 -0.16256590792E+02  0.37630237361E+02  0.51100000000E-03 0.  1.
        -12    1    3    3    0    0  0.53577107833E+01  0.45324930123E+01  0.14316531966E+01  0.71622753801E+01  0.00000000000E+00 0.  1.
</event>
<event>
 7    1  0.5761011E-013  0.5930194E+02  0.7816164E-02  0.1266605E+00
        -11   -1    0    0    0    0  0.00000000000E+00  0.00000000000E+00  0.45593999997E+02  0.45594000000E+02  0.51100000000E-03 0.  1.
         11   -1    0    0    0    0 -0.00000000000E+00 -0.00000000000E+00 -0.45593999997E+02  0.45594000000E+02  0.51100000000E-03 0. -1.
    9900012    2    1    2    0    0 -0.19465108328E+02 -0.27617149161E+00 -0.25253794688E+02  0.59301939424E+02  0.49999991604E+02 0.  0.
        -12    1    1    2    0    0  0.19465108328E+02  0.27617149161E+00  0.25253794688E+02  0.31886060576E+02  0.00000000000E+00 0.  1.
         11    1    3    3    0    0 -0.13322745275E+02 -0.13528308070E+02 -0.21577231251E+01  0.19109328357E+02  0.51100000000E-03 0. -1.
        -11    1    3    3    0    0  0.76108521616E+01  0.70595890176E+01  0.23209457349E+01  0.10637182761E+02  0.51100000000E-03 0.  1.
        -12    1    3    3    0    0 -0.13753215215E+02  0.61925475611E+01 -0.25417017298E+02  0.29555428306E+02  0.00000000000E+00 0.  1.
</event>
<event>
 7    1  0.5761011E-013  0.5930194E+02  0.7816164E-02  0.1266605E+00
        -11   -1    0    0    0    0  0.00000000000E+00  0.00000000000E+00  0.45593999997E+02  0.45594000000E+02  0.51100000000E-03 0.  1.
         11   -1    0    0    0    0 -0.00000000000E+00 -0.00000000000E+00 -0.45593999997E+02  0.45594000000E+02  0.51100000000E-03 0. -1.
    9900012    2    1    2    0    0 -0.19750153235E+02  0.11547940222E+02 -0.22210303706E+02  0.59301936165E+02  0.49999985661E+02 0.  0.
        -12    1    1    2    0    0  0.19750153235E+02 -0.11547940222E+02  0.22210303706E+02  0.31886063835E+02  0.00000000000E+00 0.  1.
         11    1    3    3    0    0  0.30937951458E+01 -0.76056929474E+01 -0.14880723370E+01  0.83446086281E+01  0.51100000000E-03 0. -1.
        -11    1    3    3    0    0 -0.31827290838E+02  0.10167899190E+02 -0.11812199713E+02  0.35438547915E+02  0.51100000000E-03 0.  1.
        -12    1    3    3    0    0  0.89833424572E+01  0.89857339798E+01 -0.89100316554E+01  0.15518779622E+02  0.00000000000E+00 0.  1.
</event>
<event>
 7    1  0.5761011E-013  0.5930195E+02  0.7816164E-02  0.1266605E+00
        -11   -1    0    0    0    0  0.00000000000E+00  0.00000000000E+00  0.45593999997E+02  0.45594000000E+02  0.51100000000E-03 0.  1.
         11   -1    0    0    0    0 -0.00000000000E+00 -0.00000000000E+00 -0.45593999997E+02  0.45594000000E+02  0.51100000000E-03 0. -1.
    9900012    2    1    2    0    0  0.10409105853E+02  0.22167591166E+02 -0.20419814159E+02  0.59301946731E+02  0.50000004931E+02 0.  0.
        -12    1    1    2    0    0 -0.10409105853E+02 -0.22167591166E+02  0.20419814159E+02  0.31886053269E+02  0.00000000000E+00 0.  1.
         11    1    3    3    0    0  0.10905240246E+02  0.29363565864E+02 -0.19099688950E+02  0.36687073791E+02  0.51100000000E-03 0. -1.
        -11    1    3    3    0    0  0.10525350295E+01  0.55108881959E+01  0.57145751101E+01  0.80083760929E+01  0.51100000000E-03 0.  1.
         12    1    3    3    0    0 -0.15486694233E+01 -0.12706862894E+02 -0.70347003191E+01  0.14606496848E+02  0.00000000000E+00 0. -1.
</event>
<event>
 7    1  0.5761011E-013  0.5930189E+02  0.7816164E-02  0.1266605E+00
        -11   -1    0    0    0    0  0.00000000000E+00  0.00000000000E+00  0.45593999997E+02  0.45594000000E+02  0.51100000000E-03 0.  1.
         11   -1    0    0    0    0 -0.00000000000E+00 -0.00000000000E+00 -0.45593999997E+02  0.45594000000E+02  0.51100000000E-03 0. -1.
    9900012    2    1    2    0    0  0.18188613584E+02  0.53454043497E+00 -0.26184202510E+02  0.59301892388E+02  0.49999905821E+02 0.  0.
        -12    1    1    2    0    0 -0.18188613584E+02 -0.53454043497E+00  0.26184202510E+02  0.31886107612E+02  0.00000000000E+00 0.  1.
         11    1    3    3    0    0  0.19918423297E+02  0.42874758857E+01 -0.12536844540E+02  0.23922761283E+02  0.51100000000E-03 0.  1.
        -11    1    3    3    0    0 -0.15337065144E+02 -0.65362052679E+01 -0.11769493317E+01  0.16713250926E+02  0.51100000000E-03 0. -1.
         12    1    3    3    0    0  0.13607255431E+02  0.27832698172E+01 -0.12470408638E+02  0.18665880178E+02  0.00000000000E+00 0. -1.
</event>
<event>
 7    1  0.5761011E-013  0.5930194E+02  0.7816164E-02  0.1266605E+00
        -11   -1    0    0    0    0  0.00000000000E+00  0.00000000000E+00  0.45593999997E+02  0.45594000000E+02  0.51100000000E-03 0. -1.
         11   -1    0    0    0    0 -0.00000000000E+00 -0.00000000000E+00 -0.45593999997E+02  0.45594000000E+02  0.51100000000E-03 0.  1.
    9900012    2    1    2    0    0 -0.26142224667E+02 -0.34489403543E+01  0.17927897737E+02  0.59301943214E+02  0.49999998515E+02 0.  0.
        -12    1    1    2    0    0  0.26142224667E+02  0.34489403543E+01 -0.17927897737E+02  0.31886056786E+02  0.00000000000E+00 0.  1.
         11    1    3    3    0    0 -0.38990508357E+02 -0.62669438805E+01  0.14148301449E+02  0.41948882723E+02  0.51100000000E-03 0. -1.
        -11    1    3    3    0    0  0.20416147296E+01  0.53493713239E+01  0.35139961477E+00  0.57365012173E+01  0.51100000000E-03 0.  1.
         12    1    3    3    0    0  0.10806668960E+02 -0.25313677977E+01  0.34281966726E+01  0.11616559274E+02  0.00000000000E+00 0. -1.
</event>
<event>
 7    1  0.5761011E-013  0.5930195E+02  0.7816164E-02  0.1266605E+00
        -11   -1    0    0    0    0  0.00000000000E+00  0.00000000000E+00  0.45593999997E+02  0.45594000000E+02  0.51100000000E-03 0.  1.
         11   -1    0    0    0    0 -0.00000000000E+00 -0.00000000000E+00 -0.45593999997E+02  0.45594000000E+02  0.51100000000E-03 0. -1.
    9900012    2    1    2    0    0  0.22132839671E+02  0.21371772942E+02 -0.83728854797E+01  0.59301945339E+02  0.50000002392E+02 0.  0.
        -12    1    1    2    0    0 -0.22132839671E+02 -0.21371772942E+02  0.83728854797E+01  0.31886054661E+02  0.00000000000E+00 0.  1.
         11    1    3    3    0    0  0.16134442703E+01 -0.10121184760E+02 -0.46227876385E+01  0.11243297967E+02  0.51100000000E-03 0. -1.
        -11    1    3    3    0    0  0.27114216614E+02  0.17059327215E+02 -0.29423827638E+01  0.32169224489E+02  0.51100000000E-03 0.  1.
        -12    1    3    3    0    0 -0.65948212139E+01  0.14433630488E+02 -0.80771507742E+00  0.15889422883E+02  0.00000000000E+00 0.  1.
</event>
<event>
 7    1  0.5761011E-013  0.5930195E+02  0.7816164E-02  0.1266605E+00
        -11   -1    0    0    0    0  0.00000000000E+00  0.00000000000E+00  0.45593999997E+02  0.45594000000E+02  0.51100000000E-03 0.  1.
         11   -1    0    0    0    0 -0.00000000000E+00 -0.00000000000E+00 -0.45593999997E+02  0.45594000000E+02  0.51100000000E-03 0. -1.
    9900012    2    1    2    0    0  0.38160975846E+01 -0.27148321708E+02 -0.16282693749E+02  0.59301951514E+02  0.50000013653E+02 0.  0.
        -12    1    1    2    0    0 -0.38160975846E+01  0.27148321708E+02  0.16282693749E+02  0.31886048486E+02  0.00000000000E+00 0.  1.
         11    1    3    3    0    0 -0.16728369534E+02 -0.12970407905E+02 -0.66025200060E+01  0.22173477381E+02  0.51100000000E-03 0. -1.
        -11    1    3    3    0    0  0.13218446847E+02  0.30851662945E+01  0.37263827283E+01  0.14075919743E+02  0.51100000000E-03 0.  1.
         12    1    3    3    0    0  0.73260202717E+01 -0.17263080098E+02 -0.13406556471E+02  0.23052554390E+02  0.00000000000E+00 0. -1.
</event>
<event>
 7    1  0.5761011E-013  0.5930194E+02  0.7816164E-02  0.1266605E+00
        -11   -1    0    0    0    0  0.00000000000E+00  0.00000000000E+00  0.45593999997E+02  0.45594000000E+02  0.51100000000E-03 0.  1.
         11   -1    0    0    0    0 -0.00000000000E+00 -0.00000000000E+00 -0.45593999997E+02  0.45594000000E+02  0.51100000000E-03 0. -1.
    9900012    2    1    2    0    0  0.28206463611E+01  0.31761010471E+02  0.54011774768E-01  0.59301941145E+02  0.49999994743E+02 0.  0.
        -12    1    1    2    0    0 -0.28206463611E+01 -0.31761010471E+02 -0.54011774768E-01  0.31886058855E+02  0.00000000000E+00 0.  1.
         11    1    3    3    0    0  0.42264470408E+01  0.18357652712E+02 -0.18262592377E+02  0.26237159684E+02  0.51100000000E-03 0. -1.
        -11    1    3    3    0    0  0.20896625069E+01  0.13027590531E+02  0.23412213541E+02  0.26874086916E+02  0.51100000000E-03 0.  1.
        -12    1    3    3    0    0 -0.34954631866E+01  0.37576722768E+00 -0.50956093889E+01  0.61906945445E+01  0.00000000000E+00 0.  1.
</event>
<event>
 7    1  0.5761011E-013  0.5930193E+02  0.7816164E-02  0.1266605E+00
        -11   -1    0    0    0    0  0.00000000000E+00  0.00000000000E+00  0.45593999997E+02  0.45594000000E+02  0.51100000000E-03 0.  1.
         11   -1    0    0    0    0 -0.00000000000E+00 -0.00000000000E+00 -0.45593999997E+02  0.45594000000E+02  0.51100000000E-03 0. -1.
    9900012    2    1    2    0    0 -0.26521461990E+02 -0.38209745167E+01 -0.17283914025E+02  0.59301929745E+02  0.49999973951E+02 0.  0.
        -12    1    1    2    0    0  0.26521461990E+02  0.38209745167E+01  0.17283914025E+02  0.31886070255E+02  0.00000000000E+00 0.  1.
         11    1    3    3    0    0 -0.19548402171E+02  0.21408755448E+02 -0.11192695989E+02  0.31076539077E+02  0.51100000000E-03 0. -1.
        -11    1    3    3    0    0 -0.43655574766E+01 -0.23342429252E+02 -0.33202707576E+01  0.23978141997E+02  0.51100000000E-03 0.  1.
         12    1    3    3    0    0 -0.26075023424E+01 -0.18873007136E+01 -0.27709472785E+01  0.42472486705E+01  0.00000000000E+00 0. -1.
</event>
<event>
 7    1  0.5761011E-013  0.5930196E+02  0.7816164E-02  0.1266605E+00
        -11   -1    0    0    0    0  0.00000000000E+00  0.00000000000E+00  0.45593999997E+02  0.45594000000E+02  0.51100000000E-03 0. -1.
         11   -1    0    0    0    0 -0.00000000000E+00 -0.00000000000E+00 -0.45593999997E+02  0.45594000000E+02  0.51100000000E-03 0.  1.
    9900012    2    1    2    0    0 -0.10669948846E+02  0.15489209476E+02  0.25747936247E+02  0.59301958547E+02  0.50000026480E+02 0.  0.
        -12    1    1    2    0    0  0.10669948846E+02 -0.15489209476E+02 -0.25747936247E+02  0.31886041453E+02  0.00000000000E+00 0.  1.
         11    1    3    3    0    0 -0.59637761421E+01  0.56471394298E+01  0.12161958954E+02  0.14675491661E+02  0.51100000000E-03 0. -1.
        -11    1    3    3    0    0 -0.11659314293E+02  0.91879287064E+01 -0.11378393375E+02  0.18703622103E+02  0.51100000000E-03 0.  1.
        -12    1    3    3    0    0  0.69531415893E+01  0.65414134028E+00  0.24964370668E+02  0.25922844784E+02  0.00000000000E+00 0.  1.
</event>
<event>
 7    1  0.5761011E-013  0.5930196E+02  0.7816164E-02  0.1266605E+00
        -11   -1    0    0    0    0  0.00000000000E+00  0.00000000000E+00  0.45593999997E+02  0.45594000000E+02  0.51100000000E-03 0.  1.
         11   -1    0    0    0    0 -0.00000000000E+00 -0.00000000000E+00 -0.45593999997E+02  0.45594000000E+02  0.51100000000E-03 0. -1.
    9900012    2    1    2    0    0 -0.20100866901E+02 -0.16636828990E+02 -0.18327320361E+02  0.59301959157E+02  0.50000027592E+02 0.  0.
        -12    1    1    2    0    0  0.20100866901E+02  0.16636828990E+02  0.18327320361E+02  0.31886040843E+02  0.00000000000E+00 0.  1.
         11    1    3    3    0    0 -0.23861930150E+02  0.90239616279E+00 -0.35148024537E+01  0.24136276968E+02  0.51100000000E-03 0. -1.
        -11    1    3    3    0    0  0.41824321406E+01 -0.24480586313E+02 -0.12721859569E+02  0.27904077767E+02  0.51100000000E-03 0.  1.
         12    1    3    3    0    0 -0.42136889117E+00  0.69413611603E+01 -0.20906583390E+01  0.72616044226E+01  0.00000000000E+00 0. -1.
</event>
<event>
 7    1  0.5761011E-013  0.5930199E+02  0.7816164E-02  0.1266605E+00
        -11   -1    0    0    0    0  0.00000000000E+00  0.00000000000E+00  0.45593999997E+02  0.45594000000E+02  0.51100000000E-03 0.  1.
         11   -1    0    0    0    0 -0.00000000000E+00 -0.00000000000E+00 -0.45593999997E+02  0.45594000000E+02  0.51100000000E-03 0. -1.
    9900012    2    1    2    0    0 -0.16817764790E+02  0.23174141092E+02 -0.14029944418E+02  0.59301994162E+02  0.50000091434E+02 0.  0.
        -12    1    1    2    0    0  0.16817764790E+02 -0.23174141092E+02  0.14029944418E+02  0.31886005838E+02  0.00000000000E+00 0.  1.
         11    1    3    3    0    0 -0.11044060710E+02  0.31909774712E+02 -0.24847122037E+01  0.33858216051E+02  0.51100000000E-03 0. -1.
        -11    1    3    3    0    0  0.25421258917E+01 -0.26311555160E+01  0.48487607677E+01  0.60741966253E+01  0.51100000000E-03 0.  1.
         12    1    3    3    0    0 -0.83158299720E+01 -0.61044781042E+01 -0.16393992982E+02  0.19369581486E+02  0.00000000000E+00 0. -1.
</event>
<event>
 7    1  0.5761011E-013  0.5930196E+02  0.7816164E-02  0.1266605E+00
        -11   -1    0    0    0    0  0.00000000000E+00  0.00000000000E+00  0.45593999997E+02  0.45594000000E+02  0.51100000000E-03 0. -1.
         11   -1    0    0    0    0 -0.00000000000E+00 -0.00000000000E+00 -0.45593999997E+02  0.45594000000E+02  0.51100000000E-03 0.  1.
    9900012    2    1    2    0    0  0.26675160649E+02  0.47844734102E+01  0.16800725642E+02  0.59301956602E+02  0.50000022933E+02 0.  0.
        -12    1    1    2    0    0 -0.26675160649E+02 -0.47844734102E+01 -0.16800725642E+02  0.31886043398E+02  0.00000000000E+00 0.  1.
         11    1    3    3    0    0  0.24426650294E+02  0.80257545624E+01  0.18959146566E+02  0.31945629116E+02  0.51100000000E-03 0. -1.
        -11    1    3    3    0    0 -0.18648916449E+00 -0.14277940068E+02 -0.59013711036E+01  0.15450583547E+02  0.51100000000E-03 0.  1.
         12    1    3    3    0    0  0.24349995199E+01  0.11036658916E+02  0.37429501798E+01  0.11905743939E+02  0.00000000000E+00 0. -1.
</event>
<event>
 7    1  0.5761011E-013  0.5930193E+02  0.7816164E-02  0.1266605E+00
        -11   -1    0    0    0    0  0.00000000000E+00  0.00000000000E+00  0.45593999997E+02  0.45594000000E+02  0.51100000000E-03 0.  1.
         11   -1    0    0    0    0 -0.00000000000E+00 -0.00000000000E+00 -0.45593999997E+02  0.45594000000E+02  0.51100000000E-03 0. -1.
    9900012    2    1    2    0    0 -0.50293709509E+01  0.28345969887E+01 -0.31359084172E+02  0.59301926671E+02  0.49999968346E+02 0.  0.
        -12    1    1    2    0    0  0.50293709509E+01 -0.28345969887E+01  0.31359084172E+02  0.31886073329E+02  0.00000000000E+00 0.  1.
         11    1    3    3    0    0 -0.68119952460E+01  0.10134892939E+02 -0.26755898912E+02  0.29410839174E+02  0.51100000000E-03 0. -1.
        -11    1    3    3    0    0 -0.18606992355E+01 -0.16416140390E+02 -0.93534659641E+01  0.18985236179E+02  0.51100000000E-03 0.  1.
        -12    1    3    3    0    0  0.36433235305E+01  0.91158444400E+01  0.47502807042E+01  0.10905851318E+02  0.00000000000E+00 0.  1.
</event>
<event>
 7    1  0.5761011E-013  0.5930195E+02  0.7816164E-02  0.1266605E+00
        -11   -1    0    0    0    0  0.00000000000E+00  0.00000000000E+00  0.45593999997E+02  0.45594000000E+02  0.51100000000E-03 0.  1.
         11   -1    0    0    0    0 -0.00000000000E+00 -0.00000000000E+00 -0.45593999997E+02  0.45594000000E+02  0.51100000000E-03 0. -1.
    9900012    2    1    2    0    0  0.52102418437E+01  0.24252308955E+02 -0.20034939354E+02  0.59301954390E+02  0.50000018898E+02 0.  0.
        -12    1    1    2    0    0 -0.52102418437E+01 -0.24252308955E+02  0.20034939354E+02  0.31886045610E+02  0.00000000000E+00 0.  1.
         11    1    3    3    0    0 -0.41958672537E+01 -0.11610079077E+02 -0.49991654055E+00  0.12355126668E+02  0.51100000000E-03 0.  1.
        -11    1    3    3    0    0  0.73737011741E+01  0.28951634984E+02 -0.44173523774E+01  0.30200689388E+02  0.51100000000E-03 0. -1.
         12    1    3    3    0    0  0.20324079233E+01  0.69107530482E+01 -0.15117670436E+02  0.16746138333E+02  0.00000000000E+00 0. -1.
</event>
<event>
 7    1  0.5761011E-013  0.5930209E+02  0.7816164E-02  0.1266604E+00
        -11   -1    0    0    0    0  0.00000000000E+00  0.00000000000E+00  0.45593999997E+02  0.45594000000E+02  0.51100000000E-03 0.  1.
         11   -1    0    0    0    0 -0.00000000000E+00 -0.00000000000E+00 -0.45593999997E+02  0.45594000000E+02  0.51100000000E-03 0. -1.
    9900012    2    1    2    0    0  0.33980605459E+01 -0.15406288167E+02 -0.27709394769E+02  0.59302092626E+02  0.50000271007E+02 0.  0.
        -12    1    1    2    0    0 -0.33980605459E+01  0.15406288167E+02  0.27709394769E+02  0.31885907374E+02  0.00000000000E+00 0.  1.
         11    1    3    3    0    0 -0.71009456126E+01 -0.39781999600E+01  0.91677798385E+01  0.12259595872E+02  0.51100000000E-03 0. -1.
        -11    1    3    3    0    0  0.11849076122E+02  0.11440574357E+01 -0.53055831185E+01  0.13032984495E+02  0.51100000000E-03 0.  1.
         12    1    3    3    0    0 -0.13500699631E+01 -0.12572145643E+02 -0.31571591489E+02  0.34009512260E+02  0.00000000000E+00 0. -1.
</event>
<event>
 7    1  0.5761011E-013  0.5930195E+02  0.7816164E-02  0.1266605E+00
        -11   -1    0    0    0    0  0.00000000000E+00  0.00000000000E+00  0.45593999997E+02  0.45594000000E+02  0.51100000000E-03 0.  1.
         11   -1    0    0    0    0 -0.00000000000E+00 -0.00000000000E+00 -0.45593999997E+02  0.45594000000E+02  0.51100000000E-03 0. -1.
    9900012    2    1    2    0    0  0.29926134347E+02  0.54650086541E+01 -0.95540799118E+01  0.59301948512E+02  0.50000008178E+02 0.  0.
        -12    1    1    2    0    0 -0.29926134347E+02 -0.54650086541E+01  0.95540799118E+01  0.31886051488E+02  0.00000000000E+00 0.  1.
         11    1    3    3    0    0  0.56272785496E+01  0.14784255844E+02 -0.10820969610E+02  0.19165955971E+02  0.51100000000E-03 0.  1.
        -11    1    3    3    0    0  0.28088295633E+02 -0.15791291200E+02  0.32274390984E+01  0.32384156508E+02  0.51100000000E-03 0. -1.
         12    1    3    3    0    0 -0.37894398354E+01  0.64720440101E+01 -0.19605494005E+01  0.77518360333E+01  0.00000000000E+00 0. -1.
</event>
<event>
 7    1  0.5761011E-013  0.5930194E+02  0.7816164E-02  0.1266605E+00
        -11   -1    0    0    0    0  0.00000000000E+00  0.00000000000E+00  0.45593999997E+02  0.45594000000E+02  0.51100000000E-03 0. -1.
         11   -1    0    0    0    0 -0.00000000000E+00 -0.00000000000E+00 -0.45593999997E+02  0.45594000000E+02  0.51100000000E-03 0.  1.
    9900012    2    1    2    0    0  0.24709887822E+02  0.22958185314E+01  0.20021773865E+02  0.59301940858E+02  0.49999994219E+02 0.  0.
        -12    1    1    2    0    0 -0.24709887822E+02 -0.22958185314E+01 -0.20021773865E+02  0.31886059142E+02  0.00000000000E+00 0.  1.
         11    1    3    3    0    0  0.12504744889E+02 -0.19437271375E+02  0.12873824464E+02  0.26455840940E+02  0.51100000000E-03 0. -1.
        -11    1    3    3    0    0  0.11088162381E+02  0.49131273608E+01 -0.38433191131E+01  0.12722313764E+02  0.51100000000E-03 0.  1.
         12    1    3    3    0    0  0.11169805520E+01  0.16819962546E+02  0.10991268514E+02  0.20123786153E+02  0.00000000000E+00 0. -1.
</event>
<event>
 7    1  0.5761011E-013  0.5930195E+02  0.7816164E-02  0.1266605E+00
        -11   -1    0    0    0    0  0.00000000000E+00  0.00000000000E+00  0.45593999997E+02  0.45594000000E+02  0.51100000000E-03 0. -1.
         11   -1    0    0    0    0 -0.00000000000E+00 -0.00000000000E+00 -0.45593999997E+02  0.45594000000E+02  0.51100000000E-03 0.  1.
    9900012    2    1    2    0    0 -0.14382176361E+02  0.28458193001E+02 -0.66504676428E-01  0.59301950250E+02  0.50000011348E+02 0.  0.
        -12    1    1    2    0    0  0.14382176361E+02 -0.28458193001E+02  0.66504676428E-01  0.31886049750E+02  0.00000000000E+00 0.  1.
         11    1    3    3    0    0  0.13045525753E+02  0.11287688366E+02 -0.12151689998E+02  0.21101213730E+02  0.51100000000E-03 0. -1.
        -11    1    3    3    0    0 -0.12226185798E+02 -0.13242047919E+01  0.42119057468E+01  0.12998972567E+02  0.51100000000E-03 0.  1.
         12    1    3    3    0    0 -0.15201516316E+02  0.18494709427E+02  0.78732795743E+01  0.25201763953E+02  0.00000000000E+00 0. -1.
</event>
<event>
 7    1  0.7169791E-013  0.5930195E+02  0.7816164E-02  0.1266605E+00
        -11   -1    0    0    0    0  0.00000000000E+00  0.00000000000E+00  0.45593999997E+02  0.45594000000E+02  0.51100000000E-03 0. -1.
         11   -1    0    0    0    0 -0.00000000000E+00 -0.00000000000E+00 -0.45593999997E+02  0.45594000000E+02  0.51100000000E-03 0.  1.
    9900012    2    1    2    0    0  0.11106190991E+01  0.31188055474E+02 -0.65415568496E+01  0.59301949052E+02  0.50000009163E+02 0.  0.
        -12    1    1    2    0    0 -0.11106190991E+01 -0.31188055474E+02  0.65415568496E+01  0.31886050948E+02  0.00000000000E+00 0.  1.
         11    1    3    3    0    0  0.62272711001E+01  0.30327715934E+02 -0.14351680393E+02  0.34125063949E+02  0.51100000000E-03 0. -1.
        -11    1    3    3    0    0 -0.13086837324E+02 -0.24651573396E+01 -0.31311238931E+00  0.13320673837E+02  0.51100000000E-03 0.  1.
        -12    1    3    3    0    0  0.79701853225E+01  0.33254968797E+01  0.81232359330E+01  0.11856211266E+02  0.00000000000E+00 0.  1.
</event>
<event>
 7    1  0.5761011E-013  0.5930196E+02  0.7816164E-02  0.1266605E+00
        -11   -1    0    0    0    0  0.00000000000E+00  0.00000000000E+00  0.45593999997E+02  0.45594000000E+02  0.51100000000E-03 0. -1.
         11   -1    0    0    0    0 -0.00000000000E+00 -0.00000000000E+00 -0.45593999997E+02  0.45594000000E+02  0.51100000000E-03 0.  1.
    9900012    2    1    2    0    0  0.26713072592E+02 -0.10754901510E+02  0.13691736136E+02  0.59301956153E+02  0.50000022114E+02 0.  0.
        -12    1    1    2    0    0 -0.26713072592E+02  0.10754901510E+02 -0.13691736136E+02  0.31886043847E+02  0.00000000000E+00 0.  1.
         11    1    3    3    0    0  0.72127319451E+01  0.41503569994E+01  0.51751734451E+01  0.97995604892E+01  0.51100000000E-03 0. -1.
        -11    1    3    3    0    0  0.12131232820E+02 -0.11374026038E+02 -0.16354150768E+02  0.23323668786E+02  0.51100000000E-03 0.  1.
        -12    1    3    3    0    0  0.73691078272E+01 -0.35312324709E+01  0.24870713460E+02  0.26178726878E+02  0.00000000000E+00 0.  1.
</event>
<event>
 7    1  0.5761011E-013  0.5930193E+02  0.7816164E-02  0.1266605E+00
        -11   -1    0    0    0    0  0.00000000000E+00  0.00000000000E+00  0.45593999997E+02  0.45594000000E+02  0.51100000000E-03 0. -1.
         11   -1    0    0    0    0 -0.00000000000E+00 -0.00000000000E+00 -0.45593999997E+02  0.45594000000E+02  0.51100000000E-03 0.  1.
    9900012    2    1    2    0    0  0.25122745503E+02 -0.18552595185E+02  0.64319641415E+01  0.59301932628E+02  0.49999979210E+02 0.  0.
        -12    1    1    2    0    0 -0.25122745503E+02  0.18552595185E+02 -0.64319641415E+01  0.31886067372E+02  0.00000000000E+00 0.  1.
         11    1    3    3    0    0 -0.30801318633E+01  0.86503991807E+01 -0.59799423188E+00  0.92018593579E+01  0.51100000000E-03 0.  1.
        -11    1    3    3    0    0  0.27038813176E+02 -0.23716610118E+02 -0.60870990132E+01  0.36477771150E+02  0.51100000000E-03 0. -1.
         12    1    3    3    0    0  0.11640641900E+01 -0.34863842486E+01  0.13117057387E+02  0.13622302120E+02  0.00000000000E+00 0. -1.
</event>
<event>
 7    1  0.5761011E-013  0.5930193E+02  0.7816164E-02  0.1266605E+00
        -11   -1    0    0    0    0  0.00000000000E+00  0.00000000000E+00  0.45593999997E+02  0.45594000000E+02  0.51100000000E-03 0.  1.
         11   -1    0    0    0    0 -0.00000000000E+00 -0.00000000000E+00 -0.45593999997E+02  0.45594000000E+02  0.51100000000E-03 0. -1.
    9900012    2    1    2    0    0  0.19825672003E+02 -0.11037491663E+02 -0.22401739548E+02  0.59301930512E+02  0.49999975350E+02 0.  0.
        -12    1    1    2    0    0 -0.19825672003E+02  0.11037491663E+02  0.22401739548E+02  0.31886069488E+02  0.00000000000E+00 0.  1.
         11    1    3    3    0    0 -0.34756178960E+01 -0.13155893243E+01 -0.13532777885E+02  0.14033772571E+02  0.51100000000E-03 0. -1.
        -11    1    3    3    0    0  0.25888877460E+02 -0.17862695623E+02  0.19142516049E+01  0.31511493626E+02  0.51100000000E-03 0.  1.
        -12    1    3    3    0    0 -0.25875875607E+01  0.81407932843E+01 -0.10783213268E+02  0.13756664315E+02  0.00000000000E+00 0.  1.
</event>
<event>
 7    1  0.5761011E-013  0.5930194E+02  0.7816164E-02  0.1266605E+00
        -11   -1    0    0    0    0  0.00000000000E+00  0.00000000000E+00  0.45593999997E+02  0.45594000000E+02  0.51100000000E-03 0. -1.
         11   -1    0    0    0    0 -0.00000000000E+00 -0.00000000000E+00 -0.45593999997E+02  0.45594000000E+02  0.51100000000E-03 0.  1.
    9900012    2    1    2    0    0 -0.90385882770E+01  0.11201290608E+02  0.28452699332E+02  0.59301935825E+02  0.49999985040E+02 0.  0.
        -12    1    1    2    0    0  0.90385882770E+01 -0.11201290608E+02 -0.28452699332E+02  0.31886064175E+02  0.00000000000E+00 0.  1.
         11    1    3    3    0    0 -0.18422212036E+01  0.27128991049E+02  0.12715522785E+02  0.30017669034E+02  0.51100000000E-03 0. -1.
        -11    1    3    3    0    0 -0.64995201545E+01 -0.12255876682E+02  0.19532531757E+02  0.23957672520E+02  0.51100000000E-03 0.  1.
         12    1    3    3    0    0 -0.69684691888E+00 -0.36718237585E+01 -0.37953552106E+01  0.53265942699E+01  0.00000000000E+00 0. -1.
</event>
<event>
 7    1  0.5761011E-013  0.5930197E+02  0.7816164E-02  0.1266605E+00
        -11   -1    0    0    0    0  0.00000000000E+00  0.00000000000E+00  0.45593999997E+02  0.45594000000E+02  0.51100000000E-03 0. -1.
         11   -1    0    0    0    0 -0.00000000000E+00 -0.00000000000E+00 -0.45593999997E+02  0.45594000000E+02  0.51100000000E-03 0.  1.
    9900012    2    1    2    0    0  0.14036996115E+02 -0.20182898994E+02  0.20305971031E+02  0.59301966517E+02  0.50000041016E+02 0.  0.
        -12    1    1    2    0    0 -0.14036996115E+02  0.20182898994E+02 -0.20305971031E+02  0.31886033483E+02  0.00000000000E+00 0.  1.
         11    1    3    3    0    0  0.21940221163E+02 -0.22281983953E+02  0.25603740756E+02  0.40415487805E+02  0.51100000000E-03 0. -1.
        -11    1    3    3    0    0 -0.10016774241E+02 -0.31316484150E+01 -0.74263694611E+01  0.12856669539E+02  0.51100000000E-03 0.  1.
         12    1    3    3    0    0  0.21135491934E+01  0.52307333745E+01  0.21285997361E+01  0.60298091731E+01  0.00000000000E+00 0. -1.
</event>
<event>
 7    1  0.5761011E-013  0.5930195E+02  0.7816164E-02  0.1266605E+00
        -11   -1    0    0    0    0  0.00000000000E+00  0.00000000000E+00  0.45593999997E+02  0.45594000000E+02  0.51100000000E-03 0.  1.
         11   -1    0    0    0    0 -0.00000000000E+00 -0.00000000000E+00 -0.45593999997E+02  0.45594000000E+02  0.51100000000E-03 0. -1.
    9900012    2    1    2    0    0  0.31489685868E+02  0.26648085337E+01 -0.42448508986E+01  0.59301948508E+02  0.50000008171E+02 0.  0.
        -12    1    1    2    0    0 -0.31489685868E+02 -0.26648085337E+01  0.42448508986E+01  0.31886051492E+02  0.00000000000E+00 0.  1.
         11    1    3    3    0    0  0.19313030862E+02  0.18473462165E+02 -0.11257330610E+02  0.28999818244E+02  0.51100000000E-03 0. -1.
        -11    1    3    3    0    0 -0.27078105139E+01 -0.13856852213E+02  0.10788234699E+01  0.14160100684E+02  0.51100000000E-03 0.  1.
         12    1    3    3    0    0  0.14884465520E+02 -0.19518014180E+01  0.59336562414E+01  0.16142029581E+02  0.00000000000E+00 0. -1.
</event>
<event>
 7    1  0.5761011E-013  0.5930199E+02  0.7816164E-02  0.1266605E+00
        -11   -1    0    0    0    0  0.00000000000E+00  0.00000000000E+00  0.45593999997E+02  0.45594000000E+02  0.51100000000E-03 0.  1.
         11   -1    0    0    0    0 -0.00000000000E+00 -0.00000000000E+00 -0.45593999997E+02  0.45594000000E+02  0.51100000000E-03 0. -1.
    9900012    2    1    2    0    0 -0.13352488109E+02  0.80166002116E+01 -0.27823777288E+02  0.59301993661E+02  0.50000090519E+02 0.  0.
        -12    1    1    2    0    0  0.13352488109E+02 -0.80166002116E+01  0.27823777288E+02  0.31886006339E+02  0.00000000000E+00 0.  1.
         11    1    3    3    0    0 -0.10183257378E+01  0.45008581872E+01 -0.38549487242E+02  0.38824704489E+02  0.51100000000E-03 0. -1.
        -11    1    3    3    0    0 -0.42417217985E+01  0.53124358796E+01 -0.15349418079E+00  0.67998337859E+01  0.51100000000E-03 0.  1.
         12    1    3    3    0    0 -0.80924405731E+01 -0.17966938553E+01  0.10879204135E+02  0.13677455387E+02  0.00000000000E+00 0. -1.
</event>
<event>
 7    1  0.5761011E-013  0.5930195E+02  0.7816164E-02  0.1266605E+00
        -11   -1    0    0    0    0  0.00000000000E+00  0.00000000000E+00  0.45593999997E+02  0.45594000000E+02  0.51100000000E-03 0.  1.
         11   -1    0    0    0    0 -0.00000000000E+00 -0.00000000000E+00 -0.45593999997E+02  0.45594000000E+02  0.51100000000E-03 0. -1.
    9900012    2    1    2    0    0 -0.29539307873E+02 -0.77003447682E+01 -0.92116326978E+01  0.59301949820E+02  0.50000010563E+02 0.  0.
        -12    1    1    2    0    0  0.29539307873E+02  0.77003447682E+01  0.92116326978E+01  0.31886050180E+02  0.00000000000E+00 0.  1.
         11    1    3    3    0    0 -0.26081667159E+02  0.33336617418E+01 -0.16259526863E+00  0.26294354905E+02  0.51100000000E-03 0. -1.
        -11    1    3    3    0    0  0.89821265943E+01  0.52431692370E+01 -0.67353931302E+01  0.12390921785E+02  0.51100000000E-03 0.  1.
        -12    1    3    3    0    0 -0.12439767308E+02 -0.16277175747E+02 -0.23136442989E+01  0.20616673129E+02  0.00000000000E+00 0.  1.
</event>
<event>
 7    1  0.5761011E-013  0.5930193E+02  0.7816164E-02  0.1266605E+00
        -11   -1    0    0    0    0  0.00000000000E+00  0.00000000000E+00  0.45593999997E+02  0.45594000000E+02  0.51100000000E-03 0.  1.
         11   -1    0    0    0    0 -0.00000000000E+00 -0.00000000000E+00 -0.45593999997E+02  0.45594000000E+02  0.51100000000E-03 0. -1.
    9900012    2    1    2    0    0 -0.26113849816E+02 -0.18297215607E+02 -0.10250552144E-01  0.59301931627E+02  0.49999977385E+02 0.  0.
        -12    1    1    2    0    0  0.26113849816E+02  0.18297215607E+02  0.10250552144E-01  0.31886068373E+02  0.00000000000E+00 0.  1.
         11    1    3    3    0    0 -0.17114964244E+02  0.52321443010E+01 -0.29512265218E+01  0.18138552129E+02  0.51100000000E-03 0. -1.
        -11    1    3    3    0    0  0.92110966779E+01  0.22426101929E+01  0.12450227251E+01  0.95615733189E+01  0.51100000000E-03 0.  1.
         12    1    3    3    0    0 -0.18209982249E+02 -0.25771970101E+02  0.16959532445E+01  0.31601806180E+02  0.00000000000E+00 0. -1.
</event>
<event>
 7    1  0.5761011E-013  0.5930192E+02  0.7816164E-02  0.1266605E+00
        -11   -1    0    0    0    0  0.00000000000E+00  0.00000000000E+00  0.45593999997E+02  0.45594000000E+02  0.51100000000E-03 0.  1.
         11   -1    0    0    0    0 -0.00000000000E+00 -0.00000000000E+00 -0.45593999997E+02  0.45594000000E+02  0.51100000000E-03 0. -1.
    9900012    2    1    2    0    0  0.17412319260E+02  0.29434798010E+01 -0.26549366339E+02  0.59301924852E+02  0.49999965028E+02 0.  0.
        -12    1    1    2    0    0 -0.17412319260E+02 -0.29434798010E+01  0.26549366339E+02  0.31886075148E+02  0.00000000000E+00 0.  1.
         11    1    3    3    0    0  0.24452118338E+01 -0.60998825237E+01 -0.27396789335E+02  0.28173954175E+02  0.51100000000E-03 0. -1.
        -11    1    3    3    0    0  0.18622877025E+02  0.15033358058E+02  0.19981716643E+01  0.24016787742E+02  0.51100000000E-03 0.  1.
        -12    1    3    3    0    0 -0.36557695980E+01 -0.59899957337E+01 -0.11507486680E+01  0.71111829354E+01  0.00000000000E+00 0.  1.
</event>
<event>
 7    1  0.5761011E-013  0.5930194E+02  0.7816164E-02  0.1266605E+00
        -11   -1    0    0    0    0  0.00000000000E+00  0.00000000000E+00  0.45593999997E+02  0.45594000000E+02  0.51100000000E-03 0.  1.
         11   -1    0    0    0    0 -0.00000000000E+00 -0.00000000000E+00 -0.45593999997E+02  0.45594000000E+02  0.51100000000E-03 0. -1.
    9900012    2    1    2    0    0 -0.38933567691E+01  0.17094766792E+02 -0.26633277798E+02  0.59301940900E+02  0.49999994297E+02 0.  0.
        -12    1    1    2    0    0  0.38933567691E+01 -0.17094766792E+02  0.26633277798E+02  0.31886059100E+02  0.00000000000E+00 0.  1.
         11    1    3    3    0    0 -0.10442000576E+02  0.32074466615E+01 -0.33821748540E+02  0.35542000009E+02  0.51100000000E-03 0. -1.
        -11    1    3    3    0    0  0.15113072120E+01  0.46673158620E+01  0.11423321495E+02  0.12432222693E+02  0.51100000000E-03 0.  1.
         12    1    3    3    0    0  0.50373365947E+01  0.92200042688E+01 -0.42348507535E+01  0.11327718199E+02  0.00000000000E+00 0. -1.
</event>
<event>
 7    1  0.5761011E-013  0.5930194E+02  0.7816164E-02  0.1266605E+00
        -11   -1    0    0    0    0  0.00000000000E+00  0.00000000000E+00  0.45593999997E+02  0.45594000000E+02  0.51100000000E-03 0. -1.
         11   -1    0    0    0    0 -0.00000000000E+00 -0.00000000000E+00 -0.45593999997E+02  0.45594000000E+02  0.51100000000E-03 0.  1.
    9900012    2    1    2    0    0 -0.16355880199E+02  0.13780350880E+02  0.23649685855E+02  0.59301944608E+02  0.50000001058E+02 0.  0.
        -12    1    1    2    0    0  0.16355880199E+02 -0.13780350880E+02 -0.23649685855E+02  0.31886055392E+02  0.00000000000E+00 0.  1.
         11    1    3    3    0    0  0.78954737850E+01  0.21079249383E+02  0.24996754290E+02  0.33637939683E+02  0.51100000000E-03 0. -1.
        -11    1    3    3    0    0 -0.15293734243E+02 -0.53187330017E+01 -0.26181240095E+01  0.16402493756E+02  0.51100000000E-03 0.  1.
         12    1    3    3    0    0 -0.89576197415E+01 -0.19801655017E+01  0.12710555741E+01  0.92615111683E+01  0.00000000000E+00 0. -1.
</event>
<event>
 7    1  0.5761011E-013  0.5930196E+02  0.7816164E-02  0.1266605E+00
        -11   -1    0    0    0    0  0.00000000000E+00  0.00000000000E+00  0.45593999997E+02  0.45594000000E+02  0.51100000000E-03 0.  1.
         11   -1    0    0    0    0 -0.00000000000E+00 -0.00000000000E+00 -0.45593999997E+02  0.45594000000E+02  0.51100000000E-03 0. -1.
    9900012    2    1    2    0    0 -0.30600989793E+02  0.87495565384E+01 -0.19350323371E+01  0.59301958131E+02  0.50000025721E+02 0.  0.
        -12    1    1    2    0    0  0.30600989793E+02 -0.87495565384E+01  0.19350323371E+01  0.31886041869E+02  0.00000000000E+00 0.  1.
         11    1    3    3    0    0 -0.27129082768E+01 -0.15113735951E+02 -0.94661863139E+01  0.18038668723E+02  0.51100000000E-03 0. -1.
        -11    1    3    3    0    0 -0.13493119651E+02  0.21609287605E+02  0.15815780130E+01  0.25525026503E+02  0.51100000000E-03 0.  1.
         12    1    3    3    0    0 -0.14394961865E+02  0.22540048845E+01  0.59495759637E+01  0.15738262905E+02  0.00000000000E+00 0. -1.
</event>
<event>
 7    1  0.5761011E-013  0.5930195E+02  0.7816164E-02  0.1266605E+00
        -11   -1    0    0    0    0  0.00000000000E+00  0.00000000000E+00  0.45593999997E+02  0.45594000000E+02  0.51100000000E-03 0. -1.
         11   -1    0    0    0    0 -0.00000000000E+00 -0.00000000000E+00 -0.45593999997E+02  0.45594000000E+02  0.51100000000E-03 0.  1.
    9900012    2    1    2    0    0 -0.10057343431E+02  0.28052727838E+02 -0.11340820887E+02  0.59301954237E+02  0.50000018619E+02 0.  0.
        -12    1    1    2    0    0  0.10057343431E+02 -0.28052727838E+02  0.11340820887E+02  0.31886045763E+02  0.00000000000E+00 0.  1.
         11    1    3    3    0    0 -0.12716711429E+02  0.68546798450E+01 -0.87991005315E+01  0.16915246252E+02  0.51100000000E-03 0. -1.
        -11    1    3    3    0    0  0.17052883034E+02  0.19078211787E+02 -0.80577638497E+01  0.26827346929E+02  0.51100000000E-03 0.  1.
        -12    1    3    3    0    0 -0.14393515036E+02  0.21198362057E+01  0.55160434940E+01  0.15559361055E+02  0.00000000000E+00 0.  1.
</event>
<event>
 7    1  0.5761011E-013  0.5930194E+02  0.7816164E-02  0.1266605E+00
        -11   -1    0    0    0    0  0.00000000000E+00  0.00000000000E+00  0.45593999997E+02  0.45594000000E+02  0.51100000000E-03 0. -1.
         11   -1    0    0    0    0 -0.00000000000E+00 -0.00000000000E+00 -0.45593999997E+02  0.45594000000E+02  0.51100000000E-03 0.  1.
    9900012    2    1    2    0    0  0.21884546208E+02 -0.17650431587E+02  0.15041598916E+02  0.59301940414E+02  0.49999993410E+02 0.  0.
        -12    1    1    2    0    0 -0.21884546208E+02  0.17650431587E+02 -0.15041598916E+02  0.31886059586E+02  0.00000000000E+00 0.  1.
         11    1    3    3    0    0  0.22400082371E+02 -0.43716333616E+01  0.27613430925E+02  0.35824243693E+02  0.51100000000E-03 0. -1.
        -11    1    3    3    0    0 -0.40789744228E+01 -0.36333183517E+01 -0.11993365146E+02  0.13178764827E+02  0.51100000000E-03 0.  1.
         12    1    3    3    0    0  0.35634382605E+01 -0.96454798742E+01 -0.57846686374E+00  0.10298931894E+02  0.00000000000E+00 0. -1.
</event>
<event>
 7    1  0.5761011E-013  0.5930195E+02  0.7816164E-02  0.1266605E+00
        -11   -1    0    0    0    0  0.00000000000E+00  0.00000000000E+00  0.45593999997E+02  0.45594000000E+02  0.51100000000E-03 0.  1.
         11   -1    0    0    0    0 -0.00000000000E+00 -0.00000000000E+00 -0.45593999997E+02  0.45594000000E+02  0.51100000000E-03 0. -1.
    9900012    2    1    2    0    0 -0.20921055690E+01 -0.29825591142E+02 -0.11080502750E+02  0.59301947659E+02  0.50000006622E+02 0.  0.
        -12    1    1    2    0    0  0.20921055690E+01  0.29825591142E+02  0.11080502750E+02  0.31886052341E+02  0.00000000000E+00 0.  1.
         11    1    3    3    0    0 -0.13387216914E+02  0.15387579174E+01 -0.28287104972E+01  0.13769057919E+02  0.51100000000E-03 0. -1.
        -11    1    3    3    0    0  0.12399684714E+02 -0.17533966538E+02  0.90934069736E+01  0.23321282431E+02  0.51100000000E-03 0.  1.
         12    1    3    3    0    0 -0.11045733691E+01 -0.13830382522E+02 -0.17345199227E+02  0.22211607309E+02  0.00000000000E+00 0. -1.
</event>
<event>
 7    1  0.5761011E-013  0.5930187E+02  0.7816164E-02  0.1266605E+00
        -11   -1    0    0    0    0  0.00000000000E+00  0.00000000000E+00  0.45593999997E+02  0.45594000000E+02  0.51100000000E-03 0.  1.
         11   -1    0    0    0    0 -0.00000000000E+00 -0.00000000000E+00 -0.45593999997E+02  0.45594000000E+02  0.51100000000E-03 0. -1.
    9900012    2    1    2    0    0 -0.48600714900E+01  0.31528057665E+01 -0.31355461529E+02  0.59301867484E+02  0.49999860403E+02 0.  0.
        -12    1    1    2    0    0  0.48600714900E+01 -0.31528057665E+01  0.31355461529E+02  0.31886132516E+02  0.00000000000E+00 0.  1.
         11    1    3    3    0    0  0.69203086713E+01 -0.11638315638E+02 -0.24288828775E+01  0.13756472487E+02  0.51100000000E-03 0. -1.
        -11    1    3    3    0    0 -0.14756879877E+02  0.17365249476E+02 -0.78471075184E+01  0.24101752835E+02  0.51100000000E-03 0.  1.
        -12    1    3    3    0    0  0.29764997153E+01 -0.25741280717E+01 -0.21079471134E+02  0.21443642162E+02  0.00000000000E+00 0.  1.
</event>
<event>
 7    1  0.5761011E-013  0.5930194E+02  0.7816164E-02  0.1266605E+00
        -11   -1    0    0    0    0  0.00000000000E+00  0.00000000000E+00  0.45593999997E+02  0.45594000000E+02  0.51100000000E-03 0.  1.
         11   -1    0    0    0    0 -0.00000000000E+00 -0.00000000000E+00 -0.45593999997E+02  0.45594000000E+02  0.51100000000E-03 0. -1.
    9900012    2    1    2    0    0 -0.55529857515E+01 -0.24258608814E+02 -0.19935019032E+02  0.59301941351E+02  0.49999995119E+02 0.  0.
        -12    1    1    2    0    0  0.55529857515E+01  0.24258608814E+02  0.19935019032E+02  0.31886058649E+02  0.00000000000E+00 0.  1.
         11    1    3    3    0    0 -0.28340615868E+00 -0.37073369731E+02 -0.57136481012E+01  0.37512142529E+02  0.51100000000E-03 0.  1.
        -11    1    3    3    0    0 -0.29257804688E+01  0.13679107744E+02 -0.11645425883E+02  0.18201486870E+02  0.51100000000E-03 0. -1.
        -12    1    3    3    0    0 -0.23437991240E+01 -0.86434682723E+00 -0.25759450479E+01  0.35883119515E+01  0.00000000000E+00 0.  1.
</event>
<event>
 7    1  0.5761011E-013  0.5930193E+02  0.7816164E-02  0.1266605E+00
        -11   -1    0    0    0    0  0.00000000000E+00  0.00000000000E+00  0.45593999997E+02  0.45594000000E+02  0.51100000000E-03 0. -1.
         11   -1    0    0    0    0 -0.00000000000E+00 -0.00000000000E+00 -0.45593999997E+02  0.45594000000E+02  0.51100000000E-03 0.  1.
    9900012    2    1    2    0    0  0.85817390963E+01  0.18200026548E+02  0.24735278145E+02  0.59301934122E+02  0.49999981934E+02 0.  0.
        -12    1    1    2    0    0 -0.85817390963E+01 -0.18200026548E+02 -0.24735278145E+02  0.31886065878E+02  0.00000000000E+00 0.  1.
         11    1    3    3    0    0 -0.41976969855E+01  0.85664753973E+01  0.11519914170E+02  0.14957057981E+02  0.51100000000E-03 0. -1.
        -11    1    3    3    0    0  0.21677502843E+02 -0.73768114874E+01  0.95041970479E+01  0.24792362514E+02  0.51100000000E-03 0.  1.
        -12    1    3    3    0    0 -0.88980667612E+01  0.17010362638E+02  0.37111669276E+01  0.19552513627E+02  0.00000000000E+00 0.  1.
</event>
<event>
 7    1  0.5761011E-013  0.5930193E+02  0.7816164E-02  0.1266605E+00
        -11   -1    0    0    0    0  0.00000000000E+00  0.00000000000E+00  0.45593999997E+02  0.45594000000E+02  0.51100000000E-03 0. -1.
         11   -1    0    0    0    0 -0.00000000000E+00 -0.00000000000E+00 -0.45593999997E+02  0.45594000000E+02  0.51100000000E-03 0.  1.
    9900012    2    1    2    0    0 -0.27678820529E+02 -0.37046461854E+01  0.15390897416E+02  0.59301933568E+02  0.49999980924E+02 0.  0.
        -12    1    1    2    0    0  0.27678820529E+02  0.37046461854E+01 -0.15390897416E+02  0.31886066432E+02  0.00000000000E+00 0.  1.
         11    1    3    3    0    0 -0.20667409251E+02 -0.83104602560E+01  0.31530866956E+02  0.38605713645E+02  0.51100000000E-03 0. -1.
        -11    1    3    3    0    0 -0.87310700462E+01  0.51059075093E+01 -0.97078133298E+01  0.14019397831E+02  0.51100000000E-03 0.  1.
         12    1    3    3    0    0  0.17196587682E+01 -0.50009343868E+00 -0.64321562101E+01  0.66768220912E+01  0.00000000000E+00 0. -1.
</event>
<event>
 7    1  0.5761011E-013  0.5930195E+02  0.7816164E-02  0.1266605E+00
        -11   -1    0    0    0    0  0.00000000000E+00  0.00000000000E+00  0.45593999997E+02  0.45594000000E+02  0.51100000000E-03 0.  1.
         11   -1    0    0    0    0 -0.00000000000E+00 -0.00000000000E+00 -0.45593999997E+02  0.45594000000E+02  0.51100000000E-03 0. -1.
    9900012    2    1    2    0    0 -0.16320027597E+02 -0.13286105942E+02 -0.23955296269E+02  0.59301950837E+02  0.50000012419E+02 0.  0.
        -12    1    1    2    0    0  0.16320027597E+02  0.13286105942E+02  0.23955296269E+02  0.31886049163E+02  0.00000000000E+00 0.  1.
         11    1    3    3    0    0  0.57963518766E+01 -0.19436295654E+02 -0.16985942096E+02  0.26455425020E+02  0.51100000000E-03 0. -1.
        -11    1    3    3    0    0 -0.20270370745E+01  0.45776101345E+01  0.67974107526E+01  0.84420487469E+01  0.51100000000E-03 0.  1.
         12    1    3    3    0    0 -0.20089342399E+02  0.15725795775E+01 -0.13766764925E+02  0.24404477070E+02  0.00000000000E+00 0. -1.
</event>
<event>
 7    1  0.5761011E-013  0.5930193E+02  0.7816164E-02  0.1266605E+00
        -11   -1    0    0    0    0  0.00000000000E+00  0.00000000000E+00  0.45593999997E+02  0.45594000000E+02  0.51100000000E-03 0. -1.
         11   -1    0    0    0    0 -0.00000000000E+00 -0.00000000000E+00 -0.45593999997E+02  0.45594000000E+02  0.51100000000E-03 0.  1.
    9900012    2    1    2    0    0  0.24803054891E+01 -0.12384048609E+02  0.29278062072E+02  0.59301929468E+02  0.49999973447E+02 0.  0.
        -12    1    1    2    0    0 -0.24803054891E+01  0.12384048609E+02 -0.29278062072E+02  0.31886070532E+02  0.00000000000E+00 0.  1.
         11    1    3    3    0    0 -0.16195069325E+02 -0.13161581684E+02  0.20792563452E+02  0.29459093639E+02  0.51100000000E-03 0.  1.
        -11    1    3    3    0    0  0.52077850975E+01 -0.32081184482E+01 -0.67582720021E+01  0.91152229986E+01  0.51100000000E-03 0. -1.
         12    1    3    3    0    0  0.13467589717E+02  0.39856515236E+01  0.15243770622E+02  0.20727612830E+02  0.00000000000E+00 0. -1.
</event>
<event>
 7    1  0.5761011E-013  0.5930195E+02  0.7816164E-02  0.1266605E+00
        -11   -1    0    0    0    0  0.00000000000E+00  0.00000000000E+00  0.45593999997E+02  0.45594000000E+02  0.51100000000E-03 0.  1.
         11   -1    0    0    0    0 -0.00000000000E+00 -0.00000000000E+00 -0.45593999997E+02  0.45594000000E+02  0.51100000000E-03 0. -1.
    9900012    2    1    2    0    0 -0.31441617018E+02 -0.53051603618E+01 -0.17660584413E-01  0.59301947891E+02  0.50000007046E+02 0.  0.
        -12    1    1    2    0    0  0.31441617018E+02  0.53051603618E+01  0.17660584413E-01  0.31886052109E+02  0.00000000000E+00 0.  1.
         11    1    3    3    0    0 -0.27835827670E+02  0.14083239880E+02 -0.18960354088E+01  0.31253254200E+02  0.51100000000E-03 0. -1.
        -11    1    3    3    0    0 -0.10951844749E+02 -0.14076332377E+02  0.48949747598E+01  0.18494507691E+02  0.51100000000E-03 0.  1.
         12    1    3    3    0    0  0.73460554001E+01 -0.53120678649E+01 -0.30165999354E+01  0.95541859995E+01  0.00000000000E+00 0. -1.
</event>
<event>
 7    1  0.5761011E-013  0.5930193E+02  0.7816164E-02  0.1266605E+00
        -11   -1    0    0    0    0  0.00000000000E+00  0.00000000000E+00  0.45593999997E+02  0.45594000000E+02  0.51100000000E-03 0.  1.
         11   -1    0    0    0    0 -0.00000000000E+00 -0.00000000000E+00 -0.45593999997E+02  0.45594000000E+02  0.51100000000E-03 0. -1.
    9900012    2    1    2    0    0  0.25981261586E+02 -0.37119660626E+01 -0.18108476330E+02  0.59301928422E+02  0.49999971540E+02 0.  0.
        -12    1    1    2    0    0 -0.25981261586E+02  0.37119660626E+01  0.18108476330E+02  0.31886071578E+02  0.00000000000E+00 0.  1.
         11    1    3    3    0    0 -0.32803244040E+01 -0.41966417742E+01 -0.40392272257E+01  0.66848849817E+01  0.51100000000E-03 0. -1.
        -11    1    3    3    0    0  0.32230986705E+02  0.14976426633E+01 -0.25271024037E+02  0.40984193218E+02  0.51100000000E-03 0.  1.
        -12    1    3    3    0    0 -0.29694007151E+01 -0.10129669517E+01  0.11201774933E+02  0.11632850223E+02  0.00000000000E+00 0.  1.
</event>
<event>
 7    1  0.5761011E-013  0.5930194E+02  0.7816164E-02  0.1266605E+00
        -11   -1    0    0    0    0  0.00000000000E+00  0.00000000000E+00  0.45593999997E+02  0.45594000000E+02  0.51100000000E-03 0.  1.
         11   -1    0    0    0    0 -0.00000000000E+00 -0.00000000000E+00 -0.45593999997E+02  0.45594000000E+02  0.51100000000E-03 0. -1.
    9900012    2    1    2    0    0 -0.17178303177E+02 -0.21630702322E+02 -0.15929204343E+02  0.59301938248E+02  0.49999989460E+02 0.  0.
        -12    1    1    2    0    0  0.17178303177E+02  0.21630702322E+02  0.15929204343E+02  0.31886061752E+02  0.00000000000E+00 0.  1.
         11    1    3    3    0    0 -0.78057715337E+00  0.63870929815E+01  0.13671958357E+02  0.15110483216E+02  0.51100000000E-03 0.  1.
        -11    1    3    3    0    0 -0.14152420315E+02 -0.21337040028E+02 -0.21329070047E+02  0.33324007971E+02  0.51100000000E-03 0. -1.
         12    1    3    3    0    0 -0.22453057095E+01 -0.66807552759E+01 -0.82720926523E+01  0.10867447062E+02  0.00000000000E+00 0. -1.
</event>
<event>
 7    1  0.5761011E-013  0.5930191E+02  0.7816164E-02  0.1266605E+00
        -11   -1    0    0    0    0  0.00000000000E+00  0.00000000000E+00  0.45593999997E+02  0.45594000000E+02  0.51100000000E-03 0.  1.
         11   -1    0    0    0    0 -0.00000000000E+00 -0.00000000000E+00 -0.45593999997E+02  0.45594000000E+02  0.51100000000E-03 0. -1.
    9900012    2    1    2    0    0 -0.16565414415E+02 -0.19964126505E+02 -0.18540326089E+02  0.59301905957E+02  0.49999930568E+02 0.  0.
        -12    1    1    2    0    0  0.16565414415E+02  0.19964126505E+02  0.18540326089E+02  0.31886094043E+02  0.00000000000E+00 0.  1.
         11    1    3    3    0    0 -0.26966195279E+02 -0.19853708423E+02 -0.56139000366E+01  0.33953811271E+02  0.51100000000E-03 0. -1.
        -11    1    3    3    0    0  0.10776865466E+02  0.81644105050E+01 -0.79122018749E+01  0.15665291792E+02  0.51100000000E-03 0.  1.
        -12    1    3    3    0    0 -0.37608460180E+00 -0.82748285877E+01 -0.50142241771E+01  0.96828028938E+01  0.00000000000E+00 0.  1.
</event>
<event>
 7    1  0.5761011E-013  0.5930196E+02  0.7816164E-02  0.1266605E+00
        -11   -1    0    0    0    0  0.00000000000E+00  0.00000000000E+00  0.45593999997E+02  0.45594000000E+02  0.51100000000E-03 0. -1.
         11   -1    0    0    0    0 -0.00000000000E+00 -0.00000000000E+00 -0.45593999997E+02  0.45594000000E+02  0.51100000000E-03 0.  1.
    9900012    2    1    2    0    0 -0.29269553568E+02 -0.70488543787E+00  0.12629963603E+02  0.59301959007E+02  0.50000027320E+02 0.  0.
        -12    1    1    2    0    0  0.29269553568E+02  0.70488543787E+00 -0.12629963603E+02  0.31886040993E+02  0.00000000000E+00 0.  1.
         11    1    3    3    0    0 -0.28740815865E+01 -0.88610044180E+01  0.65148189707E+01  0.11367524389E+02  0.51100000000E-03 0. -1.
        -11    1    3    3    0    0 -0.27441888291E+02 -0.83609673725E+00 -0.10190016092E+02  0.29284684034E+02  0.51100000000E-03 0.  1.
        -12    1    3    3    0    0  0.10464163092E+01  0.89922157174E+01  0.16305160725E+02  0.18649750585E+02  0.00000000000E+00 0.  1.
</event>
<event>
 7    1  0.5761011E-013  0.5930194E+02  0.7816164E-02  0.1266605E+00
        -11   -1    0    0    0    0  0.00000000000E+00  0.00000000000E+00  0.45593999997E+02  0.45594000000E+02  0.51100000000E-03 0.  1.
         11   -1    0    0    0    0 -0.00000000000E+00 -0.00000000000E+00 -0.45593999997E+02  0.45594000000E+02  0.51100000000E-03 0. -1.
    9900012    2    1    2    0    0  0.88175396449E+01  0.26391282495E+02 -0.15571506194E+02  0.59301943451E+02  0.49999998947E+02 0.  0.
        -12    1    1    2    0    0 -0.88175396449E+01 -0.26391282495E+02  0.15571506194E+02  0.31886056549E+02  0.00000000000E+00 0.  1.
         11    1    3    3    0    0  0.84428392727E+01  0.97469101593E+01 -0.31535861815E+02  0.34070432538E+02  0.51100000000E-03 0. -1.
        -11    1    3    3    0    0 -0.18813322732E+01  0.16161428218E+02  0.10672279067E+02  0.19458384154E+02  0.51100000000E-03 0.  1.
         12    1    3    3    0    0  0.22560326454E+01  0.48294411805E+00  0.52920765539E+01  0.57731267586E+01  0.00000000000E+00 0. -1.
</event>
<event>
 7    1  0.5761011E-013  0.5930196E+02  0.7816164E-02  0.1266605E+00
        -11   -1    0    0    0    0  0.00000000000E+00  0.00000000000E+00  0.45593999997E+02  0.45594000000E+02  0.51100000000E-03 0. -1.
         11   -1    0    0    0    0 -0.00000000000E+00 -0.00000000000E+00 -0.45593999997E+02  0.45594000000E+02  0.51100000000E-03 0.  1.
    9900012    2    1    2    0    0 -0.28245960459E+02 -0.23149061797E+01  0.14612543611E+02  0.59301960678E+02  0.50000030366E+02 0.  0.
        -12    1    1    2    0    0  0.28245960459E+02  0.23149061797E+01 -0.14612543611E+02  0.31886039322E+02  0.00000000000E+00 0.  1.
         11    1    3    3    0    0 -0.25384985891E+02  0.69860984916E+01  0.78208714241E+01  0.27465780727E+02  0.51100000000E-03 0. -1.
        -11    1    3    3    0    0  0.63895502311E+01 -0.46326273568E+01  0.16085340505E+02  0.17917191962E+02  0.51100000000E-03 0.  1.
        -12    1    3    3    0    0 -0.92505247989E+01 -0.46683773145E+01 -0.92936683186E+01  0.13918987988E+02  0.00000000000E+00 0.  1.
</event>
<event>
 7    1  0.5761011E-013  0.5930198E+02  0.7816164E-02  0.1266605E+00
        -11   -1    0    0    0    0  0.00000000000E+00  0.00000000000E+00  0.45593999997E+02  0.45594000000E+02  0.51100000000E-03 0.  1.
         11   -1    0    0    0    0 -0.00000000000E+00 -0.00000000000E+00 -0.45593999997E+02  0.45594000000E+02  0.51100000000E-03 0. -1.
    9900012    2    1    2    0    0 -0.20296647909E+02  0.24569369627E+02  0.10537346649E+01  0.59301981168E+02  0.50000067734E+02 0.  0.
        -12    1    1    2    0    0  0.20296647909E+02 -0.24569369627E+02 -0.10537346649E+01  0.31886018832E+02  0.00000000000E+00 0.  1.
         11    1    3    3    0    0 -0.89013990978E+01  0.20569983401E+02 -0.83125132425E+01  0.23905166799E+02  0.51100000000E-03 0. -1.
        -11    1    3    3    0    0 -0.27775615000E+01 -0.13833714760E+02  0.58809489702E+01  0.15286336153E+02  0.51100000000E-03 0.  1.
        -12    1    3    3    0    0 -0.86176873115E+01  0.17833100986E+02  0.34852989372E+01  0.20110478216E+02  0.00000000000E+00 0.  1.
</event>
<event>
 7    1  0.5761011E-013  0.5930195E+02  0.7816164E-02  0.1266605E+00
        -11   -1    0    0    0    0  0.00000000000E+00  0.00000000000E+00  0.45593999997E+02  0.45594000000E+02  0.51100000000E-03 0.  1.
         11   -1    0    0    0    0 -0.00000000000E+00 -0.00000000000E+00 -0.45593999997E+02  0.45594000000E+02  0.51100000000E-03 0. -1.
    9900012    2    1    2    0    0  0.29806077112E+02  0.49633923211E+01 -0.10182481023E+02  0.59301946373E+02  0.50000004278E+02 0.  0.
        -12    1    1    2    0    0 -0.29806077112E+02 -0.49633923211E+01  0.10182481023E+02  0.31886053627E+02  0.00000000000E+00 0.  1.
         11    1    3    3    0    0  0.32392694676E+02 -0.22664434084E+01 -0.38536637667E+01  0.32699757778E+02  0.51100000000E-03 0. -1.
        -11    1    3    3    0    0 -0.11261147191E+02 -0.33258665761E+01 -0.51318788114E+00  0.11753220266E+02  0.51100000000E-03 0.  1.
         12    1    3    3    0    0  0.86745296273E+01  0.10555702306E+02 -0.58156293747E+01  0.14848968329E+02  0.00000000000E+00 0. -1.
</event>
<event>
 7    1  0.5761011E-013  0.5930197E+02  0.7816164E-02  0.1266605E+00
        -11   -1    0    0    0    0  0.00000000000E+00  0.00000000000E+00  0.45593999997E+02  0.45594000000E+02  0.51100000000E-03 0.  1.
         11   -1    0    0    0    0 -0.00000000000E+00 -0.00000000000E+00 -0.45593999997E+02  0.45594000000E+02  0.51100000000E-03 0. -1.
    9900012    2    1    2    0    0  0.17130455088E+02 -0.56724920654E+01 -0.26288582255E+02  0.59301965208E+02  0.50000038628E+02 0.  0.
        -12    1    1    2    0    0 -0.17130455088E+02  0.56724920654E+01  0.26288582255E+02  0.31886034792E+02  0.00000000000E+00 0.  1.
         11    1    3    3    0    0  0.10845390938E+02 -0.18827890571E+02 -0.31587233126E+02  0.38338821901E+02  0.51100000000E-03 0. -1.
        -11    1    3    3    0    0  0.81048124061E+01  0.42549008181E+01 -0.19281273038E+01  0.93546694367E+01  0.51100000000E-03 0.  1.
         12    1    3    3    0    0 -0.18197482554E+01  0.89004976875E+01  0.72267781753E+01  0.11608473870E+02  0.00000000000E+00 0. -1.
</event>
<event>
 7    1  0.5761011E-013  0.5930201E+02  0.7816164E-02  0.1266605E+00
        -11   -1    0    0    0    0  0.00000000000E+00  0.00000000000E+00  0.45593999997E+02  0.45594000000E+02  0.51100000000E-03 0. -1.
         11   -1    0    0    0    0 -0.00000000000E+00 -0.00000000000E+00 -0.45593999997E+02  0.45594000000E+02  0.51100000000E-03 0.  1.
    9900012    2    1    2    0    0  0.12158922929E+02 -0.23848033428E+02  0.17324779233E+02  0.59302014354E+02  0.50000128257E+02 0.  0.
        -12    1    1    2    0    0 -0.12158922929E+02  0.23848033428E+02 -0.17324779233E+02  0.31885985646E+02  0.00000000000E+00 0.  1.
         11    1    3    3    0    0 -0.10844716832E+02 -0.10876478938E+02  0.70827433460E+01  0.16913631509E+02  0.51100000000E-03 0. -1.
        -11    1    3    3    0    0  0.19406131626E+02 -0.26291303013E+01 -0.79657182762E+01  0.21141498025E+02  0.51100000000E-03 0.  1.
        -12    1    3    3    0    0  0.35975081345E+01 -0.10342424189E+02  0.18207754163E+02  0.21246884820E+02  0.00000000000E+00 0.  1.
</event>
<event>
 7    1  0.5761011E-013  0.5930199E+02  0.7816164E-02  0.1266605E+00
        -11   -1    0    0    0    0  0.00000000000E+00  0.00000000000E+00  0.45593999997E+02  0.45594000000E+02  0.51100000000E-03 0. -1.
         11   -1    0    0    0    0 -0.00000000000E+00 -0.00000000000E+00 -0.45593999997E+02  0.45594000000E+02  0.51100000000E-03 0.  1.
    9900012    2    1    2    0    0  0.24419036538E+02 -0.81590408135E+01  0.18811129544E+02  0.59301986026E+02  0.50000076594E+02 0.  0.
        -12    1    1    2    0    0 -0.24419036538E+02  0.81590408135E+01 -0.18811129544E+02  0.31886013974E+02  0.00000000000E+00 0.  1.
         11    1    3    3    0    0 -0.80496003454E+00  0.79260471760E+01 -0.89205474843E+01  0.11960198668E+02  0.51100000000E-03 0. -1.
        -11    1    3    3    0    0  0.18101248685E+02 -0.33732451498E+01  0.27091433961E+02  0.32756370085E+02  0.51100000000E-03 0.  1.
        -12    1    3    3    0    0  0.71227478875E+01 -0.12711842840E+02  0.64024306759E+00  0.14585417273E+02  0.00000000000E+00 0.  1.
</event>
<event>
 7    1  0.5761011E-013  0.5930196E+02  0.7816164E-02  0.1266605E+00
        -11   -1    0    0    0    0  0.00000000000E+00  0.00000000000E+00  0.45593999997E+02  0.45594000000E+02  0.51100000000E-03 0.  1.
         11   -1    0    0    0    0 -0.00000000000E+00 -0.00000000000E+00 -0.45593999997E+02  0.45594000000E+02  0.51100000000E-03 0. -1.
    9900012    2    1    2    0    0 -0.67214948751E+01  0.11679135028E+02 -0.28898774070E+02  0.59301955543E+02  0.50000021002E+02 0.  0.
        -12    1    1    2    0    0  0.67214948751E+01 -0.11679135028E+02  0.28898774070E+02  0.31886044457E+02  0.00000000000E+00 0.  1.
         11    1    3    3    0    0  0.16508019388E+02  0.26731249959E+01 -0.17659412802E+02  0.24321084724E+02  0.51100000000E-03 0. -1.
        -11    1    3    3    0    0 -0.16036104374E+02 -0.52109572205E+01 -0.33088453593E+01  0.17183107301E+02  0.51100000000E-03 0.  1.
         12    1    3    3    0    0 -0.71934098893E+01  0.14216967252E+02 -0.79305159088E+01  0.17797763519E+02  0.00000000000E+00 0. -1.
</event>
<event>
 7    1  0.5761011E-013  0.5930204E+02  0.7816164E-02  0.1266604E+00
        -11   -1    0    0    0    0  0.00000000000E+00  0.00000000000E+00  0.45593999997E+02  0.45594000000E+02  0.51100000000E-03 0. -1.
         11   -1    0    0    0    0 -0.00000000000E+00 -0.00000000000E+00 -0.45593999997E+02  0.45594000000E+02  0.51100000000E-03 0.  1.
    9900012    2    1    2    0    0 -0.26289561339E+02 -0.14672964996E+02  0.10501319394E+02  0.59302036847E+02  0.50000169280E+02 0.  0.
        -12    1    1    2    0    0  0.26289561339E+02  0.14672964996E+02 -0.10501319394E+02  0.31885963153E+02  0.00000000000E+00 0.  1.
         11    1    3    3    0    0 -0.12441861335E+02 -0.18664897355E+02  0.34534082388E+01  0.22695910104E+02  0.51100000000E-03 0. -1.
        -11    1    3    3    0    0 -0.92404081073E+01  0.16079929845E+02  0.12711888722E+02  0.22484247841E+02  0.51100000000E-03 0.  1.
        -12    1    3    3    0    0 -0.46072918970E+01 -0.12087997486E+02 -0.56639775671E+01  0.14121878902E+02  0.00000000000E+00 0.  1.
</event>
<event>
 7    1  0.5761011E-013  0.5930213E+02  0.7816164E-02  0.1266604E+00
        -11   -1    0    0    0    0  0.00000000000E+00  0.00000000000E+00  0.45593999997E+02  0.45594000000E+02  0.51100000000E-03 0.  1.
         11   -1    0    0    0    0 -0.00000000000E+00 -0.00000000000E+00 -0.45593999997E+02  0.45594000000E+02  0.51100000000E-03 0. -1.
    9900012    2    1    2    0    0 -0.78750870194E+01  0.29473207931E+02 -0.92747964011E+01  0.59302128056E+02  0.50000335623E+02 0.  0.
        -12    1    1    2    0    0  0.78750870194E+01 -0.29473207931E+02  0.92747964011E+01  0.31885871944E+02  0.00000000000E+00 0.  1.
         11    1    3    3    0    0 -0.18770158286E+02  0.87987050697E+01  0.63374030514E-01  0.20730172925E+02  0.51100000000E-03 0. -1.
        -11    1    3    3    0    0  0.17003672878E+02  0.15126238191E+02  0.37842043041E+01  0.23070504451E+02  0.51100000000E-03 0.  1.
        -12    1    3    3    0    0 -0.61086016115E+01  0.55482646705E+01 -0.13122374736E+02  0.15501450681E+02  0.00000000000E+00 0.  1.
</event>
<event>
 7    1  0.5761011E-013  0.5930210E+02  0.7816164E-02  0.1266604E+00
        -11   -1    0    0    0    0  0.00000000000E+00  0.00000000000E+00  0.45593999997E+02  0.45594000000E+02  0.51100000000E-03 0.  1.
         11   -1    0    0    0    0 -0.00000000000E+00 -0.00000000000E+00 -0.45593999997E+02  0.45594000000E+02  0.51100000000E-03 0. -1.
    9900012    2    1    2    0    0 -0.12951534181E+02  0.41118396319E+01 -0.28845472981E+02  0.59302097562E+02  0.50000280009E+02 0.  0.
        -12    1    1    2    0    0  0.12951534181E+02 -0.41118396319E+01  0.28845472981E+02  0.31885902438E+02  0.00000000000E+00 0.  1.
         11    1    3    3    0    0  0.90255222043E+01 -0.44429756712E+01 -0.18203449122E+02  0.20798212521E+02  0.51100000000E-03 0. -1.
        -11    1    3    3    0    0 -0.22756994314E+02  0.14288771784E+02 -0.15436251947E+02  0.30989153970E+02  0.51100000000E-03 0.  1.
        -12    1    3    3    0    0  0.77993792935E+00 -0.57339564813E+01  0.47942280883E+01  0.75147310707E+01  0.00000000000E+00 0.  1.
</event>
<event>
 7    1  0.5761011E-013  0.5930190E+02  0.7816164E-02  0.1266605E+00
        -11   -1    0    0    0    0  0.00000000000E+00  0.00000000000E+00  0.45593999997E+02  0.45594000000E+02  0.51100000000E-03 0. -1.
         11   -1    0    0    0    0 -0.00000000000E+00 -0.00000000000E+00 -0.45593999997E+02  0.45594000000E+02  0.51100000000E-03 0.  1.
    9900012    2    1    2    0    0 -0.94751497298E+01  0.29466513652E+02  0.76596039876E+01  0.59301899228E+02  0.49999918297E+02 0.  0.
        -12    1    1    2    0    0  0.94751497298E+01 -0.29466513652E+02 -0.76596039876E+01  0.31886100772E+02  0.00000000000E+00 0.  1.
         11    1    3    3    0    0 -0.18468755395E+02  0.34332431045E+02  0.72490841435E+01  0.39652994445E+02  0.51100000000E-03 0. -1.
        -11    1    3    3    0    0  0.86231256996E+01 -0.73080194178E+01 -0.59870789034E+01  0.12791034309E+02  0.51100000000E-03 0.  1.
         12    1    3    3    0    0  0.37047996549E+00  0.24421020242E+01  0.63975987475E+01  0.68578704738E+01  0.00000000000E+00 0. -1.
</event>
<event>
 7    1  0.5761011E-013  0.5930195E+02  0.7816164E-02  0.1266605E+00
        -11   -1    0    0    0    0  0.00000000000E+00  0.00000000000E+00  0.45593999997E+02  0.45594000000E+02  0.51100000000E-03 0. -1.
         11   -1    0    0    0    0 -0.00000000000E+00 -0.00000000000E+00 -0.45593999997E+02  0.45594000000E+02  0.51100000000E-03 0.  1.
    9900012    2    1    2    0    0  0.16878483310E+02  0.18261281490E+02  0.19959022586E+02  0.59301950023E+02  0.50000010935E+02 0.  0.
        -12    1    1    2    0    0 -0.16878483310E+02 -0.18261281490E+02 -0.19959022586E+02  0.31886049977E+02  0.00000000000E+00 0.  1.
         11    1    3    3    0    0  0.95110785122E+01  0.16183835435E+02  0.20251159154E+02  0.27613159747E+02  0.51100000000E-03 0. -1.
        -11    1    3    3    0    0 -0.40024450110E+01  0.72614298294E+01 -0.11986192596E+02  0.14574523747E+02  0.51100000000E-03 0.  1.
         12    1    3    3    0    0  0.11369849809E+02 -0.51839837743E+01  0.11694056028E+02  0.17114266530E+02  0.00000000000E+00 0. -1.
</event>
<event>
 7    1  0.5761011E-013  0.5930199E+02  0.7816164E-02  0.1266605E+00
        -11   -1    0    0    0    0  0.00000000000E+00  0.00000000000E+00  0.45593999997E+02  0.45594000000E+02  0.51100000000E-03 0.  1.
         11   -1    0    0    0    0 -0.00000000000E+00 -0.00000000000E+00 -0.45593999997E+02  0.45594000000E+02  0.51100000000E-03 0. -1.
    9900012    2    1    2    0    0 -0.10949523703E+02 -0.19940511275E+02 -0.22342826282E+02  0.59301985111E+02  0.50000074926E+02 0.  0.
        -12    1    1    2    0    0  0.10949523703E+02  0.19940511275E+02  0.22342826282E+02  0.31886014889E+02  0.00000000000E+00 0.  1.
         11    1    3    3    0    0 -0.10659838624E+02 -0.26963908899E+02 -0.29073183623E+02  0.41060133327E+02  0.51100000000E-03 0. -1.
        -11    1    3    3    0    0 -0.77838483093E+01  0.29761323645E+01  0.23190845965E+01  0.86500758367E+01  0.51100000000E-03 0.  1.
         12    1    3    3    0    0  0.74941632303E+01  0.40472652590E+01  0.44112727446E+01  0.95917759474E+01  0.00000000000E+00 0. -1.
</event>
<event>
 7    1  0.5761011E-013  0.5930195E+02  0.7816164E-02  0.1266605E+00
        -11   -1    0    0    0    0  0.00000000000E+00  0.00000000000E+00  0.45593999997E+02  0.45594000000E+02  0.51100000000E-03 0.  1.
         11   -1    0    0    0    0 -0.00000000000E+00 -0.00000000000E+00 -0.45593999997E+02  0.45594000000E+02  0.51100000000E-03 0. -1.
    9900012    2    1    2    0    0  0.10863243117E+02 -0.16171660972E+02 -0.25242577234E+02  0.59301947014E+02  0.50000005446E+02 0.  0.
        -12    1    1    2    0    0 -0.10863243117E+02  0.16171660972E+02  0.25242577234E+02  0.31886052986E+02  0.00000000000E+00 0.  1.
         11    1    3    3    0    0 -0.10689599385E+01 -0.28653358583E+01 -0.42145617720E+01  0.52072407398E+01  0.51100000000E-03 0. -1.
        -11    1    3    3    0    0 -0.44735334013E+01  0.15799528932E+02 -0.74037976897E+01  0.18012602145E+02  0.51100000000E-03 0.  1.
        -12    1    3    3    0    0  0.16405736457E+02 -0.29105854046E+02 -0.13624217772E+02  0.36082104129E+02  0.00000000000E+00 0.  1.
</event>
<event>
 7    1  0.5761011E-013  0.5930195E+02  0.7816164E-02  0.1266605E+00
        -11   -1    0    0    0    0  0.00000000000E+00  0.00000000000E+00  0.45593999997E+02  0.45594000000E+02  0.51100000000E-03 0. -1.
         11   -1    0    0    0    0 -0.00000000000E+00 -0.00000000000E+00 -0.45593999997E+02  0.45594000000E+02  0.51100000000E-03 0.  1.
    9900012    2    1    2    0    0 -0.20601651715E+02 -0.23003159907E+02 -0.79465089014E+01  0.59301946265E+02  0.50000004080E+02 0.  0.
        -12    1    1    2    0    0  0.20601651715E+02  0.23003159907E+02  0.79465089014E+01  0.31886053735E+02  0.00000000000E+00 0.  1.
         11    1    3    3    0    0  0.65545962688E+01 -0.87837606526E+01 -0.54856323912E+01  0.12255992267E+02  0.51100000000E-03 0. -1.
        -11    1    3    3    0    0 -0.14328756752E+02 -0.15840601094E+02  0.14428027018E+02  0.25776071792E+02  0.51100000000E-03 0.  1.
        -12    1    3    3    0    0 -0.12827491231E+02  0.16212018400E+01 -0.16888903529E+02  0.21269882207E+02  0.00000000000E+00 0.  1.
</event>
<event>
 7    1  0.5761011E-013  0.5930195E+02  0.7816164E-02  0.1266605E+00
        -11   -1    0    0    0    0  0.00000000000E+00  0.00000000000E+00  0.45593999997E+02  0.45594000000E+02  0.51100000000E-03 0. -1.
         11   -1    0    0    0    0 -0.00000000000E+00 -0.00000000000E+00 -0.45593999997E+02  0.45594000000E+02  0.51100000000E-03 0.  1.
    9900012    2    1    2    0    0  0.91010930519E+01 -0.30147126262E+02 -0.50040918408E+01  0.59301952083E+02  0.50000014691E+02 0.  0.
        -12    1    1    2    0    0 -0.91010930519E+01  0.30147126262E+02  0.50040918408E+01  0.31886047917E+02  0.00000000000E+00 0.  1.
         11    1    3    3    0    0  0.12470156410E+02 -0.18997267289E+02  0.24659377464E+01  0.22857861111E+02  0.51100000000E-03 0. -1.
        -11    1    3    3    0    0 -0.17963873798E+02 -0.82593575010E+01  0.53580576696E-01  0.19771712604E+02  0.51100000000E-03 0.  1.
        -12    1    3    3    0    0  0.14594810440E+02 -0.28905014725E+01 -0.75236101639E+01  0.16672378367E+02  0.00000000000E+00 0.  1.
</event>
<event>
 7    1  0.5761011E-013  0.5930182E+02  0.7816164E-02  0.1266605E+00
        -11   -1    0    0    0    0  0.00000000000E+00  0.00000000000E+00  0.45593999997E+02  0.45594000000E+02  0.51100000000E-03 0.  1.
         11   -1    0    0    0    0 -0.00000000000E+00 -0.00000000000E+00 -0.45593999997E+02  0.45594000000E+02  0.51100000000E-03 0. -1.
    9900012    2    1    2    0    0  0.16524604782E+01  0.14484912797E+02 -0.28358162420E+02  0.59301816469E+02  0.49999767362E+02 0.  0.
        -12    1    1    2    0    0 -0.16524604782E+01 -0.14484912797E+02  0.28358162420E+02  0.31886183531E+02  0.00000000000E+00 0.  1.
         11    1    3    3    0    0  0.84921506929E+01  0.95388823740E+01 -0.81176343276E+01  0.15132841362E+02  0.51100000000E-03 0. -1.
        -11    1    3    3    0    0  0.26363015979E+01 -0.15269416820E+02 -0.25939846288E+01  0.15710949451E+02  0.51100000000E-03 0.  1.
        -12    1    3    3    0    0 -0.94759918126E+01  0.20215447242E+02 -0.17646543464E+02  0.28458025656E+02  0.00000000000E+00 0.  1.
</event>
<event>
 7    1  0.5761011E-013  0.5930203E+02  0.7816164E-02  0.1266604E+00
        -11   -1    0    0    0    0  0.00000000000E+00  0.00000000000E+00  0.45593999997E+02  0.45594000000E+02  0.51100000000E-03 0.  1.
         11   -1    0    0    0    0 -0.00000000000E+00 -0.00000000000E+00 -0.45593999997E+02  0.45594000000E+02  0.51100000000E-03 0. -1.
    9900012    2    1    2    0    0 -0.22446231332E+02 -0.16552160434E+02 -0.15456635451E+02  0.59302032938E+02  0.50000162150E+02 0.  0.
        -12    1    1    2    0    0  0.22446231332E+02  0.16552160434E+02  0.15456635451E+02  0.31885967062E+02  0.00000000000E+00 0.  1.
         11    1    3    3    0    0  0.14321719066E+02 -0.40849906308E+01 -0.70928265212E+01  0.16495665303E+02  0.51100000000E-03 0.  1.
        -11    1    3    3    0    0 -0.20202607654E+02  0.73227792496E+00 -0.76450306223E+01  0.21613146010E+02  0.51100000000E-03 0. -1.
         12    1    3    3    0    0 -0.16565342745E+02 -0.13199447728E+02 -0.71877830708E+00  0.21193221625E+02  0.00000000000E+00 0. -1.
</event>
<event>
 7    1  0.5761011E-013  0.5930194E+02  0.7816164E-02  0.1266605E+00
        -11   -1    0    0    0    0  0.00000000000E+00  0.00000000000E+00  0.45593999997E+02  0.45594000000E+02  0.51100000000E-03 0.  1.
         11   -1    0    0    0    0 -0.00000000000E+00 -0.00000000000E+00 -0.45593999997E+02  0.45594000000E+02  0.51100000000E-03 0. -1.
    9900012    2    1    2    0    0  0.12796500843E+00  0.22610473729E+02 -0.22482673646E+02  0.59301944873E+02  0.50000001542E+02 0.  0.
        -12    1    1    2    0    0 -0.12796500843E+00 -0.22610473729E+02  0.22482673646E+02  0.31886055127E+02  0.00000000000E+00 0.  1.
         11    1    3    3    0    0 -0.88375707166E+00 -0.11560281853E+02 -0.17134918317E+02  0.20688802988E+02  0.51100000000E-03 0. -1.
        -11    1    3    3    0    0 -0.21826055307E+01  0.20394510344E+01  0.40048984849E+01  0.49962325366E+01  0.51100000000E-03 0.  1.
         12    1    3    3    0    0  0.31943276108E+01  0.32131304547E+02 -0.93526538141E+01  0.33616909349E+02  0.00000000000E+00 0. -1.
</event>
<event>
 7    1  0.5761011E-013  0.5930195E+02  0.7816164E-02  0.1266605E+00
        -11   -1    0    0    0    0  0.00000000000E+00  0.00000000000E+00  0.45593999997E+02  0.45594000000E+02  0.51100000000E-03 0. -1.
         11   -1    0    0    0    0 -0.00000000000E+00 -0.00000000000E+00 -0.45593999997E+02  0.45594000000E+02  0.51100000000E-03 0.  1.
    9900012    2    1    2    0    0  0.14957589739E+02  0.16557483995E+00  0.28159609016E+02  0.59301945278E+02  0.50000002280E+02 0.  0.
        -12    1    1    2    0    0 -0.14957589739E+02 -0.16557483995E+00 -0.28159609016E+02  0.31886054722E+02  0.00000000000E+00 0.  1.
         11    1    3    3    0    0  0.21256481304E+02 -0.61689716945E+01  0.21477123246E+02  0.30840898696E+02  0.51100000000E-03 0. -1.
        -11    1    3    3    0    0  0.18188862392E+01 -0.24945658502E+01 -0.85402142941E+01  0.90811049097E+01  0.51100000000E-03 0.  1.
         12    1    3    3    0    0 -0.81177778040E+01  0.88291123847E+01  0.15222700064E+02  0.19379941672E+02  0.00000000000E+00 0. -1.
</event>
<event>
 7    1  0.5761011E-013  0.5930193E+02  0.7816164E-02  0.1266605E+00
        -11   -1    0    0    0    0  0.00000000000E+00  0.00000000000E+00  0.45593999997E+02  0.45594000000E+02  0.51100000000E-03 0. -1.
         11   -1    0    0    0    0 -0.00000000000E+00 -0.00000000000E+00 -0.45593999997E+02  0.45594000000E+02  0.51100000000E-03 0.  1.
    9900012    2    1    2    0    0 -0.25561700511E+02 -0.17089881372E+02  0.84413931120E+01  0.59301926300E+02  0.49999967669E+02 0.  0.
        -12    1    1    2    0    0  0.25561700511E+02  0.17089881372E+02 -0.84413931120E+01  0.31886073700E+02  0.00000000000E+00 0.  1.
         11    1    3    3    0    0 -0.11734914391E+02 -0.10970198695E+02  0.84117734399E+01  0.18133157691E+02  0.51100000000E-03 0. -1.
        -11    1    3    3    0    0  0.65849724302E+01  0.43154670733E+01  0.12725049443E+02  0.14963689436E+02  0.51100000000E-03 0.  1.
        -12    1    3    3    0    0 -0.20411758550E+02 -0.10435149749E+02 -0.12695429771E+02  0.26205079173E+02  0.00000000000E+00 0.  1.
</event>
<event>
 7    1  0.5761011E-013  0.5930192E+02  0.7816164E-02  0.1266605E+00
        -11   -1    0    0    0    0  0.00000000000E+00  0.00000000000E+00  0.45593999997E+02  0.45594000000E+02  0.51100000000E-03 0. -1.
         11   -1    0    0    0    0 -0.00000000000E+00 -0.00000000000E+00 -0.45593999997E+02  0.45594000000E+02  0.51100000000E-03 0.  1.
    9900012    2    1    2    0    0 -0.14744792683E+02  0.78214422667E+00  0.28261304361E+02  0.59301921768E+02  0.49999959403E+02 0.  0.
        -12    1    1    2    0    0  0.14744792683E+02 -0.78214422667E+00 -0.28261304361E+02  0.31886078232E+02  0.00000000000E+00 0.  1.
         11    1    3    3    0    0 -0.19136613842E+02 -0.79529271107E+01  0.39366059254E+02  0.44487589960E+02  0.51100000000E-03 0. -1.
        -11    1    3    3    0    0  0.27171006318E+01  0.61676181865E+01 -0.77077428527E+01  0.10238723069E+02  0.51100000000E-03 0.  1.
         12    1    3    3    0    0  0.16747205271E+01  0.25674531508E+01 -0.33970120410E+01  0.45756087390E+01  0.00000000000E+00 0. -1.
</event>
<event>
 7    1  0.5761011E-013  0.5930195E+02  0.7816164E-02  0.1266605E+00
        -11   -1    0    0    0    0  0.00000000000E+00  0.00000000000E+00  0.45593999997E+02  0.45594000000E+02  0.51100000000E-03 0.  1.
         11   -1    0    0    0    0 -0.00000000000E+00 -0.00000000000E+00 -0.45593999997E+02  0.45594000000E+02  0.51100000000E-03 0. -1.
    9900012    2    1    2    0    0 -0.26572479027E+02 -0.51298246548E+01 -0.16861453933E+02  0.59301947072E+02  0.50000005552E+02 0.  0.
        -12    1    1    2    0    0  0.26572479027E+02  0.51298246548E+01  0.16861453933E+02  0.31886052928E+02  0.00000000000E+00 0.  1.
         11    1    3    3    0    0 -0.30683708288E+02 -0.92003435851E+01 -0.29290920590E+02  0.43406155159E+02  0.51100000000E-03 0.  1.
        -11    1    3    3    0    0  0.65486424636E+01  0.29789759424E+01  0.97033771720E+01  0.12079509286E+02  0.51100000000E-03 0. -1.
        -12    1    3    3    0    0 -0.24374132020E+01  0.10915429880E+01  0.27260894850E+01  0.38162826274E+01  0.00000000000E+00 0.  1.
</event>
<event>
 7    1  0.5761011E-013  0.5930190E+02  0.7816164E-02  0.1266605E+00
        -11   -1    0    0    0    0  0.00000000000E+00  0.00000000000E+00  0.45593999997E+02  0.45594000000E+02  0.51100000000E-03 0.  1.
         11   -1    0    0    0    0 -0.00000000000E+00 -0.00000000000E+00 -0.45593999997E+02  0.45594000000E+02  0.51100000000E-03 0. -1.
    9900012    2    1    2    0    0  0.30164780529E+01 -0.77636923914E+01 -0.30779039177E+02  0.59301900959E+02  0.49999921453E+02 0.  0.
        -12    1    1    2    0    0 -0.30164780529E+01  0.77636923914E+01  0.30779039177E+02  0.31886099041E+02  0.00000000000E+00 0.  1.
         11    1    3    3    0    0  0.16472398754E+02 -0.88156161383E+01 -0.29826234172E+02  0.35194591257E+02  0.51100000000E-03 0. -1.
        -11    1    3    3    0    0 -0.52331113384E+01 -0.35788792415E+01  0.85966280798E+01  0.10681565686E+02  0.51100000000E-03 0.  1.
         12    1    3    3    0    0 -0.82228093629E+01  0.46308029884E+01 -0.95494330853E+01  0.13425744016E+02  0.00000000000E+00 0. -1.
</event>
<event>
 7    1  0.5761011E-013  0.5930197E+02  0.7816164E-02  0.1266605E+00
        -11   -1    0    0    0    0  0.00000000000E+00  0.00000000000E+00  0.45593999997E+02  0.45594000000E+02  0.51100000000E-03 0. -1.
         11   -1    0    0    0    0 -0.00000000000E+00 -0.00000000000E+00 -0.45593999997E+02  0.45594000000E+02  0.51100000000E-03 0.  1.
    9900012    2    1    2    0    0  0.84219979306E+01 -0.30424751934E+02  0.44859195523E+01  0.59301967735E+02  0.50000043236E+02 0.  0.
        -12    1    1    2    0    0 -0.84219979306E+01  0.30424751934E+02 -0.44859195523E+01  0.31886032265E+02  0.00000000000E+00 0.  1.
         11    1    3    3    0    0  0.67294633148E+01 -0.18136662541E+02  0.81188360673E+01  0.20979506762E+02  0.51100000000E-03 0. -1.
        -11    1    3    3    0    0  0.25098933634E+01 -0.15730377379E+02 -0.17702800548E+02  0.23814564550E+02  0.51100000000E-03 0.  1.
        -12    1    3    3    0    0 -0.81735874758E+00  0.34422879868E+01  0.14069884033E+02  0.14507896423E+02  0.00000000000E+00 0.  1.
</event>
<event>
 7    1  0.5761011E-013  0.5930193E+02  0.7816164E-02  0.1266605E+00
        -11   -1    0    0    0    0  0.00000000000E+00  0.00000000000E+00  0.45593999997E+02  0.45594000000E+02  0.51100000000E-03 0. -1.
         11   -1    0    0    0    0 -0.00000000000E+00 -0.00000000000E+00 -0.45593999997E+02  0.45594000000E+02  0.51100000000E-03 0.  1.
    9900012    2    1    2    0    0 -0.92158356770E+01  0.28419697514E+02  0.11140485955E+02  0.59301933116E+02  0.49999980100E+02 0.  0.
        -12    1    1    2    0    0  0.92158356770E+01 -0.28419697514E+02 -0.11140485955E+02  0.31886066884E+02  0.00000000000E+00 0.  1.
         11    1    3    3    0    0 -0.60360562269E+01  0.23597286369E+02  0.25807167427E+02  0.35486276074E+02  0.51100000000E-03 0. -1.
        -11    1    3    3    0    0 -0.70133835911E+01  0.66002530987E+01 -0.12044266417E+01  0.97057474807E+01  0.51100000000E-03 0.  1.
         12    1    3    3    0    0  0.38336041410E+01 -0.17778419535E+01 -0.13462254830E+02  0.14109909561E+02  0.00000000000E+00 0. -1.
</event>
<event>
 7    1  0.5761011E-013  0.5930202E+02  0.7816164E-02  0.1266605E+00
        -11   -1    0    0    0    0  0.00000000000E+00  0.00000000000E+00  0.45593999997E+02  0.45594000000E+02  0.51100000000E-03 0. -1.
         11   -1    0    0    0    0 -0.00000000000E+00 -0.00000000000E+00 -0.45593999997E+02  0.45594000000E+02  0.51100000000E-03 0.  1.
    9900012    2    1    2    0    0 -0.13455846946E+02  0.28748083733E+02 -0.30337865438E+01  0.59302015679E+02  0.50000130674E+02 0.  0.
        -12    1    1    2    0    0  0.13455846946E+02 -0.28748083733E+02  0.30337865438E+01  0.31885984321E+02  0.00000000000E+00 0.  1.
         11    1    3    3    0    0  0.14469214400E+02  0.10796598363E+02  0.71569943716E+01  0.19420279871E+02  0.51100000000E-03 0. -1.
        -11    1    3    3    0    0 -0.19847946425E+02  0.12383071615E+01 -0.37749963220E+01  0.20241664443E+02  0.51100000000E-03 0.  1.
         12    1    3    3    0    0 -0.80771149204E+01  0.16713178209E+02 -0.64157845934E+01  0.19640071365E+02  0.00000000000E+00 0. -1.
</event>
<event>
 7    1  0.5761011E-013  0.5930194E+02  0.7816164E-02  0.1266605E+00
        -11   -1    0    0    0    0  0.00000000000E+00  0.00000000000E+00  0.45593999997E+02  0.45594000000E+02  0.51100000000E-03 0.  1.
         11   -1    0    0    0    0 -0.00000000000E+00 -0.00000000000E+00 -0.45593999997E+02  0.45594000000E+02  0.51100000000E-03 0. -1.
    9900012    2    1    2    0    0  0.23323270808E+02  0.46178774012E+01 -0.21246673889E+02  0.59301938716E+02  0.49999990312E+02 0.  0.
        -12    1    1    2    0    0 -0.23323270808E+02 -0.46178774012E+01  0.21246673889E+02  0.31886061284E+02  0.00000000000E+00 0.  1.
         11    1    3    3    0    0  0.95991147939E+01  0.20675595196E+01 -0.35191656928E+02  0.36535879965E+02  0.51100000000E-03 0. -1.
        -11    1    3    3    0    0  0.88727153174E+01  0.24697103942E+01  0.14005091516E+01  0.93158989195E+01  0.51100000000E-03 0.  1.
         12    1    3    3    0    0  0.48514406962E+01  0.80607487366E-01  0.12544473887E+02  0.13450159832E+02  0.00000000000E+00 0. -1.
</event>
<event>
 7    1  0.5761011E-013  0.5930195E+02  0.7816164E-02  0.1266605E+00
        -11   -1    0    0    0    0  0.00000000000E+00  0.00000000000E+00  0.45593999997E+02  0.45594000000E+02  0.51100000000E-03 0.  1.
         11   -1    0    0    0    0 -0.00000000000E+00 -0.00000000000E+00 -0.45593999997E+02  0.45594000000E+02  0.51100000000E-03 0. -1.
    9900012    2    1    2    0    0  0.11304679250E+02 -0.24315147566E+02 -0.17253935621E+02  0.59301945548E+02  0.50000002773E+02 0.  0.
        -12    1    1    2    0    0 -0.11304679250E+02  0.24315147566E+02  0.17253935621E+02  0.31886054452E+02  0.00000000000E+00 0.  1.
         11    1    3    3    0    0  0.13277053529E+02  0.48669681891E+01 -0.91936514554E+01  0.16866853800E+02  0.51100000000E-03 0. -1.
        -11    1    3    3    0    0 -0.98930026143E+01 -0.21089277445E+02  0.63151696339E+01  0.24135254124E+02  0.51100000000E-03 0.  1.
        -12    1    3    3    0    0  0.79206283355E+01 -0.80928383102E+01 -0.14375453799E+02  0.18299837624E+02  0.00000000000E+00 0.  1.
</event>
<event>
 7    1  0.5761011E-013  0.5930198E+02  0.7816164E-02  0.1266605E+00
        -11   -1    0    0    0    0  0.00000000000E+00  0.00000000000E+00  0.45593999997E+02  0.45594000000E+02  0.51100000000E-03 0.  1.
         11   -1    0    0    0    0 -0.00000000000E+00 -0.00000000000E+00 -0.45593999997E+02  0.45594000000E+02  0.51100000000E-03 0. -1.
    9900012    2    1    2    0    0 -0.16134180197E+02  0.18166306826E+02 -0.20649263518E+02  0.59301975504E+02  0.50000057406E+02 0.  0.
        -12    1    1    2    0    0  0.16134180197E+02 -0.18166306826E+02  0.20649263518E+02  0.31886024496E+02  0.00000000000E+00 0.  1.
         11    1    3    3    0    0 -0.15853049661E+02  0.25000332908E+02 -0.32162662566E+02  0.43712386032E+02  0.51100000000E-03 0. -1.
        -11    1    3    3    0    0 -0.24541878175E+01 -0.58280785852E+01  0.11579890231E+02  0.13194066692E+02  0.51100000000E-03 0.  1.
         12    1    3    3    0    0  0.21730572813E+01 -0.10059474971E+01 -0.66491182976E-01  0.23955227806E+01  0.00000000000E+00 0. -1.
</event>
<event>
 7    1  0.5761011E-013  0.5930194E+02  0.7816164E-02  0.1266605E+00
        -11   -1    0    0    0    0  0.00000000000E+00  0.00000000000E+00  0.45593999997E+02  0.45594000000E+02  0.51100000000E-03 0. -1.
         11   -1    0    0    0    0 -0.00000000000E+00 -0.00000000000E+00 -0.45593999997E+02  0.45594000000E+02  0.51100000000E-03 0.  1.
    9900012    2    1    2    0    0 -0.12885742646E+02 -0.21608883005E+02 -0.19589140746E+02  0.59301943119E+02  0.49999998342E+02 0.  0.
        -12    1    1    2    0    0  0.12885742646E+02  0.21608883005E+02  0.19589140746E+02  0.31886056881E+02  0.00000000000E+00 0.  1.
         11    1    3    3    0    0 -0.15989564695E+02  0.46971489270E+01 -0.98034656732E+01  0.19334873329E+02  0.51100000000E-03 0. -1.
        -11    1    3    3    0    0 -0.96690444479E+00 -0.29900954077E+02 -0.14060110287E+02  0.33055841548E+02  0.51100000000E-03 0.  1.
        -12    1    3    3    0    0  0.40707264939E+01  0.35949221445E+01  0.42744352138E+01  0.69112282418E+01  0.00000000000E+00 0.  1.
</event>
<event>
 7    1  0.5761011E-013  0.5930192E+02  0.7816164E-02  0.1266605E+00
        -11   -1    0    0    0    0  0.00000000000E+00  0.00000000000E+00  0.45593999997E+02  0.45594000000E+02  0.51100000000E-03 0.  1.
         11   -1    0    0    0    0 -0.00000000000E+00 -0.00000000000E+00 -0.45593999997E+02  0.45594000000E+02  0.51100000000E-03 0. -1.
    9900012    2    1    2    0    0  0.79787424476E+01  0.30862761516E+02  0.74287828424E+00  0.59301917651E+02  0.49999951894E+02 0.  0.
        -12    1    1    2    0    0 -0.79787424476E+01 -0.30862761516E+02 -0.74287828424E+00  0.31886082349E+02  0.00000000000E+00 0.  1.
         11    1    3    3    0    0  0.17315759033E+02  0.10487774298E+02  0.76645804843E+01  0.21646586680E+02  0.51100000000E-03 0. -1.
        -11    1    3    3    0    0 -0.10240783912E+02  0.27527167856E+02 -0.32054221656E+01  0.29544768688E+02  0.51100000000E-03 0.  1.
        -12    1    3    3    0    0  0.90376732638E+00 -0.71521806377E+01 -0.37162800345E+01  0.81105622832E+01  0.00000000000E+00 0.  1.
</event>
<event>
 7    1  0.5761011E-013  0.5930195E+02  0.7816164E-02  0.1266605E+00
        -11   -1    0    0    0    0  0.00000000000E+00  0.00000000000E+00  0.45593999997E+02  0.45594000000E+02  0.51100000000E-03 0. -1.
         11   -1    0    0    0    0 -0.00000000000E+00 -0.00000000000E+00 -0.45593999997E+02  0.45594000000E+02  0.51100000000E-03 0.  1.
    9900012    2    1    2    0    0 -0.18102532254E+02  0.14493968646E+02 -0.21884776875E+02  0.59301948818E+02  0.50000008737E+02 0.  0.
        -12    1    1    2    0    0  0.18102532254E+02 -0.14493968646E+02  0.21884776875E+02  0.31886051182E+02  0.00000000000E+00 0.  1.
         11    1    3    3    0    0 -0.18868543312E+01  0.10906537935E+02  0.88097963413E+01  0.14146564984E+02  0.51100000000E-03 0. -1.
        -11    1    3    3    0    0 -0.22117207404E+02 -0.50028452748E+01 -0.20281492748E+02  0.30422660511E+02  0.51100000000E-03 0.  1.
        -12    1    3    3    0    0  0.59015294810E+01  0.85902759852E+01 -0.10413080467E+02  0.14732723324E+02  0.00000000000E+00 0.  1.
</event>
<event>
 7    1  0.5761011E-013  0.5930189E+02  0.7816164E-02  0.1266605E+00
        -11   -1    0    0    0    0  0.00000000000E+00  0.00000000000E+00  0.45593999997E+02  0.45594000000E+02  0.51100000000E-03 0.  1.
         11   -1    0    0    0    0 -0.00000000000E+00 -0.00000000000E+00 -0.45593999997E+02  0.45594000000E+02  0.51100000000E-03 0. -1.
    9900012    2    1    2    0    0 -0.22740189643E+02 -0.18672278607E+02 -0.12286326854E+02  0.59301889530E+02  0.49999900609E+02 0.  0.
        -12    1    1    2    0    0  0.22740189643E+02  0.18672278607E+02  0.12286326854E+02  0.31886110470E+02  0.00000000000E+00 0.  1.
         11    1    3    3    0    0 -0.14287562330E+02 -0.20835317072E+02 -0.24177809208E+02  0.34968719353E+02  0.51100000000E-03 0. -1.
        -11    1    3    3    0    0  0.52418656238E+01  0.25046683490E+01 -0.54003133764E+00  0.58345653534E+01  0.51100000000E-03 0.  1.
         12    1    3    3    0    0 -0.13694492936E+02 -0.34162988417E+00  0.12431513692E+02  0.18498604824E+02  0.00000000000E+00 0. -1.
</event>
<event>
 7    1  0.5761011E-013  0.5930194E+02  0.7816164E-02  0.1266605E+00
        -11   -1    0    0    0    0  0.00000000000E+00  0.00000000000E+00  0.45593999997E+02  0.45594000000E+02  0.51100000000E-03 0.  1.
         11   -1    0    0    0    0 -0.00000000000E+00 -0.00000000000E+00 -0.45593999997E+02  0.45594000000E+02  0.51100000000E-03 0. -1.
    9900012    2    1    2    0    0 -0.30321514748E+02 -0.39389549582E+01 -0.90449528700E+01  0.59301940426E+02  0.49999993431E+02 0.  0.
        -12    1    1    2    0    0  0.30321514748E+02  0.39389549582E+01  0.90449528700E+01  0.31886059574E+02  0.00000000000E+00 0.  1.
         11    1    3    3    0    0 -0.57311288137E+01 -0.12437372605E+02 -0.24377788014E+02  0.27960876658E+02  0.51100000000E-03 0. -1.
        -11    1    3    3    0    0 -0.49895256070E+01  0.45258359171E+01  0.68799095289E+01  0.96286921188E+01  0.51100000000E-03 0.  1.
         12    1    3    3    0    0 -0.19600860327E+02  0.39725817301E+01  0.84529256148E+01  0.21712371649E+02  0.00000000000E+00 0. -1.
</event>
<event>
 7    1  0.5761011E-013  0.5930194E+02  0.7816164E-02  0.1266605E+00
        -11   -1    0    0    0    0  0.00000000000E+00  0.00000000000E+00  0.45593999997E+02  0.45594000000E+02  0.51100000000E-03 0. -1.
         11   -1    0    0    0    0 -0.00000000000E+00 -0.00000000000E+00 -0.45593999997E+02  0.45594000000E+02  0.51100000000E-03 0.  1.
    9900012    2    1    2    0    0  0.86835542508E+01 -0.14300678437E+02  0.27144195147E+02  0.59301939592E+02  0.49999991910E+02 0.  0.
        -12    1    1    2    0    0 -0.86835542508E+01  0.14300678437E+02 -0.27144195147E+02  0.31886060408E+02  0.00000000000E+00 0.  1.
         11    1    3    3    0    0 -0.12657583459E+01 -0.19100089122E+02  0.29807401148E+02  0.35424521339E+02  0.51100000000E-03 0. -1.
        -11    1    3    3    0    0  0.13994656242E+02 -0.26868888608E+01 -0.49168757003E+01  0.15074662252E+02  0.51100000000E-03 0.  1.
         12    1    3    3    0    0 -0.40453436455E+01  0.74862995458E+01  0.22536696991E+01  0.88027560009E+01  0.00000000000E+00 0. -1.
</event>
<event>
 7    1  0.5761011E-013  0.5930188E+02  0.7816164E-02  0.1266605E+00
        -11   -1    0    0    0    0  0.00000000000E+00  0.00000000000E+00  0.45593999997E+02  0.45594000000E+02  0.51100000000E-03 0. -1.
         11   -1    0    0    0    0 -0.00000000000E+00 -0.00000000000E+00 -0.45593999997E+02  0.45594000000E+02  0.51100000000E-03 0.  1.
    9900012    2    1    2    0    0 -0.20406728044E+01 -0.15000092644E+01  0.31785378217E+02  0.59301880109E+02  0.49999883427E+02 0.  0.
        -12    1    1    2    0    0  0.20406728044E+01  0.15000092644E+01 -0.31785378217E+02  0.31886119891E+02  0.00000000000E+00 0.  1.
         11    1    3    3    0    0  0.11919268614E+02  0.31542873690E+01  0.67108634068E+01  0.14037598834E+02  0.51100000000E-03 0. -1.
        -11    1    3    3    0    0 -0.19777561520E+02 -0.15102719709E+02  0.21207936736E+02  0.32695881440E+02  0.51100000000E-03 0.  1.
        -12    1    3    3    0    0  0.58176201010E+01  0.10448423075E+02  0.38665780744E+01  0.12568399835E+02  0.00000000000E+00 0.  1.
</event>
<event>
 7    1  0.5761011E-013  0.5930194E+02  0.7816164E-02  0.1266605E+00
        -11   -1    0    0    0    0  0.00000000000E+00  0.00000000000E+00  0.45593999997E+02  0.45594000000E+02  0.51100000000E-03 0. -1.
         11   -1    0    0    0    0 -0.00000000000E+00 -0.00000000000E+00 -0.45593999997E+02  0.45594000000E+02  0.51100000000E-03 0.  1.
    9900012    2    1    2    0    0  0.10128687374E+02 -0.30227719499E+02  0.64448079400E+00  0.59301942082E+02  0.49999996452E+02 0.  0.
        -12    1    1    2    0    0 -0.10128687374E+02  0.30227719499E+02 -0.64448079400E+00  0.31886057918E+02  0.00000000000E+00 0.  1.
         11    1    3    3    0    0  0.66664961469E+01 -0.23062575103E+02  0.22883091065E+02  0.33165650879E+02  0.51100000000E-03 0. -1.
        -11    1    3    3    0    0  0.59669925531E+01 -0.61815529162E-01 -0.74970791496E+01  0.95820153060E+01  0.51100000000E-03 0.  1.
         12    1    3    3    0    0 -0.25048013258E+01 -0.71033288670E+01 -0.14741531122E+02  0.16554275897E+02  0.00000000000E+00 0. -1.
</event>
<event>
 7    1  0.5761011E-013  0.5930205E+02  0.7816164E-02  0.1266604E+00
        -11   -1    0    0    0    0  0.00000000000E+00  0.00000000000E+00  0.45593999997E+02  0.45594000000E+02  0.51100000000E-03 0.  1.
         11   -1    0    0    0    0 -0.00000000000E+00 -0.00000000000E+00 -0.45593999997E+02  0.45594000000E+02  0.51100000000E-03 0. -1.
    9900012    2    1    2    0    0 -0.22452403240E+01 -0.71329968769E+01 -0.30996657260E+02  0.59302054665E+02  0.50000201776E+02 0.  0.
        -12    1    1    2    0    0  0.22452403240E+01  0.71329968769E+01  0.30996657260E+02  0.31885945335E+02  0.00000000000E+00 0.  1.
         11    1    3    3    0    0  0.13234082680E+02 -0.96798205728E+01  0.41966913438E+01  0.16924895545E+02  0.51100000000E-03 0.  1.
        -11    1    3    3    0    0 -0.45264017764E+01  0.64199068841E+01 -0.27107578986E+02  0.28222763085E+02  0.51100000000E-03 0. -1.
        -12    1    3    3    0    0 -0.10952921228E+02 -0.38730831882E+01 -0.80857696186E+01  0.14154396036E+02  0.00000000000E+00 0.  1.
</event>
<event>
 7    1  0.5761011E-013  0.5930195E+02  0.7816164E-02  0.1266605E+00
        -11   -1    0    0    0    0  0.00000000000E+00  0.00000000000E+00  0.45593999997E+02  0.45594000000E+02  0.51100000000E-03 0.  1.
         11   -1    0    0    0    0 -0.00000000000E+00 -0.00000000000E+00 -0.45593999997E+02  0.45594000000E+02  0.51100000000E-03 0. -1.
    9900012    2    1    2    0    0 -0.16508061347E+02 -0.21905692424E+02 -0.16258674224E+02  0.59301953875E+02  0.50000017958E+02 0.  0.
        -12    1    1    2    0    0  0.16508061347E+02  0.21905692424E+02  0.16258674224E+02  0.31886046125E+02  0.00000000000E+00 0.  1.
         11    1    3    3    0    0 -0.32659233411E+01 -0.78138153109E+01 -0.41445748266E+00  0.84790176465E+01  0.51100000000E-03 0. -1.
        -11    1    3    3    0    0  0.82087417410E+01  0.69327247791E+01  0.72268040963E+01  0.12948853677E+02  0.51100000000E-03 0.  1.
        -12    1    3    3    0    0 -0.21450879747E+02 -0.21024601892E+02 -0.23071020837E+02  0.37874082551E+02  0.00000000000E+00 0.  1.
</event>
<event>
 7    1  0.5761011E-013  0.5930195E+02  0.7816164E-02  0.1266605E+00
        -11   -1    0    0    0    0  0.00000000000E+00  0.00000000000E+00  0.45593999997E+02  0.45594000000E+02  0.51100000000E-03 0.  1.
         11   -1    0    0    0    0 -0.00000000000E+00 -0.00000000000E+00 -0.45593999997E+02  0.45594000000E+02  0.51100000000E-03 0. -1.
    9900012    2    1    2    0    0 -0.75890624765E+01 -0.10232431762E+02 -0.29230530609E+02  0.59301945858E+02  0.50000003339E+02 0.  0.
        -12    1    1    2    0    0  0.75890624765E+01  0.10232431762E+02  0.29230530609E+02  0.31886054142E+02  0.00000000000E+00 0.  1.
         11    1    3    3    0    0 -0.76612858510E+01 -0.10525733585E+02 -0.25496261377E+02  0.28627708830E+02  0.51100000000E-03 0. -1.
        -11    1    3    3    0    0  0.96131947039E+01 -0.10940875966E+02  0.23059090693E+01  0.14745626342E+02  0.51100000000E-03 0.  1.
        -12    1    3    3    0    0 -0.95409713293E+01  0.11234177789E+02 -0.60401783019E+01  0.15928610687E+02  0.00000000000E+00 0.  1.
</event>
<event>
 7    1  0.5761011E-013  0.5930185E+02  0.7816164E-02  0.1266605E+00
        -11   -1    0    0    0    0  0.00000000000E+00  0.00000000000E+00  0.45593999997E+02  0.45594000000E+02  0.51100000000E-03 0.  1.
         11   -1    0    0    0    0 -0.00000000000E+00 -0.00000000000E+00 -0.45593999997E+02  0.45594000000E+02  0.51100000000E-03 0. -1.
    9900012    2    1    2    0    0  0.58403164555E+01 -0.19835670953E+02  0.24272684019E+02  0.59301853667E+02  0.49999835204E+02 0.  0.
        -12    1    1    2    0    0 -0.58403164555E+01  0.19835670953E+02 -0.24272684019E+02  0.31886146333E+02  0.00000000000E+00 0.  1.
         11    1    3    3    0    0 -0.12109487973E+02 -0.13601059381E+02 -0.66325298194E+01  0.19380891809E+02  0.51100000000E-03 0. -1.
        -11    1    3    3    0    0  0.40896674424E+01  0.25878426073E+01  0.19064000339E+02  0.19668716744E+02  0.51100000000E-03 0.  1.
         12    1    3    3    0    0  0.13860136986E+02 -0.88224541795E+01  0.11841213499E+02  0.20252245114E+02  0.00000000000E+00 0. -1.
</event>
<event>
 7    1  0.5761011E-013  0.5930191E+02  0.7816164E-02  0.1266605E+00
        -11   -1    0    0    0    0  0.00000000000E+00  0.00000000000E+00  0.45593999997E+02  0.45594000000E+02  0.51100000000E-03 0.  1.
         11   -1    0    0    0    0 -0.00000000000E+00 -0.00000000000E+00 -0.45593999997E+02  0.45594000000E+02  0.51100000000E-03 0. -1.
    9900012    2    1    2    0    0  0.30444365225E+02  0.89499107982E+01 -0.31244942451E+01  0.59301909905E+02  0.49999937768E+02 0.  0.
        -12    1    1    2    0    0 -0.30444365225E+02 -0.89499107982E+01  0.31244942451E+01  0.31886090095E+02  0.00000000000E+00 0.  1.
         11    1    3    3    0    0  0.11503055399E+02 -0.76760521575E+00  0.31356677004E+01  0.11947464730E+02  0.51100000000E-03 0. -1.
        -11    1    3    3    0    0  0.83380720809E+01  0.24924502063E+02 -0.10558924007E+02  0.28323932028E+02  0.51100000000E-03 0.  1.
        -12    1    3    3    0    0  0.10603237745E+02 -0.15206986049E+02  0.42987620613E+01  0.19030513147E+02  0.00000000000E+00 0.  1.
</event>
<event>
 7    1  0.5761011E-013  0.5930195E+02  0.7816164E-02  0.1266605E+00
        -11   -1    0    0    0    0  0.00000000000E+00  0.00000000000E+00  0.45593999997E+02  0.45594000000E+02  0.51100000000E-03 0.  1.
         11   -1    0    0    0    0 -0.00000000000E+00 -0.00000000000E+00 -0.45593999997E+02  0.45594000000E+02  0.51100000000E-03 0. -1.
    9900012    2    1    2    0    0  0.90815508733E+01 -0.11109297798E+02 -0.28475060639E+02  0.59301950664E+02  0.50000012103E+02 0.  0.
        -12    1    1    2    0    0 -0.90815508733E+01  0.11109297798E+02  0.28475060639E+02  0.31886049336E+02  0.00000000000E+00 0.  1.
         11    1    3    3    0    0 -0.18175171408E+01 -0.23681826022E+02 -0.24022006244E+02  0.33781489555E+02  0.51100000000E-03 0. -1.
        -11    1    3    3    0    0 -0.16060461815E+01  0.52159968934E+01 -0.88173675020E+01  0.10369762671E+02  0.51100000000E-03 0.  1.
         12    1    3    3    0    0  0.12505114196E+02  0.73565313304E+01  0.43643131066E+01  0.15150698438E+02  0.00000000000E+00 0. -1.
</event>
<event>
 7    1  0.5761011E-013  0.5930193E+02  0.7816164E-02  0.1266605E+00
        -11   -1    0    0    0    0  0.00000000000E+00  0.00000000000E+00  0.45593999997E+02  0.45594000000E+02  0.51100000000E-03 0.  1.
         11   -1    0    0    0    0 -0.00000000000E+00 -0.00000000000E+00 -0.45593999997E+02  0.45594000000E+02  0.51100000000E-03 0. -1.
    9900012    2    1    2    0    0 -0.24839632778E+02 -0.19589529807E+02  0.39955264258E+01  0.59301933042E+02  0.49999979965E+02 0.  0.
        -12    1    1    2    0    0  0.24839632778E+02  0.19589529807E+02 -0.39955264258E+01  0.31886066958E+02  0.00000000000E+00 0.  1.
         11    1    3    3    0    0 -0.37158887405E+02 -0.56498997769E+01  0.83112209025E+01  0.38493904372E+02  0.51100000000E-03 0. -1.
        -11    1    3    3    0    0  0.12721456626E+01 -0.62706826673E+01 -0.35982824443E+01  0.73408073474E+01  0.51100000000E-03 0.  1.
         12    1    3    3    0    0  0.11047108965E+02 -0.76689473627E+01 -0.71741203239E+00  0.13467221323E+02  0.00000000000E+00 0. -1.
</event>
<event>
 7    1  0.5761011E-013  0.5930194E+02  0.7816164E-02  0.1266605E+00
        -11   -1    0    0    0    0  0.00000000000E+00  0.00000000000E+00  0.45593999997E+02  0.45594000000E+02  0.51100000000E-03 0. -1.
         11   -1    0    0    0    0 -0.00000000000E+00 -0.00000000000E+00 -0.45593999997E+02  0.45594000000E+02  0.51100000000E-03 0.  1.
    9900012    2    1    2    0    0 -0.17852733202E+02  0.67455836239E+01  0.25544037041E+02  0.59301940200E+02  0.49999993019E+02 0.  0.
        -12    1    1    2    0    0  0.17852733202E+02 -0.67455836239E+01 -0.25544037041E+02  0.31886059800E+02  0.00000000000E+00 0.  1.
         11    1    3    3    0    0 -0.98028444630E+01 -0.12649573482E+02  0.12236723709E+02  0.20145591980E+02  0.51100000000E-03 0. -1.
        -11    1    3    3    0    0 -0.15990984555E+02  0.22749399778E+02  0.12533031982E+02  0.30501207651E+02  0.51100000000E-03 0.  1.
         12    1    3    3    0    0  0.79410958154E+01 -0.33542426724E+01  0.77428135103E+00  0.86551405687E+01  0.00000000000E+00 0. -1.
</event>
<event>
 7    1  0.5761011E-013  0.5930188E+02  0.7816164E-02  0.1266605E+00
        -11   -1    0    0    0    0  0.00000000000E+00  0.00000000000E+00  0.45593999997E+02  0.45594000000E+02  0.51100000000E-03 0. -1.
         11   -1    0    0    0    0 -0.00000000000E+00 -0.00000000000E+00 -0.45593999997E+02  0.45594000000E+02  0.51100000000E-03 0.  1.
    9900012    2    1    2    0    0  0.26910858135E+01  0.24055192063E+02  0.20756452377E+02  0.59301881966E+02  0.49999886813E+02 0.  0.
        -12    1    1    2    0    0 -0.26910858135E+01 -0.24055192063E+02 -0.20756452377E+02  0.31886118034E+02  0.00000000000E+00 0.  1.
         11    1    3    3    0    0 -0.28678269641E+01  0.60340490492E+01 -0.38806633508E+01  0.77261716087E+01  0.51100000000E-03 0. -1.
        -11    1    3    3    0    0  0.86657899062E+01 -0.10956175457E+02  0.15870052514E+02  0.21142191523E+02  0.51100000000E-03 0.  1.
        -12    1    3    3    0    0 -0.31068771287E+01  0.28977318470E+02  0.87670632132E+01  0.30433518834E+02  0.00000000000E+00 0.  1.
</event>
<event>
 7    1  0.5761011E-013  0.5930195E+02  0.7816164E-02  0.1266605E+00
        -11   -1    0    0    0    0  0.00000000000E+00  0.00000000000E+00  0.45593999997E+02  0.45594000000E+02  0.51100000000E-03 0. -1.
         11   -1    0    0    0    0 -0.00000000000E+00 -0.00000000000E+00 -0.45593999997E+02  0.45594000000E+02  0.51100000000E-03 0.  1.
    9900012    2    1    2    0    0  0.27512014183E+02 -0.14422129242E+02  0.71980217705E+01  0.59301948917E+02  0.50000008916E+02 0.  0.
        -12    1    1    2    0    0 -0.27512014183E+02  0.14422129242E+02 -0.71980217705E+01  0.31886051083E+02  0.00000000000E+00 0.  1.
         11    1    3    3    0    0  0.82870456719E+01 -0.26722398368E+02 -0.96221679581E+01  0.29586277512E+02  0.51100000000E-03 0. -1.
        -11    1    3    3    0    0  0.62920446248E+01  0.10977730856E+00  0.69904710636E+01  0.94057728322E+01  0.51100000000E-03 0.  1.
         12    1    3    3    0    0  0.12932923886E+02  0.12190491817E+02  0.98297186650E+01  0.20309898573E+02  0.00000000000E+00 0. -1.
</event>
<event>
 7    1  0.5761011E-013  0.5930197E+02  0.7816164E-02  0.1266605E+00
        -11   -1    0    0    0    0  0.00000000000E+00  0.00000000000E+00  0.45593999997E+02  0.45594000000E+02  0.51100000000E-03 0. -1.
         11   -1    0    0    0    0 -0.00000000000E+00 -0.00000000000E+00 -0.45593999997E+02  0.45594000000E+02  0.51100000000E-03 0.  1.
    9900012    2    1    2    0    0 -0.19814083891E+02  0.93589094483E+01  0.23163157215E+02  0.59301969224E+02  0.50000045952E+02 0.  0.
        -12    1    1    2    0    0  0.19814083891E+02 -0.93589094483E+01 -0.23163157215E+02  0.31886030776E+02  0.00000000000E+00 0.  1.
         11    1    3    3    0    0 -0.37258499405E+01  0.64042983085E+01  0.15092965030E+02  0.16813523970E+02  0.51100000000E-03 0. -1.
        -11    1    3    3    0    0 -0.58607695453E+01  0.10426380086E+02 -0.13149846786E+02  0.17775727612E+02  0.51100000000E-03 0.  1.
        -12    1    3    3    0    0 -0.10227464405E+02 -0.74717689465E+01  0.21220038971E+02  0.24712717642E+02  0.00000000000E+00 0.  1.
</event>
<event>
 7    1  0.5761011E-013  0.5930196E+02  0.7816164E-02  0.1266605E+00
        -11   -1    0    0    0    0  0.00000000000E+00  0.00000000000E+00  0.45593999997E+02  0.45594000000E+02  0.51100000000E-03 0.  1.
         11   -1    0    0    0    0 -0.00000000000E+00 -0.00000000000E+00 -0.45593999997E+02  0.45594000000E+02  0.51100000000E-03 0. -1.
    9900012    2    1    2    0    0 -0.21492643203E+02  0.22403891594E+02 -0.72699049724E+01  0.59301959345E+02  0.50000027934E+02 0.  0.
        -12    1    1    2    0    0  0.21492643203E+02 -0.22403891594E+02  0.72699049724E+01  0.31886040655E+02  0.00000000000E+00 0.  1.
         11    1    3    3    0    0 -0.13367467055E+02  0.10901521207E+02 -0.24455793621E+02  0.29926880593E+02  0.51100000000E-03 0. -1.
        -11    1    3    3    0    0 -0.96912327506E+01  0.16182925522E+02  0.13069214670E+02  0.22948016102E+02  0.51100000000E-03 0.  1.
         12    1    3    3    0    0  0.15660566030E+01 -0.46805551352E+01  0.41166739788E+01  0.64270626499E+01  0.00000000000E+00 0. -1.
</event>
<event>
 7    1  0.5761011E-013  0.5930198E+02  0.7816164E-02  0.1266605E+00
        -11   -1    0    0    0    0  0.00000000000E+00  0.00000000000E+00  0.45593999997E+02  0.45594000000E+02  0.51100000000E-03 0. -1.
         11   -1    0    0    0    0 -0.00000000000E+00 -0.00000000000E+00 -0.45593999997E+02  0.45594000000E+02  0.51100000000E-03 0.  1.
    9900012    2    1    2    0    0 -0.23020763622E+02  0.13755502405E+02  0.17249597837E+02  0.59301983791E+02  0.50000072519E+02 0.  0.
        -12    1    1    2    0    0  0.23020763622E+02 -0.13755502405E+02 -0.17249597837E+02  0.31886016209E+02  0.00000000000E+00 0.  1.
         11    1    3    3    0    0 -0.17277085836E+02  0.22179253420E+02  0.20956111994E+02  0.35065304895E+02  0.51100000000E-03 0. -1.
        -11    1    3    3    0    0 -0.31994615633E+01 -0.87586944610E+01  0.79790945626E+01  0.12272621287E+02  0.51100000000E-03 0.  1.
         12    1    3    3    0    0 -0.25442162233E+01  0.33494344569E+00 -0.11685608720E+02  0.11964057609E+02  0.00000000000E+00 0. -1.
</event>
<event>
 7    1  0.5761011E-013  0.5930197E+02  0.7816164E-02  0.1266605E+00
        -11   -1    0    0    0    0  0.00000000000E+00  0.00000000000E+00  0.45593999997E+02  0.45594000000E+02  0.51100000000E-03 0. -1.
         11   -1    0    0    0    0 -0.00000000000E+00 -0.00000000000E+00 -0.45593999997E+02  0.45594000000E+02  0.51100000000E-03 0.  1.
    9900012    2    1    2    0    0  0.17729023816E+02  0.18831735700E+02  0.18648493481E+02  0.59301970707E+02  0.50000048657E+02 0.  0.
        -12    1    1    2    0    0 -0.17729023816E+02 -0.18831735700E+02 -0.18648493481E+02  0.31886029293E+02  0.00000000000E+00 0.  1.
         11    1    3    3    0    0  0.12408492447E+02  0.18085328230E+01  0.25383580141E+02  0.28311969498E+02  0.51100000000E-03 0. -1.
        -11    1    3    3    0    0 -0.87417963619E+01  0.11798392041E+02 -0.63099672764E+01  0.15982388610E+02  0.51100000000E-03 0.  1.
         12    1    3    3    0    0  0.14062327730E+02  0.52248108363E+01 -0.42511938392E+00  0.15007612600E+02  0.00000000000E+00 0. -1.
</event>
<event>
 7    1  0.5761011E-013  0.5930184E+02  0.7816164E-02  0.1266605E+00
        -11   -1    0    0    0    0  0.00000000000E+00  0.00000000000E+00  0.45593999997E+02  0.45594000000E+02  0.51100000000E-03 0.  1.
         11   -1    0    0    0    0 -0.00000000000E+00 -0.00000000000E+00 -0.45593999997E+02  0.45594000000E+02  0.51100000000E-03 0. -1.
    9900012    2    1    2    0    0  0.63525786351E+01 -0.31135338621E+02 -0.26387083371E+01  0.59301837672E+02  0.49999806032E+02 0.  0.
        -12    1    1    2    0    0 -0.63525786351E+01  0.31135338621E+02  0.26387083371E+01  0.31886162328E+02  0.00000000000E+00 0.  1.
         11    1    3    3    0    0  0.92889389868E+01 -0.35336305501E+02 -0.10971823472E+02  0.38148653771E+02  0.51100000000E-03 0. -1.
        -11    1    3    3    0    0  0.20960654059E+01 -0.19776032109E+01  0.12028829745E+02  0.12369201669E+02  0.51100000000E-03 0.  1.
         12    1    3    3    0    0 -0.50324257576E+01  0.61785700911E+01 -0.36957146100E+01  0.87839822322E+01  0.00000000000E+00 0. -1.
</event>
<event>
 7    1  0.5761011E-013  0.5930195E+02  0.7816164E-02  0.1266605E+00
        -11   -1    0    0    0    0  0.00000000000E+00  0.00000000000E+00  0.45593999997E+02  0.45594000000E+02  0.51100000000E-03 0.  1.
         11   -1    0    0    0    0 -0.00000000000E+00 -0.00000000000E+00 -0.45593999997E+02  0.45594000000E+02  0.51100000000E-03 0. -1.
    9900012    2    1    2    0    0  0.90200684499E+01  0.26302266030E+02 -0.15606059347E+02  0.59301954126E+02  0.50000018417E+02 0.  0.
        -12    1    1    2    0    0 -0.90200684499E+01 -0.26302266030E+02  0.15606059347E+02  0.31886045874E+02  0.00000000000E+00 0.  1.
         11    1    3    3    0    0  0.26433273819E+02  0.38823680508E+01 -0.24934932962E+01  0.26832969563E+02  0.51100000000E-03 0. -1.
        -11    1    3    3    0    0 -0.53421951087E+00  0.11624425177E+01 -0.34120513827E+01  0.36440030176E+01  0.51100000000E-03 0.  1.
         12    1    3    3    0    0 -0.16878985858E+02  0.21257455461E+02 -0.97005146678E+01  0.28824981546E+02  0.00000000000E+00 0. -1.
</event>
<event>
 7    1  0.5761011E-013  0.5930195E+02  0.7816164E-02  0.1266605E+00
        -11   -1    0    0    0    0  0.00000000000E+00  0.00000000000E+00  0.45593999997E+02  0.45594000000E+02  0.51100000000E-03 0. -1.
         11   -1    0    0    0    0 -0.00000000000E+00 -0.00000000000E+00 -0.45593999997E+02  0.45594000000E+02  0.51100000000E-03 0.  1.
    9900012    2    1    2    0    0  0.20919381313E+02 -0.63091497818E+00  0.24056215758E+02  0.59301951565E+02  0.50000013746E+02 0.  0.
        -12    1    1    2    0    0 -0.20919381313E+02  0.63091497818E+00 -0.24056215758E+02  0.31886048435E+02  0.00000000000E+00 0.  1.
         11    1    3    3    0    0  0.19136646103E+02  0.10841837353E+02  0.18071689413E+02  0.28466517520E+02  0.51100000000E-03 0. -1.
        -11    1    3    3    0    0 -0.27586823588E+01 -0.13594019308E+02 -0.79771018433E+01  0.16001307552E+02  0.51100000000E-03 0.  1.
         12    1    3    3    0    0  0.45414175689E+01  0.21212669762E+01  0.13961628188E+02  0.14834126492E+02  0.00000000000E+00 0. -1.
</event>
<event>
 7    1  0.5761011E-013  0.5930194E+02  0.7816164E-02  0.1266605E+00
        -11   -1    0    0    0    0  0.00000000000E+00  0.00000000000E+00  0.45593999997E+02  0.45594000000E+02  0.51100000000E-03 0.  1.
         11   -1    0    0    0    0 -0.00000000000E+00 -0.00000000000E+00 -0.45593999997E+02  0.45594000000E+02  0.51100000000E-03 0. -1.
    9900012    2    1    2    0    0  0.26617992329E+02  0.12428899372E+02 -0.12398616328E+02  0.59301941258E+02  0.49999994949E+02 0.  0.
        -12    1    1    2    0    0 -0.26617992329E+02 -0.12428899372E+02  0.12398616328E+02  0.31886058742E+02  0.00000000000E+00 0.  1.
         11    1    3    3    0    0 -0.26019066161E+01  0.97942542778E+01 -0.81020712173E+01  0.12974624972E+02  0.51100000000E-03 0. -1.
        -11    1    3    3    0    0  0.32161977751E+02 -0.70587143774E+01  0.40843660291E+01  0.33179817776E+02  0.51100000000E-03 0.  1.
        -12    1    3    3    0    0 -0.29420788060E+01  0.96933594717E+01 -0.83809111401E+01  0.13147498511E+02  0.00000000000E+00 0.  1.
</event>
<event>
 7    1  0.5761011E-013  0.5930194E+02  0.7816164E-02  0.1266605E+00
        -11   -1    0    0    0    0  0.00000000000E+00  0.00000000000E+00  0.45593999997E+02  0.45594000000E+02  0.51100000000E-03 0. -1.
         11   -1    0    0    0    0 -0.00000000000E+00 -0.00000000000E+00 -0.45593999997E+02  0.45594000000E+02  0.51100000000E-03 0.  1.
    9900012    2    1    2    0    0 -0.14489778782E+02 -0.11726598587E+02  0.25869942825E+02  0.59301941207E+02  0.49999994856E+02 0.  0.
        -12    1    1    2    0    0  0.14489778782E+02  0.11726598587E+02 -0.25869942825E+02  0.31886058793E+02  0.00000000000E+00 0.  1.
         11    1    3    3    0    0  0.36716536820E+01 -0.35631564386E+01  0.37487321925E+01  0.63427216460E+01  0.51100000000E-03 0. -1.
        -11    1    3    3    0    0 -0.18686953446E+02  0.15517716724E+02  0.91737012003E+01  0.25964563455E+02  0.51100000000E-03 0.  1.
        -12    1    3    3    0    0  0.52552098182E+00 -0.23681158872E+02  0.12947509432E+02  0.26994656107E+02  0.00000000000E+00 0.  1.
</event>
<event>
 7    1  0.5761011E-013  0.5930196E+02  0.7816164E-02  0.1266605E+00
        -11   -1    0    0    0    0  0.00000000000E+00  0.00000000000E+00  0.45593999997E+02  0.45594000000E+02  0.51100000000E-03 0.  1.
         11   -1    0    0    0    0 -0.00000000000E+00 -0.00000000000E+00 -0.45593999997E+02  0.45594000000E+02  0.51100000000E-03 0. -1.
    9900012    2    1    2    0    0 -0.77829324248E+01 -0.48486706546E+01 -0.30539086533E+02  0.59301961511E+02  0.50000031886E+02 0.  0.
        -12    1    1    2    0    0  0.77829324248E+01  0.48486706546E+01  0.30539086533E+02  0.31886038489E+02  0.00000000000E+00 0.  1.
         11    1    3    3    0    0 -0.14779858020E+02  0.58916737337E+01 -0.16255110042E+02  0.22746090329E+02  0.51100000000E-03 0. -1.
        -11    1    3    3    0    0  0.11932313969E+02  0.79264247611E+01 -0.66487117832E+01  0.15792836819E+02  0.51100000000E-03 0.  1.
        -12    1    3    3    0    0 -0.49353883731E+01 -0.18666769149E+02 -0.76352647070E+01  0.20763034364E+02  0.00000000000E+00 0.  1.
</event>
<event>
 7    1  0.5761011E-013  0.5930196E+02  0.7816164E-02  0.1266605E+00
        -11   -1    0    0    0    0  0.00000000000E+00  0.00000000000E+00  0.45593999997E+02  0.45594000000E+02  0.51100000000E-03 0.  1.
         11   -1    0    0    0    0 -0.00000000000E+00 -0.00000000000E+00 -0.45593999997E+02  0.45594000000E+02  0.51100000000E-03 0. -1.
    9900012    2    1    2    0    0  0.18201151343E+02  0.12008917985E+02 -0.23264204612E+02  0.59301964850E+02  0.50000037974E+02 0.  0.
        -12    1    1    2    0    0 -0.18201151343E+02 -0.12008917985E+02  0.23264204612E+02  0.31886035150E+02  0.00000000000E+00 0.  1.
         11    1    3    3    0    0 -0.35835037306E+00 -0.59519300362E+01  0.22321260639E+01  0.63668102824E+01  0.51100000000E-03 0.  1.
        -11    1    3    3    0    0  0.24919731232E+02  0.16496458723E+02 -0.36172250994E+01  0.30103329928E+02  0.51100000000E-03 0. -1.
        -12    1    3    3    0    0 -0.63602295164E+01  0.14643892976E+01 -0.21879105576E+02  0.22831824639E+02  0.00000000000E+00 0.  1.
</event>
<event>
 7    1  0.5761011E-013  0.5930195E+02  0.7816164E-02  0.1266605E+00
        -11   -1    0    0    0    0  0.00000000000E+00  0.00000000000E+00  0.45593999997E+02  0.45594000000E+02  0.51100000000E-03 0.  1.
         11   -1    0    0    0    0 -0.00000000000E+00 -0.00000000000E+00 -0.45593999997E+02  0.45594000000E+02  0.51100000000E-03 0. -1.
    9900012    2    1    2    0    0  0.16274754913E+02  0.25212323316E+02 -0.10779220210E+02  0.59301945324E+02  0.50000002364E+02 0.  0.
        -12    1    1    2    0    0 -0.16274754913E+02 -0.25212323316E+02  0.10779220210E+02  0.31886054676E+02  0.00000000000E+00 0.  1.
         11    1    3    3    0    0  0.16817365046E+02  0.11145460489E+02 -0.10307614304E+01  0.20201671366E+02  0.51100000000E-03 0. -1.
        -11    1    3    3    0    0 -0.15122820587E+02  0.15525522949E+02 -0.31982066911E+00  0.21675881778E+02  0.51100000000E-03 0.  1.
        -12    1    3    3    0    0  0.14580210454E+02 -0.14586601220E+01 -0.94286381105E+01  0.17424392180E+02  0.00000000000E+00 0.  1.
</event>
<event>
 7    1  0.5761011E-013  0.5930191E+02  0.7816164E-02  0.1266605E+00
        -11   -1    0    0    0    0  0.00000000000E+00  0.00000000000E+00  0.45593999997E+02  0.45594000000E+02  0.51100000000E-03 0. -1.
         11   -1    0    0    0    0 -0.00000000000E+00 -0.00000000000E+00 -0.45593999997E+02  0.45594000000E+02  0.51100000000E-03 0.  1.
    9900012    2    1    2    0    0  0.12532422287E+02  0.18955221262E+02  0.22368743130E+02  0.59301910702E+02  0.49999939223E+02 0.  0.
        -12    1    1    2    0    0 -0.12532422287E+02 -0.18955221262E+02 -0.22368743130E+02  0.31886089298E+02  0.00000000000E+00 0.  1.
         11    1    3    3    0    0  0.10386803882E+02 -0.72119475626E+01  0.11871878855E+02  0.17344722262E+02  0.51100000000E-03 0. -1.
        -11    1    3    3    0    0  0.11807328342E+02  0.24308757092E+02  0.15249908832E+02  0.31030443013E+02  0.51100000000E-03 0.  1.
        -12    1    3    3    0    0 -0.96617099370E+01  0.18584117329E+01 -0.47530445574E+01  0.10926745428E+02  0.00000000000E+00 0.  1.
</event>
<event>
 7    1  0.5761011E-013  0.5930193E+02  0.7816164E-02  0.1266605E+00
        -11   -1    0    0    0    0  0.00000000000E+00  0.00000000000E+00  0.45593999997E+02  0.45594000000E+02  0.51100000000E-03 0. -1.
         11   -1    0    0    0    0 -0.00000000000E+00 -0.00000000000E+00 -0.45593999997E+02  0.45594000000E+02  0.51100000000E-03 0.  1.
    9900012    2    1    2    0    0  0.17485875148E+02  0.21455806652E+02  0.15830783474E+02  0.59301934483E+02  0.49999982592E+02 0.  0.
        -12    1    1    2    0    0 -0.17485875148E+02 -0.21455806652E+02 -0.15830783474E+02  0.31886065517E+02  0.00000000000E+00 0.  1.
         11    1    3    3    0    0 -0.75051296561E+01  0.28334885491E+02  0.12560729986E+02  0.31889883114E+02  0.51100000000E-03 0. -1.
        -11    1    3    3    0    0  0.18171881783E+02 -0.61152393207E+01 -0.12195998616E+01  0.19211997907E+02  0.51100000000E-03 0.  1.
         12    1    3    3    0    0  0.68191230214E+01 -0.76383951859E+00  0.44896533489E+01  0.82000534623E+01  0.00000000000E+00 0. -1.
</event>
<event>
 7    1  0.5761011E-013  0.5930195E+02  0.7816164E-02  0.1266605E+00
        -11   -1    0    0    0    0  0.00000000000E+00  0.00000000000E+00  0.45593999997E+02  0.45594000000E+02  0.51100000000E-03 0. -1.
         11   -1    0    0    0    0 -0.00000000000E+00 -0.00000000000E+00 -0.45593999997E+02  0.45594000000E+02  0.51100000000E-03 0.  1.
    9900012    2    1    2    0    0 -0.28032760395E+02 -0.14559915937E+02  0.43466258747E+01  0.59301953459E+02  0.50000017201E+02 0.  0.
        -12    1    1    2    0    0  0.28032760395E+02  0.14559915937E+02 -0.43466258747E+01  0.31886046541E+02  0.00000000000E+00 0.  1.
         11    1    3    3    0    0 -0.19159578473E+02 -0.23307445858E+02  0.12815022195E+02  0.32780348897E+02  0.51100000000E-03 0. -1.
        -11    1    3    3    0    0  0.70010062153E+01  0.55629787363E+01 -0.31100017539E+01  0.94674670117E+01  0.51100000000E-03 0.  1.
        -12    1    3    3    0    0 -0.15874188137E+02  0.31845511845E+01 -0.53583945662E+01  0.17054137551E+02  0.00000000000E+00 0.  1.
</event>
<event>
 7    1  0.5761011E-013  0.5930194E+02  0.7816164E-02  0.1266605E+00
        -11   -1    0    0    0    0  0.00000000000E+00  0.00000000000E+00  0.45593999997E+02  0.45594000000E+02  0.51100000000E-03 0.  1.
         11   -1    0    0    0    0 -0.00000000000E+00 -0.00000000000E+00 -0.45593999997E+02  0.45594000000E+02  0.51100000000E-03 0. -1.
    9900012    2    1    2    0    0 -0.11286200149E+02  0.66311851946E+01 -0.29075242099E+02  0.59301942953E+02  0.49999998040E+02 0.  0.
        -12    1    1    2    0    0  0.11286200149E+02 -0.66311851946E+01  0.29075242099E+02  0.31886057047E+02  0.00000000000E+00 0.  1.
         11    1    3    3    0    0  0.42964861764E+00  0.16133943348E+02  0.86455475166E+01  0.18309402448E+02  0.51100000000E-03 0. -1.
        -11    1    3    3    0    0 -0.12263098902E+02 -0.87467334649E+01 -0.36191714000E+02  0.39201136508E+02  0.51100000000E-03 0.  1.
         12    1    3    3    0    0  0.54725013604E+00 -0.75602468862E+00 -0.15290756154E+01  0.17914039966E+01  0.00000000000E+00 0. -1.
</event>
<event>
 7    1  0.5761011E-013  0.5930197E+02  0.7816164E-02  0.1266605E+00
        -11   -1    0    0    0    0  0.00000000000E+00  0.00000000000E+00  0.45593999997E+02  0.45594000000E+02  0.51100000000E-03 0. -1.
         11   -1    0    0    0    0 -0.00000000000E+00 -0.00000000000E+00 -0.45593999997E+02  0.45594000000E+02  0.51100000000E-03 0.  1.
    9900012    2    1    2    0    0  0.16639415387E+01  0.22815678090E+02  0.22212493924E+02  0.59301972426E+02  0.50000051791E+02 0.  0.
        -12    1    1    2    0    0 -0.16639415387E+01 -0.22815678090E+02 -0.22212493924E+02  0.31886027574E+02  0.00000000000E+00 0.  1.
         11    1    3    3    0    0 -0.11475156469E+02  0.24533094771E+02  0.10222742581E+02  0.28949204155E+02  0.51100000000E-03 0. -1.
        -11    1    3    3    0    0  0.84527727317E+01 -0.44920151655E+01 -0.61736799822E+01  0.11390429838E+02  0.51100000000E-03 0.  1.
         12    1    3    3    0    0  0.46863252763E+01  0.27745984836E+01  0.18163431326E+02  0.18962338433E+02  0.00000000000E+00 0. -1.
</event>
<event>
 7    1  0.5761011E-013  0.5930195E+02  0.7816164E-02  0.1266605E+00
        -11   -1    0    0    0    0  0.00000000000E+00  0.00000000000E+00  0.45593999997E+02  0.45594000000E+02  0.51100000000E-03 0.  1.
         11   -1    0    0    0    0 -0.00000000000E+00 -0.00000000000E+00 -0.45593999997E+02  0.45594000000E+02  0.51100000000E-03 0. -1.
    9900012    2    1    2    0    0  0.82042165589E+01  0.16960609274E+02 -0.25724481008E+02  0.59301947259E+02  0.50000005893E+02 0.  0.
        -12    1    1    2    0    0 -0.82042165589E+01 -0.16960609274E+02  0.25724481008E+02  0.31886052741E+02  0.00000000000E+00 0.  1.
         11    1    3    3    0    0 -0.94044585967E+01  0.26664200409E+02 -0.13126713677E+02  0.31172648864E+02  0.51100000000E-03 0.  1.
        -11    1    3    3    0    0  0.65272325018E+01  0.58306182317E+00 -0.11159106659E+02  0.12941035002E+02  0.51100000000E-03 0. -1.
        -12    1    3    3    0    0  0.11081442654E+02 -0.10286652959E+02 -0.14386606718E+01  0.15188263393E+02  0.00000000000E+00 0.  1.
</event>
<event>
 7    1  0.5761011E-013  0.5930194E+02  0.7816164E-02  0.1266605E+00
        -11   -1    0    0    0    0  0.00000000000E+00  0.00000000000E+00  0.45593999997E+02  0.45594000000E+02  0.51100000000E-03 0. -1.
         11   -1    0    0    0    0 -0.00000000000E+00 -0.00000000000E+00 -0.45593999997E+02  0.45594000000E+02  0.51100000000E-03 0.  1.
    9900012    2    1    2    0    0  0.94815889475E+01  0.10780421204E+02  0.28471083503E+02  0.59301943390E+02  0.49999998837E+02 0.  0.
        -12    1    1    2    0    0 -0.94815889475E+01 -0.10780421204E+02 -0.28471083503E+02  0.31886056610E+02  0.00000000000E+00 0.  1.
         11    1    3    3    0    0  0.84402013574E+01  0.23128452195E+01 -0.11300018455E+02  0.14292538938E+02  0.51100000000E-03 0.  1.
        -11    1    3    3    0    0 -0.14211081816E+01  0.14299637643E+02  0.23440160426E+02  0.27494368628E+02  0.51100000000E-03 0. -1.
        -12    1    3    3    0    0  0.24624957718E+01 -0.58320616580E+01  0.16330941532E+02  0.17515035824E+02  0.00000000000E+00 0.  1.
</event>
<event>
 7    1  0.5761011E-013  0.5930194E+02  0.7816164E-02  0.1266605E+00
        -11   -1    0    0    0    0  0.00000000000E+00  0.00000000000E+00  0.45593999997E+02  0.45594000000E+02  0.51100000000E-03 0.  1.
         11   -1    0    0    0    0 -0.00000000000E+00 -0.00000000000E+00 -0.45593999997E+02  0.45594000000E+02  0.51100000000E-03 0. -1.
    9900012    2    1    2    0    0 -0.77747346575E+01  0.19761261558E+00 -0.30923057440E+02  0.59301936725E+02  0.49999986682E+02 0.  0.
        -12    1    1    2    0    0  0.77747346575E+01 -0.19761261558E+00  0.30923057440E+02  0.31886063275E+02  0.00000000000E+00 0.  1.
         11    1    3    3    0    0  0.27293040690E+00  0.39192201257E+01 -0.37042084232E+01  0.53996238484E+01  0.51100000000E-03 0. -1.
        -11    1    3    3    0    0 -0.31057531877E+01 -0.61740407279E+01 -0.39678488354E+02  0.40275885094E+02  0.51100000000E-03 0.  1.
        -12    1    3    3    0    0 -0.49419118768E+01  0.24524332178E+01  0.12459639338E+02  0.13626427783E+02  0.00000000000E+00 0.  1.
</event>
<event>
 7    1  0.5761011E-013  0.5930195E+02  0.7816164E-02  0.1266605E+00
        -11   -1    0    0    0    0  0.00000000000E+00  0.00000000000E+00  0.45593999997E+02  0.45594000000E+02  0.51100000000E-03 0.  1.
         11   -1    0    0    0    0 -0.00000000000E+00 -0.00000000000E+00 -0.45593999997E+02  0.45594000000E+02  0.51100000000E-03 0. -1.
    9900012    2    1    2    0    0  0.99299128271E+01  0.29157234902E+02  0.82445514460E+01  0.59301950630E+02  0.50000012040E+02 0.  0.
        -12    1    1    2    0    0 -0.99299128271E+01 -0.29157234902E+02 -0.82445514460E+01  0.31886049370E+02  0.00000000000E+00 0.  1.
         11    1    3    3    0    0 -0.15486205394E-01  0.23081918745E+02 -0.44214623409E+01  0.23501585952E+02  0.51100000000E-03 0. -1.
        -11    1    3    3    0    0  0.12172731485E+02 -0.99377963417E+01  0.77907132644E+00  0.15733471973E+02  0.51100000000E-03 0.  1.
        -12    1    3    3    0    0 -0.22273324524E+01  0.16013112499E+02  0.11886942461E+02  0.20066892705E+02  0.00000000000E+00 0.  1.
</event>
<event>
 7    1  0.5761011E-013  0.5930192E+02  0.7816164E-02  0.1266605E+00
        -11   -1    0    0    0    0  0.00000000000E+00  0.00000000000E+00  0.45593999997E+02  0.45594000000E+02  0.51100000000E-03 0. -1.
         11   -1    0    0    0    0 -0.00000000000E+00 -0.00000000000E+00 -0.45593999997E+02  0.45594000000E+02  0.51100000000E-03 0.  1.
    9900012    2    1    2    0    0  0.14129902339E+02  0.27946412805E+02 -0.60054779034E+01  0.59301923201E+02  0.49999962017E+02 0.  0.
        -12    1    1    2    0    0 -0.14129902339E+02 -0.27946412805E+02  0.60054779034E+01  0.31886076799E+02  0.00000000000E+00 0.  1.
         11    1    3    3    0    0  0.25882342425E+02  0.11747161169E+02 -0.77931085048E+01  0.29472427544E+02  0.51100000000E-03 0. -1.
        -11    1    3    3    0    0 -0.66356978773E+01  0.21122919600E+02 -0.10902721868E+01  0.22167519312E+02  0.51100000000E-03 0.  1.
         12    1    3    3    0    0 -0.51167422083E+01 -0.49236679643E+01  0.28779027882E+01  0.76619763447E+01  0.00000000000E+00 0. -1.
</event>
<event>
 7    1  0.5761011E-013  0.5930191E+02  0.7816164E-02  0.1266605E+00
        -11   -1    0    0    0    0  0.00000000000E+00  0.00000000000E+00  0.45593999997E+02  0.45594000000E+02  0.51100000000E-03 0.  1.
         11   -1    0    0    0    0 -0.00000000000E+00 -0.00000000000E+00 -0.45593999997E+02  0.45594000000E+02  0.51100000000E-03 0. -1.
    9900012    2    1    2    0    0  0.17088288479E+02  0.23533097449E+02 -0.13073123726E+02  0.59301908320E+02  0.49999934878E+02 0.  0.
        -12    1    1    2    0    0 -0.17088288479E+02 -0.23533097449E+02  0.13073123726E+02  0.31886091680E+02  0.00000000000E+00 0.  1.
         11    1    3    3    0    0 -0.43481099658E+00  0.21961210973E+02 -0.12417771592E+02  0.25232615789E+02  0.51100000000E-03 0. -1.
        -11    1    3    3    0    0  0.20315611042E+02 -0.96124927486E+01 -0.13921815253E+01  0.22518042510E+02  0.51100000000E-03 0.  1.
        -12    1    3    3    0    0 -0.27925115664E+01  0.11184379225E+02  0.73682939132E+00  0.11551250021E+02  0.00000000000E+00 0.  1.
</event>
<event>
 7    1  0.5761011E-013  0.5930195E+02  0.7816164E-02  0.1266605E+00
        -11   -1    0    0    0    0  0.00000000000E+00  0.00000000000E+00  0.45593999997E+02  0.45594000000E+02  0.51100000000E-03 0. -1.
         11   -1    0    0    0    0 -0.00000000000E+00 -0.00000000000E+00 -0.45593999997E+02  0.45594000000E+02  0.51100000000E-03 0.  1.
    9900012    2    1    2    0    0 -0.25333926712E+02 -0.31163289605E+01  0.19110231022E+02  0.59301948527E+02  0.50000008205E+02 0.  0.
        -12    1    1    2    0    0  0.25333926712E+02  0.31163289605E+01 -0.19110231022E+02  0.31886051473E+02  0.00000000000E+00 0.  1.
         11    1    3    3    0    0 -0.42861402883E+01  0.73812995234E+01  0.12215238469E+02  0.14901900293E+02  0.51100000000E-03 0. -1.
        -11    1    3    3    0    0 -0.29931902047E+02 -0.11176583823E+02  0.12001775437E+02  0.34130300321E+02  0.51100000000E-03 0.  1.
        -12    1    3    3    0    0  0.88841156235E+01  0.67895533901E+00 -0.51067828843E+01  0.10269747913E+02  0.00000000000E+00 0.  1.
</event>
<event>
 7    1  0.5761011E-013  0.5930194E+02  0.7816164E-02  0.1266605E+00
        -11   -1    0    0    0    0  0.00000000000E+00  0.00000000000E+00  0.45593999997E+02  0.45594000000E+02  0.51100000000E-03 0.  1.
         11   -1    0    0    0    0 -0.00000000000E+00 -0.00000000000E+00 -0.45593999997E+02  0.45594000000E+02  0.51100000000E-03 0. -1.
    9900012    2    1    2    0    0  0.23418068017E+02 -0.18136502662E+02 -0.11806035647E+02  0.59301935393E+02  0.49999984252E+02 0.  0.
        -12    1    1    2    0    0 -0.23418068017E+02  0.18136502662E+02  0.11806035647E+02  0.31886064607E+02  0.00000000000E+00 0.  1.
         11    1    3    3    0    0  0.25136667210E+02 -0.31309197567E+02 -0.15684587992E+02  0.43105964685E+02  0.51100000000E-03 0. -1.
        -11    1    3    3    0    0 -0.16334047111E+01  0.61188125927E+00  0.31659834191E+01  0.36146730000E+01  0.51100000000E-03 0.  1.
         12    1    3    3    0    0 -0.85194482479E-01  0.12560813646E+02  0.71256892573E+00  0.12581297708E+02  0.00000000000E+00 0. -1.
</event>
<event>
 7    1  0.5761011E-013  0.5930194E+02  0.7816164E-02  0.1266605E+00
        -11   -1    0    0    0    0  0.00000000000E+00  0.00000000000E+00  0.45593999997E+02  0.45594000000E+02  0.51100000000E-03 0. -1.
         11   -1    0    0    0    0 -0.00000000000E+00 -0.00000000000E+00 -0.45593999997E+02  0.45594000000E+02  0.51100000000E-03 0.  1.
    9900012    2    1    2    0    0 -0.12405151049E+02 -0.29205287041E+02  0.31439033758E+01  0.59301942042E+02  0.49999996378E+02 0.  0.
        -12    1    1    2    0    0  0.12405151049E+02  0.29205287041E+02 -0.31439033758E+01  0.31886057958E+02  0.00000000000E+00 0.  1.
         11    1    3    3    0    0  0.25277032885E+01 -0.58024170839E+01  0.10425681611E+01  0.64143804504E+01  0.51100000000E-03 0. -1.
        -11    1    3    3    0    0 -0.23455052743E+02 -0.63877996727E+01  0.16192376047E+02  0.29208500923E+02  0.51100000000E-03 0.  1.
        -12    1    3    3    0    0  0.85221984053E+01 -0.17015070284E+02 -0.14091040832E+02  0.23679060669E+02  0.00000000000E+00 0.  1.
</event>
<event>
 7    1  0.5761011E-013  0.5930182E+02  0.7816164E-02  0.1266605E+00
        -11   -1    0    0    0    0  0.00000000000E+00  0.00000000000E+00  0.45593999997E+02  0.45594000000E+02  0.51100000000E-03 0. -1.
         11   -1    0    0    0    0 -0.00000000000E+00 -0.00000000000E+00 -0.45593999997E+02  0.45594000000E+02  0.51100000000E-03 0.  1.
    9900012    2    1    2    0    0 -0.15159844369E+02  0.13927185653E+01  0.28017276497E+02  0.59301822295E+02  0.49999777989E+02 0.  0.
        -12    1    1    2    0    0  0.15159844369E+02 -0.13927185653E+01 -0.28017276497E+02  0.31886177705E+02  0.00000000000E+00 0.  1.
         11    1    3    3    0    0 -0.20462010373E+02 -0.50820053214E+01  0.16500932254E+02  0.26773147221E+02  0.51100000000E-03 0. -1.
        -11    1    3    3    0    0  0.12234686050E+02  0.55636695614E+00  0.17692652808E+02  0.21518063356E+02  0.51100000000E-03 0.  1.
        -12    1    3    3    0    0 -0.69325200453E+01  0.59183569305E+01 -0.61763085653E+01  0.11010611719E+02  0.00000000000E+00 0.  1.
</event>
<event>
 7    1  0.5761011E-013  0.5930196E+02  0.7816164E-02  0.1266605E+00
        -11   -1    0    0    0    0  0.00000000000E+00  0.00000000000E+00  0.45593999997E+02  0.45594000000E+02  0.51100000000E-03 0.  1.
         11   -1    0    0    0    0 -0.00000000000E+00 -0.00000000000E+00 -0.45593999997E+02  0.45594000000E+02  0.51100000000E-03 0. -1.
    9900012    2    1    2    0    0 -0.17332544242E+02  0.17171494205E+02 -0.20529063717E+02  0.59301956655E+02  0.50000023028E+02 0.  0.
        -12    1    1    2    0    0  0.17332544242E+02 -0.17171494205E+02  0.20529063717E+02  0.31886043345E+02  0.00000000000E+00 0.  1.
         11    1    3    3    0    0 -0.27276901069E+02  0.33318854496E+01 -0.22227065243E+02  0.35343644721E+02  0.51100000000E-03 0. -1.
        -11    1    3    3    0    0  0.47113448742E+01  0.11421650330E+02  0.85341371546E+01  0.15016070192E+02  0.51100000000E-03 0.  1.
        -12    1    3    3    0    0  0.52330119521E+01  0.24179584251E+01 -0.68361356283E+01  0.89422417416E+01  0.00000000000E+00 0.  1.
</event>
<event>
 7    1  0.5761011E-013  0.5930195E+02  0.7816164E-02  0.1266605E+00
        -11   -1    0    0    0    0  0.00000000000E+00  0.00000000000E+00  0.45593999997E+02  0.45594000000E+02  0.51100000000E-03 0.  1.
         11   -1    0    0    0    0 -0.00000000000E+00 -0.00000000000E+00 -0.45593999997E+02  0.45594000000E+02  0.51100000000E-03 0. -1.
    9900012    2    1    2    0    0  0.28228805854E+02 -0.55006197793E+01 -0.13769449941E+02  0.59301952117E+02  0.50000014753E+02 0.  0.
        -12    1    1    2    0    0 -0.28228805854E+02  0.55006197793E+01  0.13769449941E+02  0.31886047883E+02  0.00000000000E+00 0.  1.
         11    1    3    3    0    0  0.30732488720E+02  0.30955276232E+01 -0.77610467431E+01  0.31848108280E+02  0.51100000000E-03 0. -1.
        -11    1    3    3    0    0 -0.10659944777E+02  0.42531390941E+01 -0.14613672668E+01  0.11569754074E+02  0.51100000000E-03 0.  1.
         12    1    3    3    0    0  0.81562619110E+01 -0.12849286497E+02 -0.45470359315E+01  0.15884089763E+02  0.00000000000E+00 0. -1.
</event>
<event>
 7    1  0.5761011E-013  0.5930192E+02  0.7816164E-02  0.1266605E+00
        -11   -1    0    0    0    0  0.00000000000E+00  0.00000000000E+00  0.45593999997E+02  0.45594000000E+02  0.51100000000E-03 0.  1.
         11   -1    0    0    0    0 -0.00000000000E+00 -0.00000000000E+00 -0.45593999997E+02  0.45594000000E+02  0.51100000000E-03 0. -1.
    9900012    2    1    2    0    0 -0.30454065968E+02  0.21673883124E+01 -0.91964305307E+01  0.59301920897E+02  0.49999957815E+02 0.  0.
        -12    1    1    2    0    0  0.30454065968E+02 -0.21673883124E+01  0.91964305307E+01  0.31886079103E+02  0.00000000000E+00 0.  1.
         11    1    3    3    0    0 -0.16070060017E+02 -0.64018305405E+01 -0.20690708886E+02  0.26969161976E+02  0.51100000000E-03 0. -1.
        -11    1    3    3    0    0 -0.16353853241E+02  0.76083422517E+01 -0.24630031562E+01  0.18204443756E+02  0.51100000000E-03 0.  1.
         12    1    3    3    0    0  0.19698472905E+01  0.96087660123E+00  0.13957281512E+02  0.14128315165E+02  0.00000000000E+00 0. -1.
</event>
<event>
 7    1  0.5761011E-013  0.5930171E+02  0.7816164E-02  0.1266606E+00
        -11   -1    0    0    0    0  0.00000000000E+00  0.00000000000E+00  0.45593999997E+02  0.45594000000E+02  0.51100000000E-03 0.  1.
         11   -1    0    0    0    0 -0.00000000000E+00 -0.00000000000E+00 -0.45593999997E+02  0.45594000000E+02  0.51100000000E-03 0. -1.
    9900012    2    1    2    0    0  0.84249797746E+01 -0.61613166261E+01 -0.30129607950E+02  0.59301711693E+02  0.49999576276E+02 0.  0.
        -12    1    1    2    0    0 -0.84249797746E+01  0.61613166261E+01  0.30129607950E+02  0.31886288307E+02  0.00000000000E+00 0.  1.
         11    1    3    3    0    0  0.15906284322E+02 -0.21836522508E+01 -0.18073368013E+02  0.24174880551E+02  0.51100000000E-03 0. -1.
        -11    1    3    3    0    0 -0.34834904844E+01 -0.16541009887E+02 -0.13808356578E+02  0.21826828118E+02  0.51100000000E-03 0.  1.
        -12    1    3    3    0    0 -0.39978140626E+01  0.12563345512E+02  0.17521166414E+01  0.13300003024E+02  0.00000000000E+00 0.  1.
</event>
<event>
 7    1  0.5761011E-013  0.5930197E+02  0.7816164E-02  0.1266605E+00
        -11   -1    0    0    0    0  0.00000000000E+00  0.00000000000E+00  0.45593999997E+02  0.45594000000E+02  0.51100000000E-03 0.  1.
         11   -1    0    0    0    0 -0.00000000000E+00 -0.00000000000E+00 -0.45593999997E+02  0.45594000000E+02  0.51100000000E-03 0. -1.
    9900012    2    1    2    0    0 -0.53109558428E+01  0.12169246476E+02 -0.28990039832E+02  0.59301965107E+02  0.50000038443E+02 0.  0.
        -12    1    1    2    0    0  0.53109558428E+01 -0.12169246476E+02  0.28990039832E+02  0.31886034893E+02  0.00000000000E+00 0.  1.
         11    1    3    3    0    0  0.73364807261E+01 -0.10135353987E+02 -0.74753996805E-01  0.12512191587E+02  0.51100000000E-03 0. -1.
        -11    1    3    3    0    0 -0.92461990573E+01  0.26425761093E+02 -0.30315909426E+02  0.41265814071E+02  0.51100000000E-03 0.  1.
        -12    1    3    3    0    0 -0.34012375116E+01 -0.41211606300E+01  0.14006235914E+01  0.55239594490E+01  0.00000000000E+00 0.  1.
</event>
<event>
 7    1  0.5761011E-013  0.5930193E+02  0.7816164E-02  0.1266605E+00
        -11   -1    0    0    0    0  0.00000000000E+00  0.00000000000E+00  0.45593999997E+02  0.45594000000E+02  0.51100000000E-03 0.  1.
         11   -1    0    0    0    0 -0.00000000000E+00 -0.00000000000E+00 -0.45593999997E+02  0.45594000000E+02  0.51100000000E-03 0. -1.
    9900012    2    1    2    0    0 -0.13412741644E+02 -0.13277598767E+02  0.25700683085E+02  0.59301931279E+02  0.49999976750E+02 0.  0.
        -12    1    1    2    0    0  0.13412741644E+02  0.13277598767E+02 -0.25700683085E+02  0.31886068721E+02  0.00000000000E+00 0.  1.
         11    1    3    3    0    0 -0.89093445155E+01 -0.18676520874E+02  0.88969956996E+00  0.20711842439E+02  0.51100000000E-03 0. -1.
        -11    1    3    3    0    0  0.12328977966E+01  0.14208951195E+02  0.24161708054E+02  0.28057128638E+02  0.51100000000E-03 0.  1.
        -12    1    3    3    0    0 -0.57362949246E+01 -0.88100290885E+01  0.64927546110E+00  0.10532960202E+02  0.00000000000E+00 0.  1.
</event>
<event>
 7    1  0.5761011E-013  0.5930194E+02  0.7816164E-02  0.1266605E+00
        -11   -1    0    0    0    0  0.00000000000E+00  0.00000000000E+00  0.45593999997E+02  0.45594000000E+02  0.51100000000E-03 0. -1.
         11   -1    0    0    0    0 -0.00000000000E+00 -0.00000000000E+00 -0.45593999997E+02  0.45594000000E+02  0.51100000000E-03 0.  1.
    9900012    2    1    2    0    0  0.12384665446E+02  0.29137639805E+02 -0.37866871086E+01  0.59301937357E+02  0.49999987834E+02 0.  0.
        -12    1    1    2    0    0 -0.12384665446E+02 -0.29137639805E+02  0.37866871086E+01  0.31886062643E+02  0.00000000000E+00 0.  1.
         11    1    3    3    0    0  0.21074776427E+02  0.15432921262E+02 -0.15323040368E+02  0.30283936773E+02  0.51100000000E-03 0. -1.
        -11    1    3    3    0    0  0.50992643899E+00 -0.52283926184E+01  0.42013391323E+01  0.67266161709E+01  0.51100000000E-03 0.  1.
         12    1    3    3    0    0 -0.92000374196E+01  0.18933111162E+02  0.73350141269E+01  0.22291384412E+02  0.00000000000E+00 0. -1.
</event>
<event>
 7    1  0.5761011E-013  0.5930197E+02  0.7816164E-02  0.1266605E+00
        -11   -1    0    0    0    0  0.00000000000E+00  0.00000000000E+00  0.45593999997E+02  0.45594000000E+02  0.51100000000E-03 0.  1.
         11   -1    0    0    0    0 -0.00000000000E+00 -0.00000000000E+00 -0.45593999997E+02  0.45594000000E+02  0.51100000000E-03 0. -1.
    9900012    2    1    2    0    0  0.17849758028E+02 -0.25897401521E+02  0.52373016575E+01  0.59301974913E+02  0.50000056327E+02 0.  0.
        -12    1    1    2    0    0 -0.17849758028E+02  0.25897401521E+02 -0.52373016575E+01  0.31886025087E+02  0.00000000000E+00 0.  1.
         11    1    3    3    0    0 -0.69506608483E+01 -0.26750567199E+02  0.36428890595E+01  0.27877861694E+02  0.51100000000E-03 0. -1.
        -11    1    3    3    0    0  0.48353733680E+01 -0.27733466393E+01  0.83480076213E+01  0.10038003721E+02  0.51100000000E-03 0.  1.
         12    1    3    3    0    0  0.19965045508E+02  0.36265123169E+01 -0.67535950233E+01  0.21386109498E+02  0.00000000000E+00 0. -1.
</event>
<event>
 7    1  0.5761011E-013  0.5930189E+02  0.7816164E-02  0.1266605E+00
        -11   -1    0    0    0    0  0.00000000000E+00  0.00000000000E+00  0.45593999997E+02  0.45594000000E+02  0.51100000000E-03 0.  1.
         11   -1    0    0    0    0 -0.00000000000E+00 -0.00000000000E+00 -0.45593999997E+02  0.45594000000E+02  0.51100000000E-03 0. -1.
    9900012    2    1    2    0    0  0.18218838806E+02  0.11559947184E+02 -0.23476915773E+02  0.59301889536E+02  0.49999900620E+02 0.  0.
        -12    1    1    2    0    0 -0.18218838806E+02 -0.11559947184E+02  0.23476915773E+02  0.31886110464E+02  0.00000000000E+00 0.  1.
         11    1    3    3    0    0 -0.75883660344E+01  0.33526857971E+01 -0.23186982485E+02  0.24626407739E+02  0.51100000000E-03 0.  1.
        -11    1    3    3    0    0  0.17960961216E+02  0.14563511206E+02 -0.47998700647E+01  0.23616323578E+02  0.51100000000E-03 0. -1.
         12    1    3    3    0    0  0.78462436236E+01 -0.63562498192E+01  0.45099367770E+01  0.11059158218E+02  0.00000000000E+00 0. -1.
</event>
<event>
 7    1  0.5761011E-013  0.5930194E+02  0.7816164E-02  0.1266605E+00
        -11   -1    0    0    0    0  0.00000000000E+00  0.00000000000E+00  0.45593999997E+02  0.45594000000E+02  0.51100000000E-03 0. -1.
         11   -1    0    0    0    0 -0.00000000000E+00 -0.00000000000E+00 -0.45593999997E+02  0.45594000000E+02  0.51100000000E-03 0.  1.
    9900012    2    1    2    0    0 -0.27382939252E+00 -0.60997095033E+01  0.31295992894E+02  0.59301943333E+02  0.49999998733E+02 0.  0.
        -12    1    1    2    0    0  0.27382939252E+00  0.60997095033E+01 -0.31295992894E+02  0.31886056667E+02  0.00000000000E+00 0.  1.
         11    1    3    3    0    0 -0.99593774698E+01  0.10340266010E+02 -0.50008243815E-01  0.14356629195E+02  0.51100000000E-03 0. -1.
        -11    1    3    3    0    0 -0.24896112797E+00 -0.91551003627E+01 -0.20192302124E+01  0.93784399132E+01  0.51100000000E-03 0.  1.
         12    1    3    3    0    0  0.99345092052E+01 -0.72848751510E+01  0.33365231350E+02  0.35566874225E+02  0.00000000000E+00 0. -1.
</event>
<event>
 7    1  0.5761011E-013  0.5930195E+02  0.7816164E-02  0.1266605E+00
        -11   -1    0    0    0    0  0.00000000000E+00  0.00000000000E+00  0.45593999997E+02  0.45594000000E+02  0.51100000000E-03 0.  1.
         11   -1    0    0    0    0 -0.00000000000E+00 -0.00000000000E+00 -0.45593999997E+02  0.45594000000E+02  0.51100000000E-03 0. -1.
    9900012    2    1    2    0    0 -0.62194661429E+00 -0.31796969688E+02  0.22991005739E+01  0.59301953485E+02  0.50000017247E+02 0.  0.
        -12    1    1    2    0    0  0.62194661429E+00  0.31796969688E+02 -0.22991005739E+01  0.31886046515E+02  0.00000000000E+00 0.  1.
         11    1    3    3    0    0  0.19418648098E+02 -0.26589649417E+02 -0.16000192320E+01  0.32964426461E+02  0.51100000000E-03 0. -1.
        -11    1    3    3    0    0 -0.65522608680E+01 -0.64730689975E+01  0.79821713804E+01  0.12188018909E+02  0.51100000000E-03 0.  1.
         12    1    3    3    0    0 -0.13488333844E+02  0.12657487266E+01 -0.40830515745E+01  0.14149508115E+02  0.00000000000E+00 0. -1.
</event>
<event>
 7    1  0.5761011E-013  0.5930202E+02  0.7816164E-02  0.1266604E+00
        -11   -1    0    0    0    0  0.00000000000E+00  0.00000000000E+00  0.45593999997E+02  0.45594000000E+02  0.51100000000E-03 0. -1.
         11   -1    0    0    0    0 -0.00000000000E+00 -0.00000000000E+00 -0.45593999997E+02  0.45594000000E+02  0.51100000000E-03 0.  1.
    9900012    2    1    2    0    0 -0.98541120816E+01 -0.26728666168E+02  0.14324476354E+02  0.59302019650E+02  0.50000137917E+02 0.  0.
        -12    1    1    2    0    0  0.98541120816E+01  0.26728666168E+02 -0.14324476354E+02  0.31885980350E+02  0.00000000000E+00 0.  1.
         11    1    3    3    0    0 -0.20444745736E+02 -0.17304394053E+02  0.81460320606E+01  0.27996205463E+02  0.51100000000E-03 0. -1.
        -11    1    3    3    0    0  0.10349688464E+02 -0.16232608247E+02 -0.34025136333E+01  0.19549698746E+02  0.51100000000E-03 0.  1.
         12    1    3    3    0    0  0.24094519003E+00  0.68083361310E+01  0.95809579271E+01  0.11756115441E+02  0.00000000000E+00 0. -1.
</event>
<event>
 7    1  0.5761011E-013  0.5930197E+02  0.7816164E-02  0.1266605E+00
        -11   -1    0    0    0    0  0.00000000000E+00  0.00000000000E+00  0.45593999997E+02  0.45594000000E+02  0.51100000000E-03 0.  1.
         11   -1    0    0    0    0 -0.00000000000E+00 -0.00000000000E+00 -0.45593999997E+02  0.45594000000E+02  0.51100000000E-03 0. -1.
    9900012    2    1    2    0    0 -0.33123543371E+01  0.31073620319E+02 -0.63385726212E+01  0.59301967418E+02  0.50000042658E+02 0.  0.
        -12    1    1    2    0    0  0.33123543371E+01 -0.31073620319E+02  0.63385726212E+01  0.31886032582E+02  0.00000000000E+00 0.  1.
         11    1    3    3    0    0  0.20723159440E+02  0.12040385514E+02 -0.12238198525E+02  0.26910847699E+02  0.51100000000E-03 0. -1.
        -11    1    3    3    0    0 -0.15429227535E+02  0.17064599757E+02  0.38163273935E+01  0.23320076806E+02  0.51100000000E-03 0.  1.
        -12    1    3    3    0    0 -0.86062862420E+01  0.19686350472E+01  0.20832985098E+01  0.90710429119E+01  0.00000000000E+00 0.  1.
</event>
<event>
 7    1  0.5761011E-013  0.5930198E+02  0.7816164E-02  0.1266605E+00
        -11   -1    0    0    0    0  0.00000000000E+00  0.00000000000E+00  0.45593999997E+02  0.45594000000E+02  0.51100000000E-03 0. -1.
         11   -1    0    0    0    0 -0.00000000000E+00 -0.00000000000E+00 -0.45593999997E+02  0.45594000000E+02  0.51100000000E-03 0.  1.
    9900012    2    1    2    0    0  0.28047166088E+02  0.11259094150E+02  0.10164031263E+02  0.59301980208E+02  0.50000065985E+02 0.  0.
        -12    1    1    2    0    0 -0.28047166088E+02 -0.11259094150E+02 -0.10164031263E+02  0.31886019792E+02  0.00000000000E+00 0.  1.
         11    1    3    3    0    0 -0.65071012461E+01 -0.48063627962E+00  0.81933495835E+01  0.10473984701E+02  0.51100000000E-03 0. -1.
        -11    1    3    3    0    0  0.31128826551E+02  0.16239439996E+02  0.12175187457E+02  0.37161249221E+02  0.51100000000E-03 0.  1.
        -12    1    3    3    0    0  0.34254407828E+01 -0.44997095660E+01 -0.10204505777E+02  0.11666746286E+02  0.00000000000E+00 0.  1.
</event>
<event>
 7    1  0.5761011E-013  0.5930193E+02  0.7816164E-02  0.1266605E+00
        -11   -1    0    0    0    0  0.00000000000E+00  0.00000000000E+00  0.45593999997E+02  0.45594000000E+02  0.51100000000E-03 0. -1.
         11   -1    0    0    0    0 -0.00000000000E+00 -0.00000000000E+00 -0.45593999997E+02  0.45594000000E+02  0.51100000000E-03 0.  1.
    9900012    2    1    2    0    0 -0.25751216129E+02 -0.18715754916E+02 -0.18213057264E+01  0.59301925160E+02  0.49999965589E+02 0.  0.
        -12    1    1    2    0    0  0.25751216129E+02  0.18715754916E+02  0.18213057264E+01  0.31886074840E+02  0.00000000000E+00 0.  1.
         11    1    3    3    0    0 -0.17629961230E+02 -0.93652068930E+01 -0.24442962657E+02  0.31559167556E+02  0.51100000000E-03 0. -1.
        -11    1    3    3    0    0 -0.41441563780E+01 -0.10910475335E+02  0.17966244529E+02  0.21424249039E+02  0.51100000000E-03 0.  1.
        -12    1    3    3    0    0 -0.39770985207E+01  0.15599273127E+01  0.46554124010E+01  0.63185085651E+01  0.00000000000E+00 0.  1.
</event>
<event>
 7    1  0.5761011E-013  0.5930195E+02  0.7816164E-02  0.1266605E+00
        -11   -1    0    0    0    0  0.00000000000E+00  0.00000000000E+00  0.45593999997E+02  0.45594000000E+02  0.51100000000E-03 0. -1.
         11   -1    0    0    0    0 -0.00000000000E+00 -0.00000000000E+00 -0.45593999997E+02  0.45594000000E+02  0.51100000000E-03 0.  1.
    9900012    2    1    2    0    0 -0.19810410316E+02  0.21582721856E+02  0.12587844988E+02  0.59301951624E+02  0.50000013854E+02 0.  0.
        -12    1    1    2    0    0  0.19810410316E+02 -0.21582721856E+02 -0.12587844988E+02  0.31886048376E+02  0.00000000000E+00 0.  1.
         11    1    3    3    0    0 -0.78695711072E+01 -0.18101401779E+01  0.15415503255E+02  0.17402427926E+02  0.51100000000E-03 0. -1.
        -11    1    3    3    0    0  0.98524333825E+01  0.12457137485E+02 -0.66504074997E+01  0.17218555051E+02  0.51100000000E-03 0.  1.
        -12    1    3    3    0    0 -0.21793272591E+02  0.10935724549E+02  0.38227492329E+01  0.24680968646E+02  0.00000000000E+00 0.  1.
</event>
<event>
 7    1  0.5761011E-013  0.5930194E+02  0.7816164E-02  0.1266605E+00
        -11   -1    0    0    0    0  0.00000000000E+00  0.00000000000E+00  0.45593999997E+02  0.45594000000E+02  0.51100000000E-03 0.  1.
         11   -1    0    0    0    0 -0.00000000000E+00 -0.00000000000E+00 -0.45593999997E+02  0.45594000000E+02  0.51100000000E-03 0. -1.
    9900012    2    1    2    0    0  0.28162797011E+02 -0.91003060921E+01 -0.11864319859E+02  0.59301940473E+02  0.49999993517E+02 0.  0.
        -12    1    1    2    0    0 -0.28162797011E+02  0.91003060921E+01  0.11864319859E+02  0.31886059527E+02  0.00000000000E+00 0.  1.
         11    1    3    3    0    0  0.26703439726E+01 -0.12668188074E+02  0.12915398301E+02  0.18287187852E+02  0.51100000000E-03 0. -1.
        -11    1    3    3    0    0  0.18322347748E+02  0.61241202875E+01 -0.51984542134E+01  0.20005929190E+02  0.51100000000E-03 0.  1.
         12    1    3    3    0    0  0.71701052908E+01 -0.25562383059E+01 -0.19581263947E+02  0.21008823431E+02  0.00000000000E+00 0. -1.
</event>
<event>
 7    1  0.5761011E-013  0.5930202E+02  0.7816164E-02  0.1266604E+00
        -11   -1    0    0    0    0  0.00000000000E+00  0.00000000000E+00  0.45593999997E+02  0.45594000000E+02  0.51100000000E-03 0. -1.
         11   -1    0    0    0    0 -0.00000000000E+00 -0.00000000000E+00 -0.45593999997E+02  0.45594000000E+02  0.51100000000E-03 0.  1.
    9900012    2    1    2    0    0 -0.17496539471E+02  0.15788778371E+02  0.21477927026E+02  0.59302019299E+02  0.50000137277E+02 0.  0.
        -12    1    1    2    0    0  0.17496539471E+02 -0.15788778371E+02 -0.21477927026E+02  0.31885980701E+02  0.00000000000E+00 0.  1.
         11    1    3    3    0    0  0.77121969316E+01 -0.16607284632E+01  0.50500289855E+01  0.93668988227E+01  0.51100000000E-03 0. -1.
        -11    1    3    3    0    0 -0.31784752838E+02  0.78736613049E+01  0.41077356302E+01  0.33002099139E+02  0.51100000000E-03 0.  1.
        -12    1    3    3    0    0  0.65760164360E+01  0.95758455295E+01  0.12320162411E+02  0.16933021337E+02  0.00000000000E+00 0.  1.
</event>
<event>
 7    1  0.5761011E-013  0.5930194E+02  0.7816164E-02  0.1266605E+00
        -11   -1    0    0    0    0  0.00000000000E+00  0.00000000000E+00  0.45593999997E+02  0.45594000000E+02  0.51100000000E-03 0.  1.
         11   -1    0    0    0    0 -0.00000000000E+00 -0.00000000000E+00 -0.45593999997E+02  0.45594000000E+02  0.51100000000E-03 0. -1.
    9900012    2    1    2    0    0 -0.10005086184E+02 -0.26615240008E+01 -0.30158508237E+02  0.59301935981E+02  0.49999985325E+02 0.  0.
        -12    1    1    2    0    0  0.10005086184E+02  0.26615240008E+01  0.30158508237E+02  0.31886064019E+02  0.00000000000E+00 0.  1.
         11    1    3    3    0    0 -0.12099410830E+02  0.14454981934E+02 -0.13452552300E+02  0.23158441416E+02  0.51100000000E-03 0. -1.
        -11    1    3    3    0    0  0.96320009067E+01 -0.19228875790E+02 -0.18200346265E+02  0.28174060943E+02  0.51100000000E-03 0.  1.
        -12    1    3    3    0    0 -0.75376762603E+01  0.21123698543E+01  0.14943903282E+01  0.79694336223E+01  0.00000000000E+00 0.  1.
</event>
<event>
 7    1  0.5761011E-013  0.5930193E+02  0.7816164E-02  0.1266605E+00
        -11   -1    0    0    0    0  0.00000000000E+00  0.00000000000E+00  0.45593999997E+02  0.45594000000E+02  0.51100000000E-03 0. -1.
         11   -1    0    0    0    0 -0.00000000000E+00 -0.00000000000E+00 -0.45593999997E+02  0.45594000000E+02  0.51100000000E-03 0.  1.
    9900012    2    1    2    0    0 -0.66123449965E+01  0.10929474509E+02  0.29215489446E+02  0.59301931835E+02  0.49999977764E+02 0.  0.
        -12    1    1    2    0    0  0.66123449965E+01 -0.10929474509E+02 -0.29215489446E+02  0.31886068165E+02  0.00000000000E+00 0.  1.
         11    1    3    3    0    0 -0.36051138575E+01  0.27229549912E+02  0.50491238346E+01  0.27927385952E+02  0.51100000000E-03 0.  1.
        -11    1    3    3    0    0 -0.50328787523E+01 -0.94655078894E+01  0.20992651704E+02  0.23571532279E+02  0.51100000000E-03 0. -1.
        -12    1    3    3    0    0  0.20256476133E+01 -0.68345675135E+01  0.31737139081E+01  0.78030136050E+01  0.00000000000E+00 0.  1.
</event>
<event>
 7    1  0.5761011E-013  0.5930195E+02  0.7816164E-02  0.1266605E+00
        -11   -1    0    0    0    0  0.00000000000E+00  0.00000000000E+00  0.45593999997E+02  0.45594000000E+02  0.51100000000E-03 0.  1.
         11   -1    0    0    0    0 -0.00000000000E+00 -0.00000000000E+00 -0.45593999997E+02  0.45594000000E+02  0.51100000000E-03 0. -1.
    9900012    2    1    2    0    0  0.95498984851E+01  0.25293790503E+02 -0.16903951250E+02  0.59301953413E+02  0.50000017116E+02 0.  0.
        -12    1    1    2    0    0 -0.95498984851E+01 -0.25293790503E+02  0.16903951250E+02  0.31886046587E+02  0.00000000000E+00 0.  1.
         11    1    3    3    0    0 -0.17028372406E+02  0.22052856453E+02 -0.10703261812E+02  0.29847173370E+02  0.51100000000E-03 0. -1.
        -11    1    3    3    0    0  0.75224087701E+01 -0.16165126942E+01 -0.60518437994E+01  0.97890020241E+01  0.51100000000E-03 0.  1.
         12    1    3    3    0    0  0.19055862121E+02  0.48574467448E+01 -0.14884563893E+00  0.19665778018E+02  0.00000000000E+00 0. -1.
</event>
<event>
 7    1  0.5761011E-013  0.5930199E+02  0.7816164E-02  0.1266605E+00
        -11   -1    0    0    0    0  0.00000000000E+00  0.00000000000E+00  0.45593999997E+02  0.45594000000E+02  0.51100000000E-03 0. -1.
         11   -1    0    0    0    0 -0.00000000000E+00 -0.00000000000E+00 -0.45593999997E+02  0.45594000000E+02  0.51100000000E-03 0.  1.
    9900012    2    1    2    0    0 -0.12409876802E+02 -0.29270313688E+02  0.24416172663E+01  0.59301987385E+02  0.50000079072E+02 0.  0.
        -12    1    1    2    0    0  0.12409876802E+02  0.29270313688E+02 -0.24416172663E+01  0.31886012615E+02  0.00000000000E+00 0.  1.
         11    1    3    3    0    0 -0.15984378417E+01 -0.28241173338E+02 -0.11601152541E+02  0.30572955624E+02  0.51100000000E-03 0. -1.
        -11    1    3    3    0    0  0.14999532656E+01  0.68071491093E+01 -0.17897792561E+01  0.71965581246E+01  0.51100000000E-03 0.  1.
         12    1    3    3    0    0 -0.12311392226E+02 -0.78362894588E+01  0.15832549063E+02  0.21532473636E+02  0.00000000000E+00 0. -1.
</event>
<event>
 7    1  0.5761011E-013  0.5930194E+02  0.7816164E-02  0.1266605E+00
        -11   -1    0    0    0    0  0.00000000000E+00  0.00000000000E+00  0.45593999997E+02  0.45594000000E+02  0.51100000000E-03 0.  1.
         11   -1    0    0    0    0 -0.00000000000E+00 -0.00000000000E+00 -0.45593999997E+02  0.45594000000E+02  0.51100000000E-03 0. -1.
    9900012    2    1    2    0    0  0.26012016536E+02  0.84602817189E+01 -0.16386560410E+02  0.59301941399E+02  0.49999995206E+02 0.  0.
        -12    1    1    2    0    0 -0.26012016536E+02 -0.84602817189E+01  0.16386560410E+02  0.31886058601E+02  0.00000000000E+00 0.  1.
         11    1    3    3    0    0  0.13809086407E+02  0.92710107478E+01 -0.14870618678E+02  0.22310934714E+02  0.51100000000E-03 0. -1.
        -11    1    3    3    0    0  0.12260361410E+02  0.10666086627E+02  0.11295462944E+02  0.19790637918E+02  0.51100000000E-03 0.  1.
        -12    1    3    3    0    0 -0.57431281151E-01 -0.11476815655E+02 -0.12811404676E+02  0.17200368767E+02  0.00000000000E+00 0.  1.
</event>
<event>
 7    1  0.5761011E-013  0.5930194E+02  0.7816164E-02  0.1266605E+00
        -11   -1    0    0    0    0  0.00000000000E+00  0.00000000000E+00  0.45593999997E+02  0.45594000000E+02  0.51100000000E-03 0.  1.
         11   -1    0    0    0    0 -0.00000000000E+00 -0.00000000000E+00 -0.45593999997E+02  0.45594000000E+02  0.51100000000E-03 0. -1.
    9900012    2    1    2    0    0  0.31580275300E+02  0.44049974541E+01 -0.55258560495E-01  0.59301939659E+02  0.49999992032E+02 0.  0.
        -12    1    1    2    0    0 -0.31580275300E+02 -0.44049974541E+01  0.55258560495E-01  0.31886060341E+02  0.00000000000E+00 0.  1.
         11    1    3    3    0    0  0.31244815671E+02 -0.13600138640E+01  0.14496133960E+02  0.34470654825E+02  0.51100000000E-03 0. -1.
        -11    1    3    3    0    0 -0.66786645141E+01 -0.36369316662E+01 -0.24787928244E+01  0.79985152224E+01  0.51100000000E-03 0.  1.
        -12    1    3    3    0    0  0.70141241428E+01  0.94019429843E+01 -0.12072599696E+02  0.16832769611E+02  0.00000000000E+00 0.  1.
</event>
<event>
 7    1  0.5761011E-013  0.5930193E+02  0.7816164E-02  0.1266605E+00
        -11   -1    0    0    0    0  0.00000000000E+00  0.00000000000E+00  0.45593999997E+02  0.45594000000E+02  0.51100000000E-03 0.  1.
         11   -1    0    0    0    0 -0.00000000000E+00 -0.00000000000E+00 -0.45593999997E+02  0.45594000000E+02  0.51100000000E-03 0. -1.
    9900012    2    1    2    0    0 -0.25615508755E+02 -0.14278703818E+02 -0.12517414421E+02  0.59301931957E+02  0.49999977985E+02 0.  0.
        -12    1    1    2    0    0  0.25615508755E+02  0.14278703818E+02  0.12517414421E+02  0.31886068043E+02  0.00000000000E+00 0.  1.
         11    1    3    3    0    0 -0.25732328091E+02 -0.25578343411E+02  0.56186910599E+00  0.36286637455E+02  0.51100000000E-03 0. -1.
        -11    1    3    3    0    0  0.42486264619E+01  0.66662225434E+00 -0.10461827508E+02  0.11311279641E+02  0.51100000000E-03 0.  1.
         12    1    3    3    0    0 -0.41318071256E+01  0.10633017339E+02 -0.26174560190E+01  0.11704014861E+02  0.00000000000E+00 0. -1.
</event>
<event>
 7    1  0.5761011E-013  0.5930192E+02  0.7816164E-02  0.1266605E+00
        -11   -1    0    0    0    0  0.00000000000E+00  0.00000000000E+00  0.45593999997E+02  0.45594000000E+02  0.51100000000E-03 0.  1.
         11   -1    0    0    0    0 -0.00000000000E+00 -0.00000000000E+00 -0.45593999997E+02  0.45594000000E+02  0.51100000000E-03 0. -1.
    9900012    2    1    2    0    0 -0.18825303501E+02  0.21546000912E+02 -0.14074791469E+02  0.59301922127E+02  0.49999960059E+02 0.  0.
        -12    1    1    2    0    0  0.18825303501E+02 -0.21546000912E+02  0.14074791469E+02  0.31886077873E+02  0.00000000000E+00 0.  1.
         11    1    3    3    0    0 -0.22121499221E+01 -0.17901258026E+01 -0.21972619665E+02  0.22156131722E+02  0.51100000000E-03 0.  1.
        -11    1    3    3    0    0 -0.92789728965E+01  0.22916953725E+02  0.13255532940E+02  0.28053435793E+02  0.51100000000E-03 0. -1.
         12    1    3    3    0    0 -0.73341806823E+01  0.41917298983E+00 -0.53577047438E+01  0.90923546124E+01  0.00000000000E+00 0. -1.
</event>
<event>
 7    1  0.5761011E-013  0.5930196E+02  0.7816164E-02  0.1266605E+00
        -11   -1    0    0    0    0  0.00000000000E+00  0.00000000000E+00  0.45593999997E+02  0.45594000000E+02  0.51100000000E-03 0. -1.
         11   -1    0    0    0    0 -0.00000000000E+00 -0.00000000000E+00 -0.45593999997E+02  0.45594000000E+02  0.51100000000E-03 0.  1.
    9900012    2    1    2    0    0 -0.38976671463E+01 -0.13784220224E+02  0.28487237977E+02  0.59301964437E+02  0.50000037222E+02 0.  0.
        -12    1    1    2    0    0  0.38976671463E+01  0.13784220224E+02 -0.28487237977E+02  0.31886035563E+02  0.00000000000E+00 0.  1.
         11    1    3    3    0    0 -0.45177632140E+01 -0.37610192275E+01  0.20696391608E+02  0.21515019775E+02  0.51100000000E-03 0. -1.
        -11    1    3    3    0    0 -0.14267076823E+01 -0.22383314917E+02 -0.10499060214E+01  0.22453297851E+02  0.51100000000E-03 0.  1.
        -12    1    3    3    0    0  0.20468037499E+01  0.12360113920E+02  0.88407523903E+01  0.15333646811E+02  0.00000000000E+00 0.  1.
</event>
<event>
 7    1  0.5761011E-013  0.5930194E+02  0.7816164E-02  0.1266605E+00
        -11   -1    0    0    0    0  0.00000000000E+00  0.00000000000E+00  0.45593999997E+02  0.45594000000E+02  0.51100000000E-03 0.  1.
         11   -1    0    0    0    0 -0.00000000000E+00 -0.00000000000E+00 -0.45593999997E+02  0.45594000000E+02  0.51100000000E-03 0. -1.
    9900012    2    1    2    0    0  0.32167955928E+01 -0.87551037787E+01 -0.30491325000E+02  0.59301944798E+02  0.50000001405E+02 0.  0.
        -12    1    1    2    0    0 -0.32167955928E+01  0.87551037787E+01  0.30491325000E+02  0.31886055202E+02  0.00000000000E+00 0.  1.
         11    1    3    3    0    0  0.16466940402E+02 -0.11574676448E+02 -0.11662542755E+02  0.23262591533E+02  0.51100000000E-03 0. -1.
        -11    1    3    3    0    0  0.61111512378E+00  0.12190917840E+02 -0.21120680748E+01  0.12387605551E+02  0.51100000000E-03 0.  1.
         12    1    3    3    0    0 -0.13861259933E+02 -0.93713451712E+01 -0.16716714170E+02  0.23651747714E+02  0.00000000000E+00 0. -1.
</event>
<event>
 7    1  0.5761011E-013  0.5930196E+02  0.7816164E-02  0.1266605E+00
        -11   -1    0    0    0    0  0.00000000000E+00  0.00000000000E+00  0.45593999997E+02  0.45594000000E+02  0.51100000000E-03 0. -1.
         11   -1    0    0    0    0 -0.00000000000E+00 -0.00000000000E+00 -0.45593999997E+02  0.45594000000E+02  0.51100000000E-03 0.  1.
    9900012    2    1    2    0    0 -0.61010334582E+01 -0.31285608600E+02  0.84120532093E+00  0.59301960090E+02  0.50000029294E+02 0.  0.
        -12    1    1    2    0    0  0.61010334582E+01  0.31285608600E+02 -0.84120532093E+00  0.31886039910E+02  0.00000000000E+00 0.  1.
         11    1    3    3    0    0  0.19167322397E+01 -0.27455965596E+02  0.15988324766E+02  0.31829709995E+02  0.51100000000E-03 0. -1.
        -11    1    3    3    0    0 -0.13594960967E+01 -0.71177017642E+00 -0.19075028232E+02  0.19136654586E+02  0.51100000000E-03 0.  1.
        -12    1    3    3    0    0 -0.66582696012E+01 -0.31178728277E+01  0.39279087878E+01  0.83355955095E+01  0.00000000000E+00 0.  1.
</event>
<event>
 7    1  0.5761011E-013  0.5930193E+02  0.7816164E-02  0.1266605E+00
        -11   -1    0    0    0    0  0.00000000000E+00  0.00000000000E+00  0.45593999997E+02  0.45594000000E+02  0.51100000000E-03 0. -1.
         11   -1    0    0    0    0 -0.00000000000E+00 -0.00000000000E+00 -0.45593999997E+02  0.45594000000E+02  0.51100000000E-03 0.  1.
    9900012    2    1    2    0    0  0.13950290759E+02  0.90439024254E+01  0.27208802307E+02  0.59301926138E+02  0.49999967374E+02 0.  0.
        -12    1    1    2    0    0 -0.13950290759E+02 -0.90439024254E+01 -0.27208802307E+02  0.31886073862E+02  0.00000000000E+00 0.  1.
         11    1    3    3    0    0  0.27581738184E+02  0.11703879153E+02  0.21838973478E+02  0.37076594117E+02  0.51100000000E-03 0. -1.
        -11    1    3    3    0    0 -0.37831188811E+01 -0.90404942656E+01  0.18402244925E+01  0.99714066950E+01  0.51100000000E-03 0.  1.
        -12    1    3    3    0    0 -0.98483285433E+01  0.63805175377E+01  0.35296043361E+01  0.12253925327E+02  0.00000000000E+00 0.  1.
</event>
<event>
 7    1  0.5761011E-013  0.5930194E+02  0.7816164E-02  0.1266605E+00
        -11   -1    0    0    0    0  0.00000000000E+00  0.00000000000E+00  0.45593999997E+02  0.45594000000E+02  0.51100000000E-03 0.  1.
         11   -1    0    0    0    0 -0.00000000000E+00 -0.00000000000E+00 -0.45593999997E+02  0.45594000000E+02  0.51100000000E-03 0. -1.
    9900012    2    1    2    0    0 -0.27290722710E+01 -0.31222059122E+02  0.58699379100E+01  0.59301937491E+02  0.49999988078E+02 0.  0.
        -12    1    1    2    0    0  0.27290722710E+01  0.31222059122E+02 -0.58699379100E+01  0.31886062509E+02  0.00000000000E+00 0.  1.
         11    1    3    3    0    0  0.15424224957E+02  0.48328958577E+01  0.69639894961E+00  0.16178645483E+02  0.51100000000E-03 0. -1.
        -11    1    3    3    0    0 -0.36342824472E+01 -0.18594720835E+02  0.73254152354E+01  0.20313378854E+02  0.51100000000E-03 0.  1.
        -12    1    3    3    0    0 -0.14519014781E+02 -0.17460234144E+02 -0.21518762750E+01  0.22809913154E+02  0.00000000000E+00 0.  1.
</event>
<event>
 7    1  0.5761011E-013  0.5930194E+02  0.7816164E-02  0.1266605E+00
        -11   -1    0    0    0    0  0.00000000000E+00  0.00000000000E+00  0.45593999997E+02  0.45594000000E+02  0.51100000000E-03 0. -1.
         11   -1    0    0    0    0 -0.00000000000E+00 -0.00000000000E+00 -0.45593999997E+02  0.45594000000E+02  0.51100000000E-03 0.  1.
    9900012    2    1    2    0    0 -0.14679326530E+02 -0.28287533162E+02 -0.10263483879E+01  0.59301944258E+02  0.50000000420E+02 0.  0.
        -12    1    1    2    0    0  0.14679326530E+02  0.28287533162E+02  0.10263483879E+01  0.31886055742E+02  0.00000000000E+00 0.  1.
         11    1    3    3    0    0 -0.18695274995E+02 -0.24355757115E+02 -0.20190503807E+02  0.36747416998E+02  0.51100000000E-03 0. -1.
        -11    1    3    3    0    0  0.33672023646E+01  0.25527578202E+01  0.31660902216E+01  0.52800333148E+01  0.51100000000E-03 0.  1.
         12    1    3    3    0    0  0.64874609991E+00 -0.64845338674E+01  0.15998065198E+02  0.17274493945E+02  0.00000000000E+00 0. -1.
</event>
<event>
 7    1  0.5761011E-013  0.5930192E+02  0.7816164E-02  0.1266605E+00
        -11   -1    0    0    0    0  0.00000000000E+00  0.00000000000E+00  0.45593999997E+02  0.45594000000E+02  0.51100000000E-03 0.  1.
         11   -1    0    0    0    0 -0.00000000000E+00 -0.00000000000E+00 -0.45593999997E+02  0.45594000000E+02  0.51100000000E-03 0. -1.
    9900012    2    1    2    0    0  0.24999295285E+02  0.50599874967E+01 -0.19135140576E+02  0.59301923994E+02  0.49999963463E+02 0.  0.
        -12    1    1    2    0    0 -0.24999295285E+02 -0.50599874967E+01  0.19135140576E+02  0.31886076006E+02  0.00000000000E+00 0.  1.
         11    1    3    3    0    0 -0.93834211086E+01 -0.64808151517E+01 -0.47910301877E+01  0.12369459457E+02  0.51100000000E-03 0. -1.
        -11    1    3    3    0    0  0.21008289020E+02  0.88315814155E+01  0.49303423317E+01  0.23316374367E+02  0.51100000000E-03 0.  1.
         12    1    3    3    0    0  0.13374427373E+02  0.27092212329E+01 -0.19274452720E+02  0.23616090170E+02  0.00000000000E+00 0. -1.
</event>
<event>
 7    1  0.5761011E-013  0.5930194E+02  0.7816164E-02  0.1266605E+00
        -11   -1    0    0    0    0  0.00000000000E+00  0.00000000000E+00  0.45593999997E+02  0.45594000000E+02  0.51100000000E-03 0. -1.
         11   -1    0    0    0    0 -0.00000000000E+00 -0.00000000000E+00 -0.45593999997E+02  0.45594000000E+02  0.51100000000E-03 0.  1.
    9900012    2    1    2    0    0 -0.23308604576E+02  0.20034264080E+02 -0.84886907655E+01  0.59301942617E+02  0.49999997427E+02 0.  0.
        -12    1    1    2    0    0  0.23308604576E+02 -0.20034264080E+02  0.84886907655E+01  0.31886057383E+02  0.00000000000E+00 0.  1.
         11    1    3    3    0    0  0.96125662774E+01 -0.13923881116E+01 -0.60457454301E+01  0.11440769780E+02  0.51100000000E-03 0. -1.
        -11    1    3    3    0    0 -0.27064959820E+02  0.16934814982E+01  0.12204541679E+00  0.27118164115E+02  0.51100000000E-03 0.  1.
         12    1    3    3    0    0 -0.58562110342E+01  0.19733170693E+02 -0.25649907522E+01  0.20743008722E+02  0.00000000000E+00 0. -1.
</event>
<event>
 7    1  0.5761011E-013  0.5930192E+02  0.7816164E-02  0.1266605E+00
        -11   -1    0    0    0    0  0.00000000000E+00  0.00000000000E+00  0.45593999997E+02  0.45594000000E+02  0.51100000000E-03 0.  1.
         11   -1    0    0    0    0 -0.00000000000E+00 -0.00000000000E+00 -0.45593999997E+02  0.45594000000E+02  0.51100000000E-03 0. -1.
    9900012    2    1    2    0    0  0.22409043325E+02  0.21343352695E+02 -0.76823401027E+01  0.59301917198E+02  0.49999951068E+02 0.  0.
        -12    1    1    2    0    0 -0.22409043325E+02 -0.21343352695E+02  0.76823401027E+01  0.31886082802E+02  0.00000000000E+00 0.  1.
         11    1    3    3    0    0  0.26928852509E+02  0.19769422011E+02 -0.37403254841E+01  0.33615222431E+02  0.51100000000E-03 0. -1.
        -11    1    3    3    0    0 -0.11174029044E+02  0.82205364593E+01 -0.73304029657E+01  0.15689835966E+02  0.51100000000E-03 0.  1.
        -12    1    3    3    0    0  0.66542198596E+01 -0.66466057754E+01  0.33883883470E+01  0.99968587998E+01  0.00000000000E+00 0.  1.
</event>
<event>
 7    1  0.5761011E-013  0.5930198E+02  0.7816164E-02  0.1266605E+00
        -11   -1    0    0    0    0  0.00000000000E+00  0.00000000000E+00  0.45593999997E+02  0.45594000000E+02  0.51100000000E-03 0.  1.
         11   -1    0    0    0    0 -0.00000000000E+00 -0.00000000000E+00 -0.45593999997E+02  0.45594000000E+02  0.51100000000E-03 0. -1.
    9900012    2    1    2    0    0  0.11435546948E+02 -0.56140449100E+01 -0.29230615881E+02  0.59301982076E+02  0.50000069391E+02 0.  0.
        -12    1    1    2    0    0 -0.11435546948E+02  0.56140449100E+01  0.29230615881E+02  0.31886017924E+02  0.00000000000E+00 0.  1.
         11    1    3    3    0    0  0.23452772469E+02 -0.16931600917E+02 -0.15498340251E+02  0.32816309922E+02  0.51100000000E-03 0. -1.
        -11    1    3    3    0    0 -0.14023983093E+01 -0.11946649611E+01  0.26969262299E+01  0.32660919672E+01  0.51100000000E-03 0.  1.
         12    1    3    3    0    0 -0.10614827212E+02  0.12512220968E+02 -0.16429201860E+02  0.23219580187E+02  0.00000000000E+00 0. -1.
</event>
<event>
 7    1  0.5761011E-013  0.5930194E+02  0.7816164E-02  0.1266605E+00
        -11   -1    0    0    0    0  0.00000000000E+00  0.00000000000E+00  0.45593999997E+02  0.45594000000E+02  0.51100000000E-03 0. -1.
         11   -1    0    0    0    0 -0.00000000000E+00 -0.00000000000E+00 -0.45593999997E+02  0.45594000000E+02  0.51100000000E-03 0.  1.
    9900012    2    1    2    0    0  0.93130498129E+01  0.13948736933E+02  0.27118639271E+02  0.59301941060E+02  0.49999994587E+02 0.  0.
        -12    1    1    2    0    0 -0.93130498129E+01 -0.13948736933E+02 -0.27118639271E+02  0.31886058940E+02  0.00000000000E+00 0.  1.
         11    1    3    3    0    0  0.14463616187E+02 -0.41396049210E+01  0.31850530945E+02  0.35224832772E+02  0.51100000000E-03 0. -1.
        -11    1    3    3    0    0 -0.72389364349E+01  0.30986425236E+01 -0.42204808573E+01  0.89339937948E+01  0.51100000000E-03 0.  1.
         12    1    3    3    0    0  0.20883700612E+01  0.14989699330E+02 -0.51141081689E+00  0.15143114493E+02  0.00000000000E+00 0. -1.
</event>
<event>
 7    1  0.5761011E-013  0.5930192E+02  0.7816164E-02  0.1266605E+00
        -11   -1    0    0    0    0  0.00000000000E+00  0.00000000000E+00  0.45593999997E+02  0.45594000000E+02  0.51100000000E-03 0.  1.
         11   -1    0    0    0    0 -0.00000000000E+00 -0.00000000000E+00 -0.45593999997E+02  0.45594000000E+02  0.51100000000E-03 0. -1.
    9900012    2    1    2    0    0 -0.17902878676E+02  0.21105173350E+02 -0.15836052308E+02  0.59301922164E+02  0.49999960127E+02 0.  0.
        -12    1    1    2    0    0  0.17902878676E+02 -0.21105173350E+02  0.15836052308E+02  0.31886077836E+02  0.00000000000E+00 0.  1.
         11    1    3    3    0    0 -0.14371558315E+02 -0.25205973467E+01 -0.18452967366E+02  0.23524606357E+02  0.51100000000E-03 0. -1.
        -11    1    3    3    0    0 -0.51246318715E+01  0.13877106654E+02  0.14233487564E+02  0.20528714265E+02  0.51100000000E-03 0.  1.
        -12    1    3    3    0    0  0.15933115105E+01  0.97486640432E+01 -0.11616572506E+02  0.15248601542E+02  0.00000000000E+00 0.  1.
</event>
<event>
 7    1  0.5761011E-013  0.5930197E+02  0.7816164E-02  0.1266605E+00
        -11   -1    0    0    0    0  0.00000000000E+00  0.00000000000E+00  0.45593999997E+02  0.45594000000E+02  0.51100000000E-03 0. -1.
         11   -1    0    0    0    0 -0.00000000000E+00 -0.00000000000E+00 -0.45593999997E+02  0.45594000000E+02  0.51100000000E-03 0.  1.
    9900012    2    1    2    0    0 -0.75004365904E+01  0.26062865589E+02  0.16768704759E+02  0.59301969030E+02  0.50000045598E+02 0.  0.
        -12    1    1    2    0    0  0.75004365904E+01 -0.26062865589E+02 -0.16768704759E+02  0.31886030970E+02  0.00000000000E+00 0.  1.
         11    1    3    3    0    0 -0.17516373090E+01  0.10860578013E+02  0.38174430722E+01  0.11644451894E+02  0.51100000000E-03 0. -1.
        -11    1    3    3    0    0  0.16927740433E+02  0.13611759049E+02  0.12199208582E+02  0.24912829443E+02  0.51100000000E-03 0.  1.
        -12    1    3    3    0    0 -0.22676539714E+02  0.15905285268E+01  0.75205310466E+00  0.22744687693E+02  0.00000000000E+00 0.  1.
</event>
<event>
 7    1  0.5761011E-013  0.5930200E+02  0.7816164E-02  0.1266605E+00
        -11   -1    0    0    0    0  0.00000000000E+00  0.00000000000E+00  0.45593999997E+02  0.45594000000E+02  0.51100000000E-03 0. -1.
         11   -1    0    0    0    0 -0.00000000000E+00 -0.00000000000E+00 -0.45593999997E+02  0.45594000000E+02  0.51100000000E-03 0.  1.
    9900012    2    1    2    0    0  0.22876405990E+02 -0.64734927177E+01  0.21248075472E+02  0.59302003540E+02  0.50000108535E+02 0.  0.
        -12    1    1    2    0    0 -0.22876405990E+02  0.64734927177E+01 -0.21248075472E+02  0.31885996460E+02  0.00000000000E+00 0.  1.
         11    1    3    3    0    0  0.83255478894E+01  0.10518341213E+02  0.17422491398E+02  0.21988484630E+02  0.51100000000E-03 0. -1.
        -11    1    3    3    0    0  0.56363771289E+01 -0.24562561232E+02  0.44959347276E+01  0.25598859168E+02  0.51100000000E-03 0.  1.
        -12    1    3    3    0    0  0.89144809719E+01  0.75707273005E+01 -0.67035065318E+00  0.11714659741E+02  0.00000000000E+00 0.  1.
</event>
<event>
 7    1  0.5761011E-013  0.5930194E+02  0.7816164E-02  0.1266605E+00
        -11   -1    0    0    0    0  0.00000000000E+00  0.00000000000E+00  0.45593999997E+02  0.45594000000E+02  0.51100000000E-03 0.  1.
         11   -1    0    0    0    0 -0.00000000000E+00 -0.00000000000E+00 -0.45593999997E+02  0.45594000000E+02  0.51100000000E-03 0. -1.
    9900012    2    1    2    0    0 -0.26258979145E+02  0.16318529185E+02 -0.78033747594E+01  0.59301936616E+02  0.49999986483E+02 0.  0.
        -12    1    1    2    0    0  0.26258979145E+02 -0.16318529185E+02  0.78033747594E+01  0.31886063384E+02  0.00000000000E+00 0.  1.
         11    1    3    3    0    0 -0.26650638043E+01 -0.79541819974E+01 -0.13290633126E+02  0.15716631493E+02  0.51100000000E-03 0. -1.
        -11    1    3    3    0    0 -0.87218271150E+01  0.23061632275E+02  0.11860129537E+02  0.27360040649E+02  0.51100000000E-03 0.  1.
        -12    1    3    3    0    0 -0.14872088226E+02  0.12110789077E+01 -0.63728711710E+01  0.16225264475E+02  0.00000000000E+00 0.  1.
</event>
<event>
 7    1  0.5761011E-013  0.5930195E+02  0.7816164E-02  0.1266605E+00
        -11   -1    0    0    0    0  0.00000000000E+00  0.00000000000E+00  0.45593999997E+02  0.45594000000E+02  0.51100000000E-03 0.  1.
         11   -1    0    0    0    0 -0.00000000000E+00 -0.00000000000E+00 -0.45593999997E+02  0.45594000000E+02  0.51100000000E-03 0. -1.
    9900012    2    1    2    0    0  0.70308837369E+00  0.31848513003E+02  0.13776988084E+01  0.59301950264E+02  0.50000011374E+02 0.  0.
        -12    1    1    2    0    0 -0.70308837369E+00 -0.31848513003E+02 -0.13776988084E+01  0.31886049736E+02  0.00000000000E+00 0.  1.
         11    1    3    3    0    0 -0.11428898970E+02  0.90874525350E+01 -0.11688185489E+02  0.18703347442E+02  0.51100000000E-03 0. -1.
        -11    1    3    3    0    0 -0.28732001751E+01 -0.47479095752E-01  0.12982510622E+02  0.13296733277E+02  0.51100000000E-03 0.  1.
         12    1    3    3    0    0  0.15005187519E+02  0.22808539563E+02  0.83373675525E-01  0.27301869545E+02  0.00000000000E+00 0. -1.
</event>
<event>
 7    1  0.5761011E-013  0.5930198E+02  0.7816164E-02  0.1266605E+00
        -11   -1    0    0    0    0  0.00000000000E+00  0.00000000000E+00  0.45593999997E+02  0.45594000000E+02  0.51100000000E-03 0.  1.
         11   -1    0    0    0    0 -0.00000000000E+00 -0.00000000000E+00 -0.45593999997E+02  0.45594000000E+02  0.51100000000E-03 0. -1.
    9900012    2    1    2    0    0  0.28976952989E+02 -0.53435895263E+01  0.12186085398E+02  0.59301977500E+02  0.50000061046E+02 0.  0.
        -12    1    1    2    0    0 -0.28976952989E+02  0.53435895263E+01 -0.12186085398E+02  0.31886022500E+02  0.00000000000E+00 0.  1.
         11    1    3    3    0    0  0.23048682127E+01  0.76596423767E+01 -0.51723924165E+01  0.95255541775E+01  0.51100000000E-03 0. -1.
        -11    1    3    3    0    0  0.28322369373E+02 -0.19595900262E+02  0.38505217101E+01  0.34655193431E+02  0.51100000000E-03 0.  1.
        -12    1    3    3    0    0 -0.16502845972E+01  0.65926683593E+01  0.13507956104E+02  0.15121229892E+02  0.00000000000E+00 0.  1.
</event>
<event>
 7    1  0.5761011E-013  0.5930198E+02  0.7816164E-02  0.1266605E+00
        -11   -1    0    0    0    0  0.00000000000E+00  0.00000000000E+00  0.45593999997E+02  0.45594000000E+02  0.51100000000E-03 0.  1.
         11   -1    0    0    0    0 -0.00000000000E+00 -0.00000000000E+00 -0.45593999997E+02  0.45594000000E+02  0.51100000000E-03 0. -1.
    9900012    2    1    2    0    0 -0.22243898840E+02 -0.15545023079E+02 -0.16741543998E+02  0.59301983103E+02  0.50000071263E+02 0.  0.
        -12    1    1    2    0    0  0.22243898840E+02  0.15545023079E+02  0.16741543998E+02  0.31886016897E+02  0.00000000000E+00 0.  1.
         11    1    3    3    0    0 -0.64195450211E+01  0.60289460841E+01  0.11731946317E+02  0.14669605101E+02  0.51100000000E-03 0.  1.
        -11    1    3    3    0    0 -0.12870752754E+02 -0.19831768042E+02 -0.97107215765E+01  0.25558822624E+02  0.51100000000E-03 0. -1.
        -12    1    3    3    0    0 -0.29536010654E+01 -0.17422011203E+01 -0.18762768739E+02  0.19073555378E+02  0.00000000000E+00 0.  1.
</event>
<event>
 7    1  0.5761011E-013  0.5930193E+02  0.7816164E-02  0.1266605E+00
        -11   -1    0    0    0    0  0.00000000000E+00  0.00000000000E+00  0.45593999997E+02  0.45594000000E+02  0.51100000000E-03 0. -1.
         11   -1    0    0    0    0 -0.00000000000E+00 -0.00000000000E+00 -0.45593999997E+02  0.45594000000E+02  0.51100000000E-03 0.  1.
    9900012    2    1    2    0    0  0.19216170514E+02  0.23401333044E+02  0.99918892735E+01  0.59301930178E+02  0.49999974741E+02 0.  0.
        -12    1    1    2    0    0 -0.19216170514E+02 -0.23401333044E+02 -0.99918892735E+01  0.31886069822E+02  0.00000000000E+00 0.  1.
         11    1    3    3    0    0 -0.43138046498E+01  0.73713200821E+01  0.19855844804E+02  0.21614806116E+02  0.51100000000E-03 0. -1.
        -11    1    3    3    0    0  0.15821960558E+02 -0.24044047877E+01 -0.71295173935E+01  0.17519863492E+02  0.51100000000E-03 0.  1.
         12    1    3    3    0    0  0.77080146063E+01  0.18434417750E+02 -0.27344381367E+01  0.20167260569E+02  0.00000000000E+00 0. -1.
</event>
<event>
 7    1  0.5761011E-013  0.5930191E+02  0.7816164E-02  0.1266605E+00
        -11   -1    0    0    0    0  0.00000000000E+00  0.00000000000E+00  0.45593999997E+02  0.45594000000E+02  0.51100000000E-03 0. -1.
         11   -1    0    0    0    0 -0.00000000000E+00 -0.00000000000E+00 -0.45593999997E+02  0.45594000000E+02  0.51100000000E-03 0.  1.
    9900012    2    1    2    0    0 -0.16725014913E+02 -0.26798305202E+02 -0.43413331811E+01  0.59301914330E+02  0.49999945839E+02 0.  0.
        -12    1    1    2    0    0  0.16725014913E+02  0.26798305202E+02  0.43413331811E+01  0.31886085670E+02  0.00000000000E+00 0.  1.
         11    1    3    3    0    0 -0.72943939204E+01 -0.26648714108E+02 -0.64485783851E+01  0.28371575736E+02  0.51100000000E-03 0. -1.
        -11    1    3    3    0    0  0.59676618127E+01  0.75644590830E+01  0.82100572201E+01  0.12658557127E+02  0.51100000000E-03 0.  1.
         12    1    3    3    0    0 -0.15398282805E+02 -0.77140501773E+01 -0.61028120161E+01  0.18271781467E+02  0.00000000000E+00 0. -1.
</event>
<event>
 7    1  0.5761011E-013  0.5930232E+02  0.7816164E-02  0.1266603E+00
        -11   -1    0    0    0    0  0.00000000000E+00  0.00000000000E+00  0.45593999997E+02  0.45594000000E+02  0.51100000000E-03 0.  1.
         11   -1    0    0    0    0 -0.00000000000E+00 -0.00000000000E+00 -0.45593999997E+02  0.45594000000E+02  0.51100000000E-03 0. -1.
    9900012    2    1    2    0    0  0.13426675194E+02  0.20854770009E+02 -0.20037450792E+02  0.59302321818E+02  0.50000688994E+02 0.  0.
        -12    1    1    2    0    0 -0.13426675194E+02 -0.20854770009E+02  0.20037450792E+02  0.31885678182E+02  0.00000000000E+00 0.  1.
         11    1    3    3    0    0  0.18087734695E+02  0.82861550400E+01 -0.15757855123E+02  0.25379844564E+02  0.51100000000E-03 0. -1.
        -11    1    3    3    0    0 -0.57219715572E+01  0.20386153096E+02  0.49861486408E+01  0.21753111849E+02  0.51100000000E-03 0.  1.
         12    1    3    3    0    0  0.10609120561E+01 -0.78175381272E+01 -0.92657443098E+01  0.12169365406E+02  0.00000000000E+00 0. -1.
</event>
<event>
 7    1  0.5761011E-013  0.5930195E+02  0.7816164E-02  0.1266605E+00
        -11   -1    0    0    0    0  0.00000000000E+00  0.00000000000E+00  0.45593999997E+02  0.45594000000E+02  0.51100000000E-03 0.  1.
         11   -1    0    0    0    0 -0.00000000000E+00 -0.00000000000E+00 -0.45593999997E+02  0.45594000000E+02  0.51100000000E-03 0. -1.
    9900012    2    1    2    0    0 -0.30616246301E+02  0.41653344646E+01 -0.78749917772E+01  0.59301952201E+02  0.50000014906E+02 0.  0.
        -12    1    1    2    0    0  0.30616246301E+02 -0.41653344646E+01  0.78749917772E+01  0.31886047799E+02  0.00000000000E+00 0.  1.
         11    1    3    3    0    0 -0.38632413300E+02 -0.11404798334E+01 -0.44608953627E+01  0.38905830402E+02  0.51100000000E-03 0. -1.
        -11    1    3    3    0    0  0.49937565918E+01  0.10506506208E+02  0.25677562264E+01  0.11912919453E+02  0.51100000000E-03 0.  1.
         12    1    3    3    0    0  0.30224104069E+01 -0.52006919101E+01 -0.59818526409E+01  0.84832023451E+01  0.00000000000E+00 0. -1.
</event>
<event>
 7    1  0.5761011E-013  0.5930189E+02  0.7816164E-02  0.1266605E+00
        -11   -1    0    0    0    0  0.00000000000E+00  0.00000000000E+00  0.45593999997E+02  0.45594000000E+02  0.51100000000E-03 0. -1.
         11   -1    0    0    0    0 -0.00000000000E+00 -0.00000000000E+00 -0.45593999997E+02  0.45594000000E+02  0.51100000000E-03 0.  1.
    9900012    2    1    2    0    0 -0.26666635776E+02  0.15443137649E+02  0.81929252702E+01  0.59301890351E+02  0.49999902106E+02 0.  0.
        -12    1    1    2    0    0  0.26666635776E+02 -0.15443137649E+02 -0.81929252702E+01  0.31886109649E+02  0.00000000000E+00 0.  1.
         11    1    3    3    0    0  0.35959101405E+01  0.79153257981E+01  0.11232687042E+02  0.14204091336E+02  0.51100000000E-03 0.  1.
        -11    1    3    3    0    0 -0.30660313862E+02 -0.56526526766E+00 -0.12078759798E+02  0.32958622688E+02  0.51100000000E-03 0. -1.
         12    1    3    3    0    0  0.39776794588E+00  0.80930771187E+01  0.90389980260E+01  0.12139176327E+02  0.00000000000E+00 0. -1.
</event>
<event>
 7    1  0.5761011E-013  0.5930192E+02  0.7816164E-02  0.1266605E+00
        -11   -1    0    0    0    0  0.00000000000E+00  0.00000000000E+00  0.45593999997E+02  0.45594000000E+02  0.51100000000E-03 0.  1.
         11   -1    0    0    0    0 -0.00000000000E+00 -0.00000000000E+00 -0.45593999997E+02  0.45594000000E+02  0.51100000000E-03 0. -1.
    9900012    2    1    2    0    0 -0.99431702072E+01 -0.26615386537E+02 -0.14473299685E+02  0.59301924073E+02  0.49999963607E+02 0.  0.
        -12    1    1    2    0    0  0.99431702072E+01  0.26615386537E+02  0.14473299685E+02  0.31886075927E+02  0.00000000000E+00 0.  1.
         11    1    3    3    0    0 -0.22903478795E+02 -0.24051085251E+02 -0.17602556204E+02  0.37588216609E+02  0.51100000000E-03 0. -1.
        -11    1    3    3    0    0  0.95902707384E+01 -0.78219594811E+00 -0.63283727387E+01  0.11516658592E+02  0.51100000000E-03 0.  1.
         12    1    3    3    0    0  0.33700378492E+01 -0.17821053371E+01  0.94576292570E+01  0.10197048872E+02  0.00000000000E+00 0. -1.
</event>
<event>
 7    1  0.5761011E-013  0.5930186E+02  0.7816164E-02  0.1266605E+00
        -11   -1    0    0    0    0  0.00000000000E+00  0.00000000000E+00  0.45593999997E+02  0.45594000000E+02  0.51100000000E-03 0.  1.
         11   -1    0    0    0    0 -0.00000000000E+00 -0.00000000000E+00 -0.45593999997E+02  0.45594000000E+02  0.51100000000E-03 0. -1.
    9900012    2    1    2    0    0  0.31705207317E+01 -0.22056386489E+02 -0.22807670633E+02  0.59301855260E+02  0.49999838109E+02 0.  0.
        -12    1    1    2    0    0 -0.31705207317E+01  0.22056386489E+02  0.22807670633E+02  0.31886144740E+02  0.00000000000E+00 0.  1.
         11    1    3    3    0    0 -0.20318612434E+01 -0.17662865493E+02 -0.34190333106E+02  0.38536789640E+02  0.51100000000E-03 0. -1.
        -11    1    3    3    0    0  0.45959438534E+01  0.45545126975E+01  0.96690019197E+01  0.11634254776E+02  0.51100000000E-03 0.  1.
         12    1    3    3    0    0  0.60643812172E+00 -0.89480336935E+01  0.17136605538E+01  0.91308108440E+01  0.00000000000E+00 0. -1.
</event>
<event>
 7    1  0.5761011E-013  0.5930196E+02  0.7816164E-02  0.1266605E+00
        -11   -1    0    0    0    0  0.00000000000E+00  0.00000000000E+00  0.45593999997E+02  0.45594000000E+02  0.51100000000E-03 0.  1.
         11   -1    0    0    0    0 -0.00000000000E+00 -0.00000000000E+00 -0.45593999997E+02  0.45594000000E+02  0.51100000000E-03 0. -1.
    9900012    2    1    2    0    0  0.13164632386E+02  0.16771978375E+02 -0.23708919073E+02  0.59301958413E+02  0.50000026236E+02 0.  0.
        -12    1    1    2    0    0 -0.13164632386E+02 -0.16771978375E+02  0.23708919073E+02  0.31886041587E+02  0.00000000000E+00 0.  1.
         11    1    3    3    0    0  0.66670117170E+00 -0.94797735404E+01  0.18972782483E+01  0.96907307176E+01  0.51100000000E-03 0. -1.
        -11    1    3    3    0    0 -0.24646272852E+01  0.27070564358E+02 -0.19382682195E+02  0.33385299334E+02  0.51100000000E-03 0.  1.
         12    1    3    3    0    0  0.14962558500E+02 -0.81881244230E+00 -0.62235151262E+01  0.16225928362E+02  0.00000000000E+00 0. -1.
</event>
<event>
 7    1  0.5761011E-013  0.5930194E+02  0.7816164E-02  0.1266605E+00
        -11   -1    0    0    0    0  0.00000000000E+00  0.00000000000E+00  0.45593999997E+02  0.45594000000E+02  0.51100000000E-03 0.  1.
         11   -1    0    0    0    0 -0.00000000000E+00 -0.00000000000E+00 -0.45593999997E+02  0.45594000000E+02  0.51100000000E-03 0. -1.
    9900012    2    1    2    0    0 -0.37809740786E+01  0.12085068420E+02 -0.29263908462E+02  0.59301937493E+02  0.49999988082E+02 0.  0.
        -12    1    1    2    0    0  0.37809740786E+01 -0.12085068420E+02  0.29263908462E+02  0.31886062507E+02  0.00000000000E+00 0.  1.
         11    1    3    3    0    0  0.78473370828E+01 -0.12303692495E+02 -0.32023124642E+01  0.14940426824E+02  0.51100000000E-03 0. -1.
        -11    1    3    3    0    0  0.20819424393E+01  0.17115268325E+02 -0.45429649864E+01  0.17829902559E+02  0.51100000000E-03 0.  1.
         12    1    3    3    0    0 -0.13710253601E+02  0.72734925901E+01 -0.21518631012E+02  0.26531608110E+02  0.00000000000E+00 0. -1.
</event>
<event>
 7    1  0.5761011E-013  0.5930190E+02  0.7816164E-02  0.1266605E+00
        -11   -1    0    0    0    0  0.00000000000E+00  0.00000000000E+00  0.45593999997E+02  0.45594000000E+02  0.51100000000E-03 0.  1.
         11   -1    0    0    0    0 -0.00000000000E+00 -0.00000000000E+00 -0.45593999997E+02  0.45594000000E+02  0.51100000000E-03 0. -1.
    9900012    2    1    2    0    0  0.27527950339E+02  0.15266969111E+02  0.50847483061E+01  0.59301904895E+02  0.49999928631E+02 0.  0.
        -12    1    1    2    0    0 -0.27527950339E+02 -0.15266969111E+02 -0.50847483061E+01  0.31886095105E+02  0.00000000000E+00 0.  1.
         11    1    3    3    0    0  0.27528675541E+02  0.11047639854E+02  0.43080307827E+01  0.29973946235E+02  0.51100000000E-03 0. -1.
        -11    1    3    3    0    0 -0.56730963638E+01 -0.80734775612E+00  0.13417075449E+02  0.14589508101E+02  0.51100000000E-03 0.  1.
        -12    1    3    3    0    0  0.56723711620E+01  0.50266770134E+01 -0.12640357926E+02  0.14738450559E+02  0.00000000000E+00 0.  1.
</event>
<event>
 7    1  0.5761011E-013  0.5930194E+02  0.7816164E-02  0.1266605E+00
        -11   -1    0    0    0    0  0.00000000000E+00  0.00000000000E+00  0.45593999997E+02  0.45594000000E+02  0.51100000000E-03 0.  1.
         11   -1    0    0    0    0 -0.00000000000E+00 -0.00000000000E+00 -0.45593999997E+02  0.45594000000E+02  0.51100000000E-03 0. -1.
    9900012    2    1    2    0    0  0.15360501482E+02 -0.95878820592E+01 -0.26245915498E+02  0.59301943980E+02  0.49999999914E+02 0.  0.
        -12    1    1    2    0    0 -0.15360501482E+02  0.95878820592E+01  0.26245915498E+02  0.31886056020E+02  0.00000000000E+00 0.  1.
         11    1    3    3    0    0  0.15505238291E+02  0.13513866686E+02 -0.18702470215E+02  0.27799629488E+02  0.51100000000E-03 0. -1.
        -11    1    3    3    0    0 -0.94257180362E+01 -0.85706639616E+01 -0.14653177805E+00  0.12740561725E+02  0.51100000000E-03 0.  1.
         12    1    3    3    0    0  0.92809812270E+01 -0.14531084783E+02 -0.73969135047E+01  0.18761752767E+02  0.00000000000E+00 0. -1.
</event>
<event>
 7    1  0.5761011E-013  0.5930204E+02  0.7816164E-02  0.1266604E+00
        -11   -1    0    0    0    0  0.00000000000E+00  0.00000000000E+00  0.45593999997E+02  0.45594000000E+02  0.51100000000E-03 0.  1.
         11   -1    0    0    0    0 -0.00000000000E+00 -0.00000000000E+00 -0.45593999997E+02  0.45594000000E+02  0.51100000000E-03 0. -1.
    9900012    2    1    2    0    0 -0.20578317697E+02 -0.18282490112E+02  0.16093413109E+02  0.59302038364E+02  0.50000172046E+02 0.  0.
        -12    1    1    2    0    0  0.20578317697E+02  0.18282490112E+02 -0.16093413109E+02  0.31885961636E+02  0.00000000000E+00 0.  1.
         11    1    3    3    0    0 -0.36981543354E+01 -0.64274236671E+01 -0.89222852157E+01  0.11601521203E+02  0.51100000000E-03 0. -1.
        -11    1    3    3    0    0  0.12918057590E+00 -0.18415827292E+02  0.22840833793E+02  0.29340468147E+02  0.51100000000E-03 0.  1.
        -12    1    3    3    0    0 -0.17009343938E+02  0.65607608467E+01  0.21748645319E+01  0.18360049015E+02  0.00000000000E+00 0.  1.
</event>
<event>
 7    1  0.5761011E-013  0.5930193E+02  0.7816164E-02  0.1266605E+00
        -11   -1    0    0    0    0  0.00000000000E+00  0.00000000000E+00  0.45593999997E+02  0.45594000000E+02  0.51100000000E-03 0.  1.
         11   -1    0    0    0    0 -0.00000000000E+00 -0.00000000000E+00 -0.45593999997E+02  0.45594000000E+02  0.51100000000E-03 0. -1.
    9900012    2    1    2    0    0 -0.54575071167E+01 -0.31260743003E+02 -0.31149528004E+01  0.59301931444E+02  0.49999977050E+02 0.  0.
        -12    1    1    2    0    0  0.54575071167E+01  0.31260743003E+02  0.31149528004E+01  0.31886068556E+02  0.00000000000E+00 0.  1.
         11    1    3    3    0    0 -0.49319744299E+01 -0.28084386758E+02 -0.18926672740E+02  0.34223911124E+02  0.51100000000E-03 0. -1.
        -11    1    3    3    0    0 -0.70206551850E+01  0.51458433510E+01  0.89635302343E+01  0.12494565921E+02  0.51100000000E-03 0.  1.
        -12    1    3    3    0    0  0.64951224982E+01 -0.83221995958E+01  0.68481897053E+01  0.12583454399E+02  0.00000000000E+00 0.  1.
</event>
<event>
 7    1  0.5761011E-013  0.5930195E+02  0.7816164E-02  0.1266605E+00
        -11   -1    0    0    0    0  0.00000000000E+00  0.00000000000E+00  0.45593999997E+02  0.45594000000E+02  0.51100000000E-03 0. -1.
         11   -1    0    0    0    0 -0.00000000000E+00 -0.00000000000E+00 -0.45593999997E+02  0.45594000000E+02  0.51100000000E-03 0.  1.
    9900012    2    1    2    0    0  0.20918426801E+02  0.23638771449E+02  0.45108854661E+01  0.59301950023E+02  0.50000010935E+02 0.  0.
        -12    1    1    2    0    0 -0.20918426801E+02 -0.23638771449E+02 -0.45108854661E+01  0.31886049977E+02  0.00000000000E+00 0.  1.
         11    1    3    3    0    0  0.20972668943E+02  0.36452620852E+02  0.10839759919E+02  0.43429791675E+02  0.51100000000E-03 0. -1.
        -11    1    3    3    0    0  0.36723885765E+00 -0.90071480960E+01 -0.67060186337E+00  0.90395402716E+01  0.51100000000E-03 0.  1.
         12    1    3    3    0    0 -0.42148100008E+00 -0.38067013074E+01 -0.56582725899E+01  0.68326180765E+01  0.00000000000E+00 0. -1.
</event>
<event>
 7    1  0.5761011E-013  0.5930198E+02  0.7816164E-02  0.1266605E+00
        -11   -1    0    0    0    0  0.00000000000E+00  0.00000000000E+00  0.45593999997E+02  0.45594000000E+02  0.51100000000E-03 0.  1.
         11   -1    0    0    0    0 -0.00000000000E+00 -0.00000000000E+00 -0.45593999997E+02  0.45594000000E+02  0.51100000000E-03 0. -1.
    9900012    2    1    2    0    0 -0.15094058680E+02  0.26092154358E+02  0.10396493756E+02  0.59301980980E+02  0.50000067392E+02 0.  0.
        -12    1    1    2    0    0  0.15094058680E+02 -0.26092154358E+02 -0.10396493756E+02  0.31886019020E+02  0.00000000000E+00 0.  1.
         11    1    3    3    0    0  0.47619387351E+00  0.24070180384E+02  0.11766946438E+02  0.26796667200E+02  0.51100000000E-03 0. -1.
        -11    1    3    3    0    0 -0.20405727660E+02  0.48703690571E+01  0.72694963869E+01  0.22202697901E+02  0.51100000000E-03 0.  1.
         12    1    3    3    0    0  0.48354751062E+01 -0.28483950828E+01 -0.86399490682E+01  0.10302615879E+02  0.00000000000E+00 0. -1.
</event>
<event>
 7    1  0.5761011E-013  0.5930195E+02  0.7816164E-02  0.1266605E+00
        -11   -1    0    0    0    0  0.00000000000E+00  0.00000000000E+00  0.45593999997E+02  0.45594000000E+02  0.51100000000E-03 0. -1.
         11   -1    0    0    0    0 -0.00000000000E+00 -0.00000000000E+00 -0.45593999997E+02  0.45594000000E+02  0.51100000000E-03 0.  1.
    9900012    2    1    2    0    0 -0.20334337875E+02  0.73894555592E+01  0.23422876394E+02  0.59301945229E+02  0.50000002192E+02 0.  0.
        -12    1    1    2    0    0  0.20334337875E+02 -0.73894555592E+01 -0.23422876394E+02  0.31886054771E+02  0.00000000000E+00 0.  1.
         11    1    3    3    0    0 -0.63747972214E+01  0.49059893753E+01 -0.64716345605E+01  0.10324186433E+02  0.51100000000E-03 0. -1.
        -11    1    3    3    0    0  0.11095469699E+02 -0.66742478599E+00  0.17782941210E+02  0.20971120667E+02  0.51100000000E-03 0.  1.
        -12    1    3    3    0    0 -0.25055010352E+02  0.31508909699E+01  0.12111569744E+02  0.28006638129E+02  0.00000000000E+00 0.  1.
</event>
<event>
 7    1  0.5761011E-013  0.5930185E+02  0.7816164E-02  0.1266605E+00
        -11   -1    0    0    0    0  0.00000000000E+00  0.00000000000E+00  0.45593999997E+02  0.45594000000E+02  0.51100000000E-03 0. -1.
         11   -1    0    0    0    0 -0.00000000000E+00 -0.00000000000E+00 -0.45593999997E+02  0.45594000000E+02  0.51100000000E-03 0.  1.
    9900012    2    1    2    0    0  0.20518336960E+02  0.66336084596E+01  0.23488715141E+02  0.59301848590E+02  0.49999825944E+02 0.  0.
        -12    1    1    2    0    0 -0.20518336960E+02 -0.66336084596E+01 -0.23488715141E+02  0.31886151410E+02  0.00000000000E+00 0.  1.
         11    1    3    3    0    0 -0.16122656756E+01 -0.17078793274E+01  0.39727261194E+01  0.46150628909E+01  0.51100000000E-03 0. -1.
        -11    1    3    3    0    0  0.31906780831E+02  0.16924470130E+02  0.73142450027E+01  0.36850760269E+02  0.51100000000E-03 0.  1.
        -12    1    3    3    0    0 -0.97761781957E+01 -0.85829823434E+01  0.12201744019E+02  0.17836025430E+02  0.00000000000E+00 0.  1.
</event>
<event>
 7    1  0.5761011E-013  0.5930193E+02  0.7816164E-02  0.1266605E+00
        -11   -1    0    0    0    0  0.00000000000E+00  0.00000000000E+00  0.45593999997E+02  0.45594000000E+02  0.51100000000E-03 0.  1.
         11   -1    0    0    0    0 -0.00000000000E+00 -0.00000000000E+00 -0.45593999997E+02  0.45594000000E+02  0.51100000000E-03 0. -1.
    9900012    2    1    2    0    0  0.28089555125E+02  0.11771160208E+02  0.94413032628E+01  0.59301928949E+02  0.49999972500E+02 0.  0.
        -12    1    1    2    0    0 -0.28089555125E+02 -0.11771160208E+02 -0.94413032628E+01  0.31886071051E+02  0.00000000000E+00 0.  1.
         11    1    3    3    0    0  0.58189800059E+01  0.20613670306E+02  0.19860681223E+02  0.29210111104E+02  0.51100000000E-03 0. -1.
        -11    1    3    3    0    0  0.14505694946E+02 -0.12906502950E+02 -0.80006646584E+01  0.21000086654E+02  0.51100000000E-03 0.  1.
         12    1    3    3    0    0  0.77648801733E+01  0.40639928520E+01 -0.24187133018E+01  0.90917311907E+01  0.00000000000E+00 0. -1.
</event>
<event>
 7    1  0.5761011E-013  0.5930197E+02  0.7816164E-02  0.1266605E+00
        -11   -1    0    0    0    0  0.00000000000E+00  0.00000000000E+00  0.45593999997E+02  0.45594000000E+02  0.51100000000E-03 0.  1.
         11   -1    0    0    0    0 -0.00000000000E+00 -0.00000000000E+00 -0.45593999997E+02  0.45594000000E+02  0.51100000000E-03 0. -1.
    9900012    2    1    2    0    0  0.25896802903E+02  0.12485489529E+02  0.13790838327E+02  0.59301967460E+02  0.50000042734E+02 0.  0.
        -12    1    1    2    0    0 -0.25896802903E+02 -0.12485489529E+02 -0.13790838327E+02  0.31886032540E+02  0.00000000000E+00 0.  1.
         11    1    3    3    0    0  0.40922488954E+01 -0.12263586539E+02 -0.95677481809E+01  0.16083651990E+02  0.51100000000E-03 0. -1.
        -11    1    3    3    0    0  0.61795554126E+01  0.53819222868E+01  0.14774781492E+02  0.16895151997E+02  0.51100000000E-03 0.  1.
         12    1    3    3    0    0  0.15624998595E+02  0.19367153781E+02  0.85838050153E+01  0.26323163473E+02  0.00000000000E+00 0. -1.
</event>
<event>
 7    1  0.5761011E-013  0.5930195E+02  0.7816164E-02  0.1266605E+00
        -11   -1    0    0    0    0  0.00000000000E+00  0.00000000000E+00  0.45593999997E+02  0.45594000000E+02  0.51100000000E-03 0. -1.
         11   -1    0    0    0    0 -0.00000000000E+00 -0.00000000000E+00 -0.45593999997E+02  0.45594000000E+02  0.51100000000E-03 0.  1.
    9900012    2    1    2    0    0  0.27494006137E+02  0.16137863821E+02 -0.60755080846E+00  0.59301950697E+02  0.50000012163E+02 0.  0.
        -12    1    1    2    0    0 -0.27494006137E+02 -0.16137863821E+02  0.60755080846E+00  0.31886049303E+02  0.00000000000E+00 0.  1.
         11    1    3    3    0    0  0.28236687539E+01  0.17329047210E+02 -0.13459321603E+02  0.22122891328E+02  0.51100000000E-03 0. -1.
        -11    1    3    3    0    0  0.14568399369E+02 -0.12573876807E+02  0.10028529919E+02  0.21700508075E+02  0.51100000000E-03 0.  1.
         12    1    3    3    0    0  0.10101938014E+02  0.11382693418E+02  0.28232408762E+01  0.15478551293E+02  0.00000000000E+00 0. -1.
</event>
<event>
 7    1  0.5761011E-013  0.5930203E+02  0.7816164E-02  0.1266604E+00
        -11   -1    0    0    0    0  0.00000000000E+00  0.00000000000E+00  0.45593999997E+02  0.45594000000E+02  0.51100000000E-03 0.  1.
         11   -1    0    0    0    0 -0.00000000000E+00 -0.00000000000E+00 -0.45593999997E+02  0.45594000000E+02  0.51100000000E-03 0. -1.
    9900012    2    1    2    0    0  0.24152115813E+02 -0.13004943697E+02 -0.16256138674E+02  0.59302026541E+02  0.50000150485E+02 0.  0.
        -12    1    1    2    0    0 -0.24152115813E+02  0.13004943697E+02  0.16256138674E+02  0.31885973459E+02  0.00000000000E+00 0.  1.
         11    1    3    3    0    0 -0.71221822163E+01  0.10720003919E+02 -0.15263767317E+02  0.19965634388E+02  0.51100000000E-03 0. -1.
        -11    1    3    3    0    0  0.22171655118E+02 -0.17252728053E+02 -0.17013004196E+01  0.28144863462E+02  0.51100000000E-03 0.  1.
         12    1    3    3    0    0  0.91026429110E+01 -0.64722195634E+01  0.70892906203E+00  0.11191528692E+02  0.00000000000E+00 0. -1.
</event>
<event>
 7    1  0.5761011E-013  0.5930196E+02  0.7816164E-02  0.1266605E+00
        -11   -1    0    0    0    0  0.00000000000E+00  0.00000000000E+00  0.45593999997E+02  0.45594000000E+02  0.51100000000E-03 0.  1.
         11   -1    0    0    0    0 -0.00000000000E+00 -0.00000000000E+00 -0.45593999997E+02  0.45594000000E+02  0.51100000000E-03 0. -1.
    9900012    2    1    2    0    0  0.15697272225E+02  0.10269994784E+02 -0.25784533633E+02  0.59301963513E+02  0.50000035536E+02 0.  0.
        -12    1    1    2    0    0 -0.15697272225E+02 -0.10269994784E+02  0.25784533633E+02  0.31886036487E+02  0.00000000000E+00 0.  1.
         11    1    3    3    0    0  0.25545678840E+02 -0.39256929696E+01 -0.16052296832E+02  0.30424809063E+02  0.51100000000E-03 0. -1.
        -11    1    3    3    0    0 -0.75146940819E+01  0.15781108529E+02  0.12641450559E+01  0.17524613449E+02  0.51100000000E-03 0.  1.
         12    1    3    3    0    0 -0.23337125328E+01 -0.15854207761E+01 -0.10996381857E+02  0.11352541001E+02  0.00000000000E+00 0. -1.
</event>
<event>
 7    1  0.5761011E-013  0.5930196E+02  0.7816164E-02  0.1266605E+00
        -11   -1    0    0    0    0  0.00000000000E+00  0.00000000000E+00  0.45593999997E+02  0.45594000000E+02  0.51100000000E-03 0. -1.
         11   -1    0    0    0    0 -0.00000000000E+00 -0.00000000000E+00 -0.45593999997E+02  0.45594000000E+02  0.51100000000E-03 0.  1.
    9900012    2    1    2    0    0  0.30781861606E+01 -0.15685987937E+02  0.27589746241E+02  0.59301960026E+02  0.50000029177E+02 0.  0.
        -12    1    1    2    0    0 -0.30781861606E+01  0.15685987937E+02 -0.27589746241E+02  0.31886039974E+02  0.00000000000E+00 0.  1.
         11    1    3    3    0    0  0.18642394000E+02 -0.63500379904E+01  0.31154084858E+02  0.36857005306E+02  0.51100000000E-03 0. -1.
        -11    1    3    3    0    0 -0.14452948505E+02 -0.43929772152E+01  0.16245010262E+01  0.15192925102E+02  0.51100000000E-03 0.  1.
         12    1    3    3    0    0 -0.11112593341E+01 -0.49429727318E+01 -0.51888396432E+01  0.72520296178E+01  0.00000000000E+00 0. -1.
</event>
<event>
 7    1  0.5761011E-013  0.5930201E+02  0.7816164E-02  0.1266605E+00
        -11   -1    0    0    0    0  0.00000000000E+00  0.00000000000E+00  0.45593999997E+02  0.45594000000E+02  0.51100000000E-03 0.  1.
         11   -1    0    0    0    0 -0.00000000000E+00 -0.00000000000E+00 -0.45593999997E+02  0.45594000000E+02  0.51100000000E-03 0. -1.
    9900012    2    1    2    0    0  0.30371780460E+02  0.50723591901E+01  0.82790432025E+01  0.59302008837E+02  0.50000118197E+02 0.  0.
        -12    1    1    2    0    0 -0.30371780460E+02 -0.50723591901E+01 -0.82790432025E+01  0.31885991163E+02  0.00000000000E+00 0.  1.
         11    1    3    3    0    0  0.17530938448E+02 -0.21025678847E+01 -0.10860729708E+02  0.20729448729E+02  0.51100000000E-03 0. -1.
        -11    1    3    3    0    0  0.15323627826E+02  0.16451712392E+02  0.18195157098E+02  0.28922934714E+02  0.51100000000E-03 0.  1.
        -12    1    3    3    0    0 -0.24827858133E+01 -0.92767853172E+01  0.94461581284E+00  0.96496253943E+01  0.00000000000E+00 0.  1.
</event>
<event>
 7    1  0.5761011E-013  0.5930195E+02  0.7816164E-02  0.1266605E+00
        -11   -1    0    0    0    0  0.00000000000E+00  0.00000000000E+00  0.45593999997E+02  0.45594000000E+02  0.51100000000E-03 0.  1.
         11   -1    0    0    0    0 -0.00000000000E+00 -0.00000000000E+00 -0.45593999997E+02  0.45594000000E+02  0.51100000000E-03 0. -1.
    9900012    2    1    2    0    0 -0.26992653169E+02 -0.71632052143E+00 -0.16958882404E+02  0.59301950816E+02  0.50000012380E+02 0.  0.
        -12    1    1    2    0    0  0.26992653169E+02  0.71632052143E+00  0.16958882404E+02  0.31886049184E+02  0.00000000000E+00 0.  1.
         11    1    3    3    0    0 -0.33812769428E+02 -0.58369652978E+01 -0.22389317880E+02  0.40971393626E+02  0.51100000000E-03 0. -1.
        -11    1    3    3    0    0  0.27532804795E+00  0.88701798844E+01  0.60837568270E+01  0.10759553620E+02  0.51100000000E-03 0.  1.
         12    1    3    3    0    0  0.65447882118E+01 -0.37495351080E+01 -0.65332135166E+00  0.75710035697E+01  0.00000000000E+00 0. -1.
</event>
<event>
 7    1  0.5761011E-013  0.5930195E+02  0.7816164E-02  0.1266605E+00
        -11   -1    0    0    0    0  0.00000000000E+00  0.00000000000E+00  0.45593999997E+02  0.45594000000E+02  0.51100000000E-03 0.  1.
         11   -1    0    0    0    0 -0.00000000000E+00 -0.00000000000E+00 -0.45593999997E+02  0.45594000000E+02  0.51100000000E-03 0. -1.
    9900012    2    1    2    0    0  0.10975470131E+02  0.23455377129E+02  0.18603888102E+02  0.59301947981E+02  0.50000007209E+02 0.  0.
        -12    1    1    2    0    0 -0.10975470131E+02 -0.23455377129E+02 -0.18603888102E+02  0.31886052019E+02  0.00000000000E+00 0.  1.
         11    1    3    3    0    0  0.15890004504E+02  0.37990166325E+01 -0.52554917891E-01  0.16337917027E+02  0.51100000000E-03 0. -1.
        -11    1    3    3    0    0 -0.68548616131E+01  0.27165463867E+02  0.20827207167E+02  0.34910229353E+02  0.51100000000E-03 0.  1.
        -12    1    3    3    0    0  0.19403272408E+01 -0.75091033712E+01 -0.21707641468E+01  0.80538016006E+01  0.00000000000E+00 0.  1.
</event>
<event>
 7    1  0.5761011E-013  0.5930195E+02  0.7816164E-02  0.1266605E+00
        -11   -1    0    0    0    0  0.00000000000E+00  0.00000000000E+00  0.45593999997E+02  0.45594000000E+02  0.51100000000E-03 0. -1.
         11   -1    0    0    0    0 -0.00000000000E+00 -0.00000000000E+00 -0.45593999997E+02  0.45594000000E+02  0.51100000000E-03 0.  1.
    9900012    2    1    2    0    0 -0.24043593175E+02  0.10242182197E+02  0.18268105677E+02  0.59301947344E+02  0.50000006049E+02 0.  0.
        -12    1    1    2    0    0  0.24043593175E+02 -0.10242182197E+02 -0.18268105677E+02  0.31886052656E+02  0.00000000000E+00 0.  1.
         11    1    3    3    0    0 -0.17841666407E+02  0.77081309238E+01  0.18575030877E+02  0.26884421416E+02  0.51100000000E-03 0. -1.
        -11    1    3    3    0    0 -0.18294357737E+01  0.29260942052E+01 -0.15873229466E+02  0.16244022793E+02  0.51100000000E-03 0.  1.
        -12    1    3    3    0    0 -0.43724909950E+01 -0.39204293234E+00  0.15566304266E+02  0.16173503136E+02  0.00000000000E+00 0.  1.
</event>
<event>
 7    1  0.5761011E-013  0.5930194E+02  0.7816164E-02  0.1266605E+00
        -11   -1    0    0    0    0  0.00000000000E+00  0.00000000000E+00  0.45593999997E+02  0.45594000000E+02  0.51100000000E-03 0.  1.
         11   -1    0    0    0    0 -0.00000000000E+00 -0.00000000000E+00 -0.45593999997E+02  0.45594000000E+02  0.51100000000E-03 0. -1.
    9900012    2    1    2    0    0  0.87541521429E+01 -0.83220179395E+01 -0.29509819916E+02  0.59301942957E+02  0.49999998047E+02 0.  0.
        -12    1    1    2    0    0 -0.87541521429E+01  0.83220179395E+01  0.29509819916E+02  0.31886057043E+02  0.00000000000E+00 0.  1.
         11    1    3    3    0    0  0.22361912549E+01 -0.36534626152E+01 -0.28617940387E+01  0.51515246084E+01  0.51100000000E-03 0. -1.
        -11    1    3    3    0    0 -0.13580829316E+02  0.41588100554E+01 -0.28781318353E+02  0.32095154033E+02  0.51100000000E-03 0.  1.
        -12    1    3    3    0    0  0.20098790204E+02 -0.88273653797E+01  0.21332924764E+01  0.22055264315E+02  0.00000000000E+00 0.  1.
</event>
<event>
 7    1  0.5761011E-013  0.5930194E+02  0.7816164E-02  0.1266605E+00
        -11   -1    0    0    0    0  0.00000000000E+00  0.00000000000E+00  0.45593999997E+02  0.45594000000E+02  0.51100000000E-03 0. -1.
         11   -1    0    0    0    0 -0.00000000000E+00 -0.00000000000E+00 -0.45593999997E+02  0.45594000000E+02  0.51100000000E-03 0.  1.
    9900012    2    1    2    0    0  0.29022051356E+02  0.85805152952E+01 -0.10040718845E+02  0.59301941251E+02  0.49999994936E+02 0.  0.
        -12    1    1    2    0    0 -0.29022051356E+02 -0.85805152952E+01  0.10040718845E+02  0.31886058749E+02  0.00000000000E+00 0.  1.
         11    1    3    3    0    0  0.19768447610E+02  0.88161308368E+01 -0.21994073103E+02  0.30858628222E+02  0.51100000000E-03 0.  1.
        -11    1    3    3    0    0  0.27766101038E+01 -0.11928264456E+02  0.74661127455E+01  0.14343496659E+02  0.51100000000E-03 0. -1.
         12    1    3    3    0    0  0.64769936422E+01  0.11692648915E+02  0.44872415126E+01  0.14099816370E+02  0.00000000000E+00 0. -1.
</event>
<event>
 7    1  0.5761011E-013  0.5930195E+02  0.7816164E-02  0.1266605E+00
        -11   -1    0    0    0    0  0.00000000000E+00  0.00000000000E+00  0.45593999997E+02  0.45594000000E+02  0.51100000000E-03 0.  1.
         11   -1    0    0    0    0 -0.00000000000E+00 -0.00000000000E+00 -0.45593999997E+02  0.45594000000E+02  0.51100000000E-03 0. -1.
    9900012    2    1    2    0    0 -0.46242333770E+01 -0.21896941210E+02 -0.22712561936E+02  0.59301952293E+02  0.50000015074E+02 0.  0.
        -12    1    1    2    0    0  0.46242333770E+01  0.21896941210E+02  0.22712561936E+02  0.31886047707E+02  0.00000000000E+00 0.  1.
         11    1    3    3    0    0  0.29814661745E+01 -0.11896485135E+02 -0.28131921413E+01  0.12582907033E+02  0.51100000000E-03 0. -1.
        -11    1    3    3    0    0 -0.63000964701E+01  0.93232752783E+01  0.72379604833E+01  0.13379190920E+02  0.51100000000E-03 0.  1.
        -12    1    3    3    0    0 -0.13056030813E+01 -0.19323731354E+02 -0.27137330277E+02  0.33339854340E+02  0.00000000000E+00 0.  1.
</event>
<event>
 7    1  0.5761011E-013  0.5930190E+02  0.7816164E-02  0.1266605E+00
        -11   -1    0    0    0    0  0.00000000000E+00  0.00000000000E+00  0.45593999997E+02  0.45594000000E+02  0.51100000000E-03 0.  1.
         11   -1    0    0    0    0 -0.00000000000E+00 -0.00000000000E+00 -0.45593999997E+02  0.45594000000E+02  0.51100000000E-03 0. -1.
    9900012    2    1    2    0    0 -0.18569281354E+02  0.13737022704E+02 -0.21981795199E+02  0.59301900788E+02  0.49999921141E+02 0.  0.
        -12    1    1    2    0    0  0.18569281354E+02 -0.13737022704E+02  0.21981795199E+02  0.31886099212E+02  0.00000000000E+00 0.  1.
         11    1    3    3    0    0  0.12810852733E+02  0.15766177250E+02 -0.17635655929E+02  0.26901796467E+02  0.51100000000E-03 0. -1.
        -11    1    3    3    0    0 -0.10992048767E+02 -0.79680593036E+00  0.15774019157E+01  0.11133204070E+02  0.51100000000E-03 0.  1.
         12    1    3    3    0    0 -0.20388085320E+02 -0.12323486156E+01 -0.59235411851E+01  0.21266900252E+02  0.00000000000E+00 0. -1.
</event>
<event>
 7    1  0.5761011E-013  0.5930194E+02  0.7816164E-02  0.1266605E+00
        -11   -1    0    0    0    0  0.00000000000E+00  0.00000000000E+00  0.45593999997E+02  0.45594000000E+02  0.51100000000E-03 0. -1.
         11   -1    0    0    0    0 -0.00000000000E+00 -0.00000000000E+00 -0.45593999997E+02  0.45594000000E+02  0.51100000000E-03 0.  1.
    9900012    2    1    2    0    0 -0.93152481684E+01 -0.23166501143E+02  0.19830781628E+02  0.59301944684E+02  0.50000001197E+02 0.  0.
        -12    1    1    2    0    0  0.93152481684E+01  0.23166501143E+02 -0.19830781628E+02  0.31886055316E+02  0.00000000000E+00 0.  1.
         11    1    3    3    0    0  0.75684895164E+01 -0.24271396074E+02  0.14724976339E+02  0.29380395324E+02  0.51100000000E-03 0. -1.
        -11    1    3    3    0    0 -0.15377372115E+02  0.52860495115E+01 -0.64864557518E+01  0.17506570226E+02  0.51100000000E-03 0.  1.
         12    1    3    3    0    0 -0.15063655696E+01 -0.41811545801E+01  0.11592261041E+02  0.12414979134E+02  0.00000000000E+00 0. -1.
</event>
<event>
 7    1  0.5761011E-013  0.5930197E+02  0.7816164E-02  0.1266605E+00
        -11   -1    0    0    0    0  0.00000000000E+00  0.00000000000E+00  0.45593999997E+02  0.45594000000E+02  0.51100000000E-03 0. -1.
         11   -1    0    0    0    0 -0.00000000000E+00 -0.00000000000E+00 -0.45593999997E+02  0.45594000000E+02  0.51100000000E-03 0.  1.
    9900012    2    1    2    0    0  0.22739033577E+02 -0.28619637438E+01 -0.22168999182E+02  0.59301968431E+02  0.50000044507E+02 0.  0.
        -12    1    1    2    0    0 -0.22739033577E+02  0.28619637438E+01  0.22168999182E+02  0.31886031569E+02  0.00000000000E+00 0.  1.
         11    1    3    3    0    0  0.15628414056E+02 -0.81050566581E+01  0.89259848444E+01  0.19738603675E+02  0.51100000000E-03 0. -1.
        -11    1    3    3    0    0 -0.78848044641E+01  0.37858072089E+01 -0.16009536538E+02  0.18243018886E+02  0.51100000000E-03 0.  1.
         12    1    3    3    0    0  0.14995423984E+02  0.14572857054E+01 -0.15085447488E+02  0.21320345870E+02  0.00000000000E+00 0. -1.
</event>
<event>
 7    1  0.5761011E-013  0.5930195E+02  0.7816164E-02  0.1266605E+00
        -11   -1    0    0    0    0  0.00000000000E+00  0.00000000000E+00  0.45593999997E+02  0.45594000000E+02  0.51100000000E-03 0.  1.
         11   -1    0    0    0    0 -0.00000000000E+00 -0.00000000000E+00 -0.45593999997E+02  0.45594000000E+02  0.51100000000E-03 0. -1.
    9900012    2    1    2    0    0  0.30371883582E+02  0.52053225881E+01 -0.81959273172E+01  0.59301954147E+02  0.50000018455E+02 0.  0.
        -12    1    1    2    0    0 -0.30371883582E+02 -0.52053225881E+01  0.81959273172E+01  0.31886045853E+02  0.00000000000E+00 0.  1.
         11    1    3    3    0    0  0.78798841295E+01  0.18097604102E+02 -0.15041042747E+02  0.24816301403E+02  0.51100000000E-03 0. -1.
        -11    1    3    3    0    0  0.25659951926E+02 -0.14240497546E+02  0.86546096353E+01  0.30596195375E+02  0.51100000000E-03 0.  1.
        -12    1    3    3    0    0 -0.31679524740E+01  0.13482160318E+01 -0.18094942055E+01  0.38894573691E+01  0.00000000000E+00 0.  1.
</event>
<event>
 7    1  0.5761011E-013  0.5930191E+02  0.7816164E-02  0.1266605E+00
        -11   -1    0    0    0    0  0.00000000000E+00  0.00000000000E+00  0.45593999997E+02  0.45594000000E+02  0.51100000000E-03 0. -1.
         11   -1    0    0    0    0 -0.00000000000E+00 -0.00000000000E+00 -0.45593999997E+02  0.45594000000E+02  0.51100000000E-03 0.  1.
    9900012    2    1    2    0    0 -0.30785563769E+02  0.56766479646E+01 -0.60619496969E+01  0.59301913649E+02  0.49999944596E+02 0.  0.
        -12    1    1    2    0    0  0.30785563769E+02 -0.56766479646E+01  0.60619496969E+01  0.31886086351E+02  0.00000000000E+00 0.  1.
         11    1    3    3    0    0 -0.31009111013E+02 -0.12680119329E+01  0.10262455978E+02  0.32687777885E+02  0.51100000000E-03 0. -1.
        -11    1    3    3    0    0 -0.61953016203E+01  0.11327050997E+02 -0.12426339565E+02  0.17919200923E+02  0.51100000000E-03 0.  1.
         12    1    3    3    0    0  0.64188488644E+01 -0.43823910999E+01 -0.38980661092E+01  0.86949348409E+01  0.00000000000E+00 0. -1.
</event>
<event>
 7    1  0.5761011E-013  0.5930197E+02  0.7816164E-02  0.1266605E+00
        -11   -1    0    0    0    0  0.00000000000E+00  0.00000000000E+00  0.45593999997E+02  0.45594000000E+02  0.51100000000E-03 0.  1.
         11   -1    0    0    0    0 -0.00000000000E+00 -0.00000000000E+00 -0.45593999997E+02  0.45594000000E+02  0.51100000000E-03 0. -1.
    9900012    2    1    2    0    0  0.21178481456E+02  0.18052951469E+02  0.15565404083E+02  0.59301969551E+02  0.50000046549E+02 0.  0.
        -12    1    1    2    0    0 -0.21178481456E+02 -0.18052951469E+02 -0.15565404083E+02  0.31886030449E+02  0.00000000000E+00 0.  1.
         11    1    3    3    0    0  0.26238982368E+02  0.22121175997E+02  0.25324030519E+02  0.42651344002E+02  0.51100000000E-03 0.  1.
        -11    1    3    3    0    0 -0.39027533202E+01 -0.69911374972E+00 -0.11866427264E+02  0.12511288494E+02  0.51100000000E-03 0. -1.
        -12    1    3    3    0    0 -0.11577475925E+01 -0.33691107787E+01  0.21078008281E+01  0.41393370554E+01  0.00000000000E+00 0.  1.
</event>
<event>
 7    1  0.5761011E-013  0.5930193E+02  0.7816164E-02  0.1266605E+00
        -11   -1    0    0    0    0  0.00000000000E+00  0.00000000000E+00  0.45593999997E+02  0.45594000000E+02  0.51100000000E-03 0.  1.
         11   -1    0    0    0    0 -0.00000000000E+00 -0.00000000000E+00 -0.45593999997E+02  0.45594000000E+02  0.51100000000E-03 0. -1.
    9900012    2    1    2    0    0 -0.40437891852E+01 -0.17085055626E+02 -0.26617097205E+02  0.59301933758E+02  0.49999981271E+02 0.  0.
        -12    1    1    2    0    0  0.40437891852E+01  0.17085055626E+02  0.26617097205E+02  0.31886066242E+02  0.00000000000E+00 0.  1.
         11    1    3    3    0    0 -0.22260557885E+01 -0.20877593408E+02  0.72368105411E+01  0.22208121442E+02  0.51100000000E-03 0.  1.
        -11    1    3    3    0    0 -0.31708498622E+01 -0.14246027564E+01 -0.30602462074E+02  0.30799260821E+02  0.51100000000E-03 0. -1.
         12    1    3    3    0    0  0.13531164655E+01  0.52171405388E+01 -0.32514456721E+01  0.62945514954E+01  0.00000000000E+00 0. -1.
</event>
<event>
 7    1  0.5761011E-013  0.5930198E+02  0.7816164E-02  0.1266605E+00
        -11   -1    0    0    0    0  0.00000000000E+00  0.00000000000E+00  0.45593999997E+02  0.45594000000E+02  0.51100000000E-03 0.  1.
         11   -1    0    0    0    0 -0.00000000000E+00 -0.00000000000E+00 -0.45593999997E+02  0.45594000000E+02  0.51100000000E-03 0. -1.
    9900012    2    1    2    0    0  0.16598627025E+02 -0.26680008244E+02  0.54203979389E+01  0.59301984682E+02  0.50000074144E+02 0.  0.
        -12    1    1    2    0    0 -0.16598627025E+02  0.26680008244E+02 -0.54203979389E+01  0.31886015318E+02  0.00000000000E+00 0.  1.
         11    1    3    3    0    0 -0.39561313663E+01  0.59031821138E+00 -0.13804273747E+02  0.14372105793E+02  0.51100000000E-03 0. -1.
        -11    1    3    3    0    0  0.44409670683E+01 -0.28634308874E+01  0.14334591470E+02  0.15277497761E+02  0.51100000000E-03 0.  1.
         12    1    3    3    0    0  0.16113791323E+02 -0.24406895568E+02  0.48900802160E+01  0.29652381129E+02  0.00000000000E+00 0. -1.
</event>
<event>
 7    1  0.5761011E-013  0.5930192E+02  0.7816164E-02  0.1266605E+00
        -11   -1    0    0    0    0  0.00000000000E+00  0.00000000000E+00  0.45593999997E+02  0.45594000000E+02  0.51100000000E-03 0. -1.
         11   -1    0    0    0    0 -0.00000000000E+00 -0.00000000000E+00 -0.45593999997E+02  0.45594000000E+02  0.51100000000E-03 0.  1.
    9900012    2    1    2    0    0 -0.22641251705E+00  0.11564721685E+02  0.29714100864E+02  0.59301924035E+02  0.49999963539E+02 0.  0.
        -12    1    1    2    0    0  0.22641251705E+00 -0.11564721685E+02 -0.29714100864E+02  0.31886075965E+02  0.00000000000E+00 0.  1.
         11    1    3    3    0    0 -0.13591442430E+02  0.13259702646E+02  0.38407541124E+02  0.42844909115E+02  0.51100000000E-03 0. -1.
        -11    1    3    3    0    0  0.62379891659E+01  0.10374288053E+01 -0.35370111591E+01  0.72456342415E+01  0.51100000000E-03 0.  1.
         12    1    3    3    0    0  0.71270407474E+01 -0.27324097666E+01 -0.51564291009E+01  0.92113806794E+01  0.00000000000E+00 0. -1.
</event>
<event>
 7    1  0.5761011E-013  0.5930196E+02  0.7816164E-02  0.1266605E+00
        -11   -1    0    0    0    0  0.00000000000E+00  0.00000000000E+00  0.45593999997E+02  0.45594000000E+02  0.51100000000E-03 0. -1.
         11   -1    0    0    0    0 -0.00000000000E+00 -0.00000000000E+00 -0.45593999997E+02  0.45594000000E+02  0.51100000000E-03 0.  1.
    9900012    2    1    2    0    0  0.11593156415E+01 -0.23639855538E+02  0.21366624548E+02  0.59301961877E+02  0.50000032553E+02 0.  0.
        -12    1    1    2    0    0 -0.11593156415E+01  0.23639855538E+02 -0.21366624548E+02  0.31886038123E+02  0.00000000000E+00 0.  1.
         11    1    3    3    0    0 -0.53002078514E+01  0.17265474028E+01  0.10466383878E+01  0.56717388320E+01  0.51100000000E-03 0. -1.
        -11    1    3    3    0    0  0.22543254423E+02 -0.24144900903E+02  0.10130924773E+02  0.34551558527E+02  0.51100000000E-03 0.  1.
        -12    1    3    3    0    0 -0.16083730930E+02 -0.12215020381E+01  0.10189061387E+02  0.19078664518E+02  0.00000000000E+00 0.  1.
</event>
<event>
 7    1  0.5761011E-013  0.5930193E+02  0.7816164E-02  0.1266605E+00
        -11   -1    0    0    0    0  0.00000000000E+00  0.00000000000E+00  0.45593999997E+02  0.45594000000E+02  0.51100000000E-03 0. -1.
         11   -1    0    0    0    0 -0.00000000000E+00 -0.00000000000E+00 -0.45593999997E+02  0.45594000000E+02  0.51100000000E-03 0.  1.
    9900012    2    1    2    0    0  0.14678151757E+02 -0.17856072416E+02  0.21964377546E+02  0.59301931850E+02  0.49999977790E+02 0.  0.
        -12    1    1    2    0    0 -0.14678151757E+02  0.17856072416E+02 -0.21964377546E+02  0.31886068150E+02  0.00000000000E+00 0.  1.
         11    1    3    3    0    0  0.92122661612E+01  0.27998836335E+01  0.40652722983E+01  0.10451393941E+02  0.51100000000E-03 0. -1.
        -11    1    3    3    0    0 -0.11376378112E+02 -0.24547309615E+02  0.55820099373E+01  0.27625191827E+02  0.51100000000E-03 0.  1.
        -12    1    3    3    0    0  0.16842263708E+02  0.38913535662E+01  0.12317095310E+02  0.21225346081E+02  0.00000000000E+00 0.  1.
</event>
<event>
 7    1  0.5761011E-013  0.5930198E+02  0.7816164E-02  0.1266605E+00
        -11   -1    0    0    0    0  0.00000000000E+00  0.00000000000E+00  0.45593999997E+02  0.45594000000E+02  0.51100000000E-03 0. -1.
         11   -1    0    0    0    0 -0.00000000000E+00 -0.00000000000E+00 -0.45593999997E+02  0.45594000000E+02  0.51100000000E-03 0.  1.
    9900012    2    1    2    0    0 -0.15005357961E+01 -0.28877465368E+02  0.13437216292E+02  0.59301978055E+02  0.50000062058E+02 0.  0.
        -12    1    1    2    0    0  0.15005357961E+01  0.28877465368E+02 -0.13437216292E+02  0.31886021945E+02  0.00000000000E+00 0.  1.
         11    1    3    3    0    0  0.13538446716E+02 -0.10726518325E+02  0.20784370463E+02  0.27024762546E+02  0.51100000000E-03 0. -1.
        -11    1    3    3    0    0 -0.88066208913E+01 -0.12641324703E+02  0.60135510288E+01  0.16538514383E+02  0.51100000000E-03 0.  1.
         12    1    3    3    0    0 -0.62323616207E+01 -0.55096223410E+01 -0.13360705200E+02  0.15738701127E+02  0.00000000000E+00 0. -1.
</event>
<event>
 7    1  0.5761011E-013  0.5930191E+02  0.7816164E-02  0.1266605E+00
        -11   -1    0    0    0    0  0.00000000000E+00  0.00000000000E+00  0.45593999997E+02  0.45594000000E+02  0.51100000000E-03 0. -1.
         11   -1    0    0    0    0 -0.00000000000E+00 -0.00000000000E+00 -0.45593999997E+02  0.45594000000E+02  0.51100000000E-03 0.  1.
    9900012    2    1    2    0    0  0.26125089260E+02 -0.17849629669E+02  0.39488143126E+01  0.59301910515E+02  0.49999938881E+02 0.  0.
        -12    1    1    2    0    0 -0.26125089260E+02  0.17849629669E+02 -0.39488143126E+01  0.31886089485E+02  0.00000000000E+00 0.  1.
         11    1    3    3    0    0  0.37635951501E+02 -0.95088507415E+01  0.76643017789E+01  0.39567974548E+02  0.51100000000E-03 0. -1.
        -11    1    3    3    0    0 -0.93179023137E+01 -0.24899921864E+01 -0.76843140713E+01  0.12331749577E+02  0.51100000000E-03 0.  1.
         12    1    3    3    0    0 -0.21929599275E+01 -0.58507867409E+01  0.39688266050E+01  0.74021863899E+01  0.00000000000E+00 0. -1.
</event>
<event>
 7    1  0.5761011E-013  0.5930197E+02  0.7816164E-02  0.1266605E+00
        -11   -1    0    0    0    0  0.00000000000E+00  0.00000000000E+00  0.45593999997E+02  0.45594000000E+02  0.51100000000E-03 0. -1.
         11   -1    0    0    0    0 -0.00000000000E+00 -0.00000000000E+00 -0.45593999997E+02  0.45594000000E+02  0.51100000000E-03 0.  1.
    9900012    2    1    2    0    0  0.22566876023E+02 -0.58271411520E+01  0.21760040314E+02  0.59301971368E+02  0.50000049862E+02 0.  0.
        -12    1    1    2    0    0 -0.22566876023E+02  0.58271411520E+01 -0.21760040314E+02  0.31886028632E+02  0.00000000000E+00 0.  1.
         11    1    3    3    0    0  0.18604748570E+01 -0.10525232095E+02  0.19936376876E+02  0.22620809016E+02  0.51100000000E-03 0.  1.
        -11    1    3    3    0    0  0.10333186159E+02  0.90393117358E+01 -0.12434021256E+02  0.18522655795E+02  0.51100000000E-03 0. -1.
         12    1    3    3    0    0  0.10373215007E+02 -0.43412207927E+01  0.14257684694E+02  0.18158506557E+02  0.00000000000E+00 0. -1.
</event>
<event>
 7    1  0.5761011E-013  0.5930194E+02  0.7816164E-02  0.1266605E+00
        -11   -1    0    0    0    0  0.00000000000E+00  0.00000000000E+00  0.45593999997E+02  0.45594000000E+02  0.51100000000E-03 0. -1.
         11   -1    0    0    0    0 -0.00000000000E+00 -0.00000000000E+00 -0.45593999997E+02  0.45594000000E+02  0.51100000000E-03 0.  1.
    9900012    2    1    2    0    0 -0.30222639897E+01 -0.30443422966E+02  0.89880322132E+01  0.59301940279E+02  0.49999993163E+02 0.  0.
        -12    1    1    2    0    0  0.30222639897E+01  0.30443422966E+02 -0.89880322132E+01  0.31886059721E+02  0.00000000000E+00 0.  1.
         11    1    3    3    0    0 -0.18590118270E+01  0.13769118218E+02  0.11799689812E+01  0.13944062125E+02  0.51100000000E-03 0. -1.
        -11    1    3    3    0    0 -0.33815867872E+01 -0.18735945226E+02  0.45813367802E+01  0.19582119897E+02  0.51100000000E-03 0.  1.
         12    1    3    3    0    0  0.22183346245E+01 -0.25476595958E+02  0.32267264518E+01  0.25775758256E+02  0.00000000000E+00 0. -1.
</event>
<event>
 7    1  0.5761011E-013  0.5930196E+02  0.7816164E-02  0.1266605E+00
        -11   -1    0    0    0    0  0.00000000000E+00  0.00000000000E+00  0.45593999997E+02  0.45594000000E+02  0.51100000000E-03 0.  1.
         11   -1    0    0    0    0 -0.00000000000E+00 -0.00000000000E+00 -0.45593999997E+02  0.45594000000E+02  0.51100000000E-03 0. -1.
    9900012    2    1    2    0    0 -0.31178585565E+02 -0.43261839999E+01  0.50891677613E+01  0.59301957688E+02  0.50000024913E+02 0.  0.
        -12    1    1    2    0    0  0.31178585565E+02  0.43261839999E+01 -0.50891677613E+01  0.31886042312E+02  0.00000000000E+00 0.  1.
         11    1    3    3    0    0 -0.25829999647E+02 -0.96835233453E+00  0.49098242154E+00  0.25852807429E+02  0.51100000000E-03 0. -1.
        -11    1    3    3    0    0  0.76242587122E+01  0.57458088546E+01  0.12509161041E+02  0.15736033506E+02  0.51100000000E-03 0.  1.
        -12    1    3    3    0    0 -0.12972844630E+02 -0.91036405200E+01 -0.79109757012E+01  0.17713116752E+02  0.00000000000E+00 0.  1.
</event>
<event>
 7    1  0.5761011E-013  0.5930194E+02  0.7816164E-02  0.1266605E+00
        -11   -1    0    0    0    0  0.00000000000E+00  0.00000000000E+00  0.45593999997E+02  0.45594000000E+02  0.51100000000E-03 0.  1.
         11   -1    0    0    0    0 -0.00000000000E+00 -0.00000000000E+00 -0.45593999997E+02  0.45594000000E+02  0.51100000000E-03 0. -1.
    9900012    2    1    2    0    0 -0.25963024914E+02 -0.61858487701E+01 -0.17446413237E+02  0.59301941565E+02  0.49999995508E+02 0.  0.
        -12    1    1    2    0    0  0.25963024914E+02  0.61858487701E+01  0.17446413237E+02  0.31886058435E+02  0.00000000000E+00 0.  1.
         11    1    3    3    0    0 -0.25705582073E+02 -0.73903732914E+01 -0.11923135560E+02  0.29284052468E+02  0.51100000000E-03 0. -1.
        -11    1    3    3    0    0  0.13610508329E+02 -0.40317646092E-01 -0.81277396641E+01  0.15852687936E+02  0.51100000000E-03 0.  1.
         12    1    3    3    0    0 -0.13867951171E+02  0.12448421674E+01  0.26044619875E+01  0.14165201161E+02  0.00000000000E+00 0. -1.
</event>
<event>
 7    1  0.5761011E-013  0.5930194E+02  0.7816164E-02  0.1266605E+00
        -11   -1    0    0    0    0  0.00000000000E+00  0.00000000000E+00  0.45593999997E+02  0.45594000000E+02  0.51100000000E-03 0.  1.
         11   -1    0    0    0    0 -0.00000000000E+00 -0.00000000000E+00 -0.45593999997E+02  0.45594000000E+02  0.51100000000E-03 0. -1.
    9900012    2    1    2    0    0 -0.24438678714E+02 -0.92756503130E+01 -0.18260171367E+02  0.59301944045E+02  0.50000000031E+02 0.  0.
        -12    1    1    2    0    0  0.24438678714E+02  0.92756503130E+01  0.18260171367E+02  0.31886055955E+02  0.00000000000E+00 0.  1.
         11    1    3    3    0    0 -0.34218916282E+01 -0.17120994958E+01 -0.30216415993E+02  0.30457715324E+02  0.51100000000E-03 0. -1.
        -11    1    3    3    0    0 -0.73219987852E+01 -0.36010023416E+01 -0.25067105667E+01  0.85359523313E+01  0.51100000000E-03 0.  1.
         12    1    3    3    0    0 -0.13694788300E+02 -0.39625484756E+01  0.14462955193E+02  0.20308276390E+02  0.00000000000E+00 0. -1.
</event>
<event>
 7    1  0.5761011E-013  0.5930194E+02  0.7816164E-02  0.1266605E+00
        -11   -1    0    0    0    0  0.00000000000E+00  0.00000000000E+00  0.45593999997E+02  0.45594000000E+02  0.51100000000E-03 0. -1.
         11   -1    0    0    0    0 -0.00000000000E+00 -0.00000000000E+00 -0.45593999997E+02  0.45594000000E+02  0.51100000000E-03 0.  1.
    9900012    2    1    2    0    0  0.80469454154E+01  0.14631564391E+02  0.27164035868E+02  0.59301939539E+02  0.49999991815E+02 0.  0.
        -12    1    1    2    0    0 -0.80469454154E+01 -0.14631564391E+02 -0.27164035868E+02  0.31886060461E+02  0.00000000000E+00 0.  1.
         11    1    3    3    0    0 -0.54843608055E+01  0.19332044515E+02 -0.13477683255E+01  0.20140075429E+02  0.51100000000E-03 0.  1.
        -11    1    3    3    0    0  0.16367597857E+02 -0.99397393014E+01  0.14768375779E+02  0.24182671490E+02  0.51100000000E-03 0. -1.
         12    1    3    3    0    0 -0.28362916358E+01  0.52392591777E+01  0.13743428414E+02  0.14979192620E+02  0.00000000000E+00 0. -1.
</event>
<event>
 7    1  0.5761011E-013  0.5930196E+02  0.7816164E-02  0.1266605E+00
        -11   -1    0    0    0    0  0.00000000000E+00  0.00000000000E+00  0.45593999997E+02  0.45594000000E+02  0.51100000000E-03 0.  1.
         11   -1    0    0    0    0 -0.00000000000E+00 -0.00000000000E+00 -0.45593999997E+02  0.45594000000E+02  0.51100000000E-03 0. -1.
    9900012    2    1    2    0    0 -0.28208722653E+02  0.27635092633E+01 -0.14606525324E+02  0.59301959180E+02  0.50000027633E+02 0.  0.
        -12    1    1    2    0    0  0.28208722653E+02 -0.27635092633E+01  0.14606525324E+02  0.31886040820E+02  0.00000000000E+00 0.  1.
         11    1    3    3    0    0 -0.40044380456E+02 -0.59604676889E+01 -0.90154853302E+01  0.41477205272E+02  0.51100000000E-03 0. -1.
        -11    1    3    3    0    0  0.14309408556E+01  0.47038049946E+01 -0.44160042916E+01  0.66086660775E+01  0.51100000000E-03 0.  1.
         12    1    3    3    0    0  0.10404716947E+02  0.40201719576E+01 -0.11750357023E+01  0.11216087830E+02  0.00000000000E+00 0. -1.
</event>
<event>
 7    1  0.5761011E-013  0.5930183E+02  0.7816164E-02  0.1266605E+00
        -11   -1    0    0    0    0  0.00000000000E+00  0.00000000000E+00  0.45593999997E+02  0.45594000000E+02  0.51100000000E-03 0.  1.
         11   -1    0    0    0    0 -0.00000000000E+00 -0.00000000000E+00 -0.45593999997E+02  0.45594000000E+02  0.51100000000E-03 0. -1.
    9900012    2    1    2    0    0  0.24482829819E+01  0.67707326706E+01 -0.31062691762E+02  0.59301831683E+02  0.49999795109E+02 0.  0.
        -12    1    1    2    0    0 -0.24482829819E+01 -0.67707326706E+01  0.31062691762E+02  0.31886168317E+02  0.00000000000E+00 0.  1.
         11    1    3    3    0    0 -0.31033802646E+01  0.80349884182E+01 -0.40589256240E+02  0.41493128712E+02  0.51100000000E-03 0. -1.
        -11    1    3    3    0    0  0.23766069765E+00 -0.70559853124E+01  0.56614061221E+01  0.90495818067E+01  0.51100000000E-03 0.  1.
         12    1    3    3    0    0  0.53140025489E+01  0.57917295647E+01  0.38651583559E+01  0.87591211635E+01  0.00000000000E+00 0. -1.
</event>
<event>
 7    1  0.5761011E-013  0.5930196E+02  0.7816164E-02  0.1266605E+00
        -11   -1    0    0    0    0  0.00000000000E+00  0.00000000000E+00  0.45593999997E+02  0.45594000000E+02  0.51100000000E-03 0.  1.
         11   -1    0    0    0    0 -0.00000000000E+00 -0.00000000000E+00 -0.45593999997E+02  0.45594000000E+02  0.51100000000E-03 0. -1.
    9900012    2    1    2    0    0  0.19827036724E+02 -0.21023250376E+02 -0.13477062870E+02  0.59301958144E+02  0.50000025744E+02 0.  0.
        -12    1    1    2    0    0 -0.19827036724E+02  0.21023250376E+02  0.13477062870E+02  0.31886041856E+02  0.00000000000E+00 0.  1.
         11    1    3    3    0    0  0.77103730420E+01  0.94335783307E+01 -0.14878010946E+02  0.19230118631E+02  0.51100000000E-03 0. -1.
        -11    1    3    3    0    0 -0.21624271743E+01 -0.20756475105E+02 -0.53380244589E+01  0.21540702297E+02  0.51100000000E-03 0.  1.
         12    1    3    3    0    0  0.14279090856E+02 -0.97003536018E+01  0.67389725348E+01  0.18531137216E+02  0.00000000000E+00 0. -1.
</event>
<event>
 7    1  0.5761011E-013  0.5930199E+02  0.7816164E-02  0.1266605E+00
        -11   -1    0    0    0    0  0.00000000000E+00  0.00000000000E+00  0.45593999997E+02  0.45594000000E+02  0.51100000000E-03 0. -1.
         11   -1    0    0    0    0 -0.00000000000E+00 -0.00000000000E+00 -0.45593999997E+02  0.45594000000E+02  0.51100000000E-03 0.  1.
    9900012    2    1    2    0    0 -0.18541854415E+01  0.30618713073E+02  0.87048332982E+01  0.59301988700E+02  0.50000081471E+02 0.  0.
        -12    1    1    2    0    0  0.18541854415E+01 -0.30618713073E+02 -0.87048332982E+01  0.31886011300E+02  0.00000000000E+00 0.  1.
         11    1    3    3    0    0 -0.69253165071E+01  0.19891340885E+02  0.29392333901E+01  0.21266512269E+02  0.51100000000E-03 0. -1.
        -11    1    3    3    0    0  0.41076322821E+01 -0.46212396201E+01 -0.12627643075E+02  0.14060080671E+02  0.51100000000E-03 0.  1.
        -12    1    3    3    0    0  0.96349878356E+00  0.15348611808E+02  0.18393242983E+02  0.23975395759E+02  0.00000000000E+00 0.  1.
</event>
<event>
 7    1  0.5761011E-013  0.5930194E+02  0.7816164E-02  0.1266605E+00
        -11   -1    0    0    0    0  0.00000000000E+00  0.00000000000E+00  0.45593999997E+02  0.45594000000E+02  0.51100000000E-03 0.  1.
         11   -1    0    0    0    0 -0.00000000000E+00 -0.00000000000E+00 -0.45593999997E+02  0.45594000000E+02  0.51100000000E-03 0. -1.
    9900012    2    1    2    0    0 -0.30707831509E+02 -0.79594317226E+01 -0.32244706346E+01  0.59301942229E+02  0.49999996719E+02 0.  0.
        -12    1    1    2    0    0  0.30707831509E+02  0.79594317226E+01  0.32244706346E+01  0.31886057771E+02  0.00000000000E+00 0.  1.
         11    1    3    3    0    0 -0.94238171420E+01  0.75129918978E+01  0.20651900800E+01  0.12227771142E+02  0.51100000000E-03 0. -1.
        -11    1    3    3    0    0 -0.15503550156E+02 -0.23822432159E+02 -0.15749843461E+02  0.32495013629E+02  0.51100000000E-03 0.  1.
        -12    1    3    3    0    0 -0.57804642108E+01  0.83500085384E+01  0.10460182747E+02  0.14579157458E+02  0.00000000000E+00 0.  1.
</event>
<event>
 7    1  0.5761011E-013  0.5930194E+02  0.7816164E-02  0.1266605E+00
        -11   -1    0    0    0    0  0.00000000000E+00  0.00000000000E+00  0.45593999997E+02  0.45594000000E+02  0.51100000000E-03 0.  1.
         11   -1    0    0    0    0 -0.00000000000E+00 -0.00000000000E+00 -0.45593999997E+02  0.45594000000E+02  0.51100000000E-03 0. -1.
    9900012    2    1    2    0    0 -0.21588828301E+02 -0.15307980721E+02 -0.17785077925E+02  0.59301940695E+02  0.49999993922E+02 0.  0.
        -12    1    1    2    0    0  0.21588828301E+02  0.15307980721E+02  0.17785077925E+02  0.31886059305E+02  0.00000000000E+00 0.  1.
         11    1    3    3    0    0 -0.24198478337E+02 -0.53384492840E+01 -0.16210769610E+02  0.29611728186E+02  0.51100000000E-03 0. -1.
        -11    1    3    3    0    0  0.13429518501E+02 -0.83035218559E+01 -0.72326647538E+01  0.17366976768E+02  0.51100000000E-03 0.  1.
        -12    1    3    3    0    0 -0.10819868465E+02 -0.16660095810E+01  0.56583564387E+01  0.12323235741E+02  0.00000000000E+00 0.  1.
</event>
<event>
 7    1  0.5761011E-013  0.5930196E+02  0.7816164E-02  0.1266605E+00
        -11   -1    0    0    0    0  0.00000000000E+00  0.00000000000E+00  0.45593999997E+02  0.45594000000E+02  0.51100000000E-03 0.  1.
         11   -1    0    0    0    0 -0.00000000000E+00 -0.00000000000E+00 -0.45593999997E+02  0.45594000000E+02  0.51100000000E-03 0. -1.
    9900012    2    1    2    0    0  0.25929911494E+02  0.17993707336E+02 -0.45371294863E+01  0.59301962966E+02  0.50000034538E+02 0.  0.
        -12    1    1    2    0    0 -0.25929911494E+02 -0.17993707336E+02  0.45371294863E+01  0.31886037034E+02  0.00000000000E+00 0.  1.
         11    1    3    3    0    0  0.25765701083E+02 -0.97020221839E+01 -0.31892350504E+00  0.27533657571E+02  0.51100000000E-03 0. -1.
        -11    1    3    3    0    0 -0.64778883808E+01  0.85159735736E+01  0.11821591469E+01  0.10764866199E+02  0.51100000000E-03 0.  1.
        -12    1    3    3    0    0  0.66420987913E+01  0.19179755947E+02 -0.54003651282E+01  0.21003439196E+02  0.00000000000E+00 0.  1.
</event>
<event>
 7    1  0.5761011E-013  0.5930195E+02  0.7816164E-02  0.1266605E+00
        -11   -1    0    0    0    0  0.00000000000E+00  0.00000000000E+00  0.45593999997E+02  0.45594000000E+02  0.51100000000E-03 0.  1.
         11   -1    0    0    0    0 -0.00000000000E+00 -0.00000000000E+00 -0.45593999997E+02  0.45594000000E+02  0.51100000000E-03 0. -1.
    9900012    2    1    2    0    0  0.10436355543E+02  0.29145565255E+02 -0.76379937913E+01  0.59301945992E+02  0.50000003582E+02 0.  0.
        -12    1    1    2    0    0 -0.10436355543E+02 -0.29145565255E+02  0.76379937913E+01  0.31886054008E+02  0.00000000000E+00 0.  1.
         11    1    3    3    0    0  0.10116224225E+02  0.74504486179E+01 -0.42340567307E+01  0.13257994337E+02  0.51100000000E-03 0. -1.
        -11    1    3    3    0    0 -0.17190389474E+02 -0.37160334941E+00 -0.47601657031E+01  0.17841153469E+02  0.51100000000E-03 0.  1.
        -12    1    3    3    0    0  0.17510520792E+02  0.22066719987E+02  0.13562286424E+01  0.28202798186E+02  0.00000000000E+00 0.  1.
</event>
<event>
 7    1  0.5761011E-013  0.5930197E+02  0.7816164E-02  0.1266605E+00
        -11   -1    0    0    0    0  0.00000000000E+00  0.00000000000E+00  0.45593999997E+02  0.45594000000E+02  0.51100000000E-03 0.  1.
         11   -1    0    0    0    0 -0.00000000000E+00 -0.00000000000E+00 -0.45593999997E+02  0.45594000000E+02  0.51100000000E-03 0. -1.
    9900012    2    1    2    0    0 -0.10805713608E+02 -0.26648496879E+02 -0.13777273082E+02  0.59301967226E+02  0.50000042309E+02 0.  0.
        -12    1    1    2    0    0  0.10805713608E+02  0.26648496879E+02  0.13777273082E+02  0.31886032774E+02  0.00000000000E+00 0.  1.
         11    1    3    3    0    0 -0.20467079161E+02 -0.67707003986E+01  0.97219632090E+01  0.23648684576E+02  0.51100000000E-03 0. -1.
        -11    1    3    3    0    0  0.89314536255E+01 -0.10642391693E+02 -0.22352272692E+02  0.26318348345E+02  0.51100000000E-03 0.  1.
        -12    1    3    3    0    0  0.72991192807E+00 -0.92354047866E+01 -0.11469635984E+01  0.93349343056E+01  0.00000000000E+00 0.  1.
</event>
<event>
 7    1  0.5761011E-013  0.5930195E+02  0.7816164E-02  0.1266605E+00
        -11   -1    0    0    0    0  0.00000000000E+00  0.00000000000E+00  0.45593999997E+02  0.45594000000E+02  0.51100000000E-03 0.  1.
         11   -1    0    0    0    0 -0.00000000000E+00 -0.00000000000E+00 -0.45593999997E+02  0.45594000000E+02  0.51100000000E-03 0. -1.
    9900012    2    1    2    0    0  0.30735946859E+02 -0.79554791977E+01  0.29549867117E+01  0.59301952502E+02  0.50000015456E+02 0.  0.
        -12    1    1    2    0    0 -0.30735946859E+02  0.79554791977E+01 -0.29549867117E+01  0.31886047498E+02  0.00000000000E+00 0.  1.
         11    1    3    3    0    0  0.25431289407E+01 -0.22529010675E+01 -0.17577765513E+02  0.17903097741E+02  0.51100000000E-03 0. -1.
        -11    1    3    3    0    0  0.81846998442E+01  0.34005385566E+01  0.16949762884E+02  0.19127138732E+02  0.51100000000E-03 0.  1.
         12    1    3    3    0    0  0.20008118074E+02 -0.91031166867E+01  0.35829893410E+01  0.22271716029E+02  0.00000000000E+00 0. -1.
</event>
<event>
 7    1  0.5761011E-013  0.5930196E+02  0.7816164E-02  0.1266605E+00
        -11   -1    0    0    0    0  0.00000000000E+00  0.00000000000E+00  0.45593999997E+02  0.45594000000E+02  0.51100000000E-03 0.  1.
         11   -1    0    0    0    0 -0.00000000000E+00 -0.00000000000E+00 -0.45593999997E+02  0.45594000000E+02  0.51100000000E-03 0. -1.
    9900012    2    1    2    0    0 -0.97725510686E+01  0.11726946062E+02 -0.27994564285E+02  0.59301958417E+02  0.50000026243E+02 0.  0.
        -12    1    1    2    0    0  0.97725510686E+01 -0.11726946062E+02  0.27994564285E+02  0.31886041583E+02  0.00000000000E+00 0.  1.
         11    1    3    3    0    0 -0.77540496987E+01  0.77127135077E+01 -0.33837089658E+02  0.35560650629E+02  0.51100000000E-03 0. -1.
        -11    1    3    3    0    0  0.57585992522E+01 -0.44877322732E+01  0.91951369002E+01  0.11741028455E+02  0.51100000000E-03 0.  1.
         12    1    3    3    0    0 -0.77771006221E+01  0.85019648276E+01 -0.33526115270E+01  0.12000279333E+02  0.00000000000E+00 0. -1.
</event>
<event>
 7    1  0.5761011E-013  0.5930194E+02  0.7816164E-02  0.1266605E+00
        -11   -1    0    0    0    0  0.00000000000E+00  0.00000000000E+00  0.45593999997E+02  0.45594000000E+02  0.51100000000E-03 0. -1.
         11   -1    0    0    0    0 -0.00000000000E+00 -0.00000000000E+00 -0.45593999997E+02  0.45594000000E+02  0.51100000000E-03 0.  1.
    9900012    2    1    2    0    0  0.24904239003E+02  0.10067033136E+02  0.17180060849E+02  0.59301940864E+02  0.49999994230E+02 0.  0.
        -12    1    1    2    0    0 -0.24904239003E+02 -0.10067033136E+02 -0.17180060849E+02  0.31886059136E+02  0.00000000000E+00 0.  1.
         11    1    3    3    0    0  0.32487460424E+01  0.22140249689E+01 -0.29297923729E+00  0.39423463199E+01  0.51100000000E-03 0. -1.
        -11    1    3    3    0    0  0.22418746403E+02 -0.11512219278E+02  0.24107164525E+02  0.34875303077E+02  0.51100000000E-03 0.  1.
        -12    1    3    3    0    0 -0.76325344259E+00  0.19365227445E+02 -0.66341244391E+01  0.20484291467E+02  0.00000000000E+00 0.  1.
</event>
<event>
 7    1  0.5761011E-013  0.5930188E+02  0.7816164E-02  0.1266605E+00
        -11   -1    0    0    0    0  0.00000000000E+00  0.00000000000E+00  0.45593999997E+02  0.45594000000E+02  0.51100000000E-03 0. -1.
         11   -1    0    0    0    0 -0.00000000000E+00 -0.00000000000E+00 -0.45593999997E+02  0.45594000000E+02  0.51100000000E-03 0.  1.
    9900012    2    1    2    0    0  0.12712186793E+02 -0.97615787412E+01  0.27565136869E+02  0.59301876322E+02  0.49999876522E+02 0.  0.
        -12    1    1    2    0    0 -0.12712186793E+02  0.97615787412E+01 -0.27565136869E+02  0.31886123678E+02  0.00000000000E+00 0.  1.
         11    1    3    3    0    0 -0.13560361453E+02  0.63370044506E+01  0.21361043268E+02  0.26083235955E+02  0.51100000000E-03 0. -1.
        -11    1    3    3    0    0  0.10937993109E+02 -0.69857460309E+01 -0.27391216729E+01  0.13264355569E+02  0.51100000000E-03 0.  1.
         12    1    3    3    0    0  0.15334555137E+02 -0.91128371609E+01  0.89432152738E+01  0.19954284798E+02  0.00000000000E+00 0. -1.
</event>
<event>
 7    1  0.5761011E-013  0.5930192E+02  0.7816164E-02  0.1266605E+00
        -11   -1    0    0    0    0  0.00000000000E+00  0.00000000000E+00  0.45593999997E+02  0.45594000000E+02  0.51100000000E-03 0.  1.
         11   -1    0    0    0    0 -0.00000000000E+00 -0.00000000000E+00 -0.45593999997E+02  0.45594000000E+02  0.51100000000E-03 0. -1.
    9900012    2    1    2    0    0  0.19280484512E+02 -0.15223018089E+02 -0.20328421902E+02  0.59301919969E+02  0.49999956122E+02 0.  0.
        -12    1    1    2    0    0 -0.19280484512E+02  0.15223018089E+02  0.20328421902E+02  0.31886080031E+02  0.00000000000E+00 0.  1.
         11    1    3    3    0    0  0.26757701472E+02  0.25810984602E+01 -0.22847349424E+02  0.35279427905E+02  0.51100000000E-03 0. -1.
        -11    1    3    3    0    0 -0.84273082093E+01 -0.30909183748E+01  0.23454445066E+01  0.92776295598E+01  0.51100000000E-03 0.  1.
        -12    1    3    3    0    0  0.95009124860E+00 -0.14713198174E+02  0.17348301615E+00  0.14744862504E+02  0.00000000000E+00 0.  1.
</event>
<event>
 7    1  0.5761011E-013  0.5930194E+02  0.7816164E-02  0.1266605E+00
        -11   -1    0    0    0    0  0.00000000000E+00  0.00000000000E+00  0.45593999997E+02  0.45594000000E+02  0.51100000000E-03 0. -1.
         11   -1    0    0    0    0 -0.00000000000E+00 -0.00000000000E+00 -0.45593999997E+02  0.45594000000E+02  0.51100000000E-03 0.  1.
    9900012    2    1    2    0    0 -0.14027497819E+02 -0.23780954970E+02  0.15950436008E+02  0.59301938419E+02  0.49999989770E+02 0.  0.
        -12    1    1    2    0    0  0.14027497819E+02  0.23780954970E+02 -0.15950436008E+02  0.31886061581E+02  0.00000000000E+00 0.  1.
         11    1    3    3    0    0 -0.13593545864E+02 -0.21827985811E+01  0.11548080420E+02  0.17969620487E+02  0.51100000000E-03 0. -1.
        -11    1    3    3    0    0  0.45423592825E+01 -0.27150543268E+02  0.12579724071E+02  0.30266061613E+02  0.51100000000E-03 0.  1.
        -12    1    3    3    0    0 -0.49763112371E+01  0.55523868795E+01 -0.81773684834E+01  0.11066256318E+02  0.00000000000E+00 0.  1.
</event>
<event>
 7    1  0.5761011E-013  0.5930196E+02  0.7816164E-02  0.1266605E+00
        -11   -1    0    0    0    0  0.00000000000E+00  0.00000000000E+00  0.45593999997E+02  0.45594000000E+02  0.51100000000E-03 0. -1.
         11   -1    0    0    0    0 -0.00000000000E+00 -0.00000000000E+00 -0.45593999997E+02  0.45594000000E+02  0.51100000000E-03 0.  1.
    9900012    2    1    2    0    0 -0.26656117512E+02  0.12276655343E+02  0.12468158146E+02  0.59301955486E+02  0.50000020897E+02 0.  0.
        -12    1    1    2    0    0  0.26656117512E+02 -0.12276655343E+02 -0.12468158146E+02  0.31886044514E+02  0.00000000000E+00 0.  1.
         11    1    3    3    0    0 -0.98123396403E+01 -0.49539644661E+01  0.14024889074E+02  0.17819126998E+02  0.51100000000E-03 0. -1.
        -11    1    3    3    0    0 -0.51287034287E+01  0.25508653788E+02 -0.55253279266E+01  0.26599328298E+02  0.51100000000E-03 0.  1.
        -12    1    3    3    0    0 -0.11715074443E+02 -0.82780339797E+01  0.39685969983E+01  0.14883500190E+02  0.00000000000E+00 0.  1.
</event>
<event>
 7    1  0.5761011E-013  0.5930198E+02  0.7816164E-02  0.1266605E+00
        -11   -1    0    0    0    0  0.00000000000E+00  0.00000000000E+00  0.45593999997E+02  0.45594000000E+02  0.51100000000E-03 0.  1.
         11   -1    0    0    0    0 -0.00000000000E+00 -0.00000000000E+00 -0.45593999997E+02  0.45594000000E+02  0.51100000000E-03 0. -1.
    9900012    2    1    2    0    0 -0.30060288840E+02  0.72722620401E+01  0.77596261717E+01  0.59301975496E+02  0.50000057390E+02 0.  0.
        -12    1    1    2    0    0  0.30060288840E+02 -0.72722620401E+01 -0.77596261717E+01  0.31886024504E+02  0.00000000000E+00 0.  1.
         11    1    3    3    0    0 -0.21834121103E+02 -0.12138551871E+02 -0.35040181626E+01  0.25226007005E+02  0.51100000000E-03 0. -1.
        -11    1    3    3    0    0  0.41738065159E+01  0.17494609994E+02  0.11810772675E+02  0.21516886185E+02  0.51100000000E-03 0.  1.
        -12    1    3    3    0    0 -0.12399974253E+02  0.19162039177E+01 -0.54712834076E+00  0.12559082306E+02  0.00000000000E+00 0.  1.
</event>
<event>
 7    1  0.5761011E-013  0.5930193E+02  0.7816164E-02  0.1266605E+00
        -11   -1    0    0    0    0  0.00000000000E+00  0.00000000000E+00  0.45593999997E+02  0.45594000000E+02  0.51100000000E-03 0.  1.
         11   -1    0    0    0    0 -0.00000000000E+00 -0.00000000000E+00 -0.45593999997E+02  0.45594000000E+02  0.51100000000E-03 0. -1.
    9900012    2    1    2    0    0  0.21364610658E+02  0.21201100620E+02 -0.10525599278E+02  0.59301929432E+02  0.49999973381E+02 0.  0.
        -12    1    1    2    0    0 -0.21364610658E+02 -0.21201100620E+02  0.10525599278E+02  0.31886070568E+02  0.00000000000E+00 0.  1.
         11    1    3    3    0    0  0.12621541626E+02 -0.13300435828E+02  0.12677873836E+01  0.18379667879E+02  0.51100000000E-03 0.  1.
        -11    1    3    3    0    0 -0.59277016941E+00  0.27134720558E+02 -0.65210228935E+01  0.27913584078E+02  0.51100000000E-03 0. -1.
        -12    1    3    3    0    0  0.93358392015E+01  0.73668158901E+01 -0.52723637676E+01  0.13008677475E+02  0.00000000000E+00 0.  1.
</event>
<event>
 7    1  0.5761011E-013  0.5930195E+02  0.7816164E-02  0.1266605E+00
        -11   -1    0    0    0    0  0.00000000000E+00  0.00000000000E+00  0.45593999997E+02  0.45594000000E+02  0.51100000000E-03 0. -1.
         11   -1    0    0    0    0 -0.00000000000E+00 -0.00000000000E+00 -0.45593999997E+02  0.45594000000E+02  0.51100000000E-03 0.  1.
    9900012    2    1    2    0    0  0.43628309402E+01 -0.22796018742E+02 -0.21863844456E+02  0.59301945702E+02  0.50000003053E+02 0.  0.
        -12    1    1    2    0    0 -0.43628309402E+01  0.22796018742E+02  0.21863844456E+02  0.31886054298E+02  0.00000000000E+00 0.  1.
         11    1    3    3    0    0 -0.35821316718E+01  0.17233413266E+01  0.82674580971E+01  0.91734637019E+01  0.51100000000E-03 0. -1.
        -11    1    3    3    0    0 -0.56671896106E+01 -0.23855183735E+02 -0.26332973808E+02  0.35980721768E+02  0.51100000000E-03 0.  1.
        -12    1    3    3    0    0  0.13612152223E+02 -0.66417633394E+00 -0.37983287450E+01  0.14147760232E+02  0.00000000000E+00 0.  1.
</event>
<event>
 7    1  0.5761011E-013  0.5930191E+02  0.7816164E-02  0.1266605E+00
        -11   -1    0    0    0    0  0.00000000000E+00  0.00000000000E+00  0.45593999997E+02  0.45594000000E+02  0.51100000000E-03 0.  1.
         11   -1    0    0    0    0 -0.00000000000E+00 -0.00000000000E+00 -0.45593999997E+02  0.45594000000E+02  0.51100000000E-03 0. -1.
    9900012    2    1    2    0    0  0.20441744202E+02 -0.18783296117E+02 -0.15685849274E+02  0.59301906064E+02  0.49999930763E+02 0.  0.
        -12    1    1    2    0    0 -0.20441744202E+02  0.18783296117E+02  0.15685849274E+02  0.31886093936E+02  0.00000000000E+00 0.  1.
         11    1    3    3    0    0 -0.13859477419E+01 -0.20589690097E+01 -0.85800527102E+01  0.89318256419E+01  0.51100000000E-03 0. -1.
        -11    1    3    3    0    0  0.67743664087E+01 -0.78904736990E+01  0.17407783479E+02  0.20277636483E+02  0.51100000000E-03 0.  1.
        -12    1    3    3    0    0  0.15053325535E+02 -0.88338534087E+01 -0.24513580042E+02  0.30092443939E+02  0.00000000000E+00 0.  1.
</event>
<event>
 7    1  0.5761011E-013  0.5930194E+02  0.7816164E-02  0.1266605E+00
        -11   -1    0    0    0    0  0.00000000000E+00  0.00000000000E+00  0.45593999997E+02  0.45594000000E+02  0.51100000000E-03 0.  1.
         11   -1    0    0    0    0 -0.00000000000E+00 -0.00000000000E+00 -0.45593999997E+02  0.45594000000E+02  0.51100000000E-03 0. -1.
    9900012    2    1    2    0    0 -0.85624621566E+01  0.78963090496E+01 -0.29682540348E+02  0.59301942604E+02  0.49999997403E+02 0.  0.
        -12    1    1    2    0    0  0.85624621566E+01 -0.78963090496E+01  0.29682540348E+02  0.31886057396E+02  0.00000000000E+00 0.  1.
         11    1    3    3    0    0  0.10236441385E+02  0.24726372884E+00 -0.32446425985E+02  0.34023762740E+02  0.51100000000E-03 0. -1.
        -11    1    3    3    0    0 -0.96015848353E+01  0.69162516865E+01 -0.53547118081E+01  0.12988375863E+02  0.51100000000E-03 0.  1.
         12    1    3    3    0    0 -0.91973187064E+01  0.73279363429E+00  0.81185974451E+01  0.12289804001E+02  0.00000000000E+00 0. -1.
</event>
<event>
 7    1  0.5761011E-013  0.5930191E+02  0.7816164E-02  0.1266605E+00
        -11   -1    0    0    0    0  0.00000000000E+00  0.00000000000E+00  0.45593999997E+02  0.45594000000E+02  0.51100000000E-03 0.  1.
         11   -1    0    0    0    0 -0.00000000000E+00 -0.00000000000E+00 -0.45593999997E+02  0.45594000000E+02  0.51100000000E-03 0. -1.
    9900012    2    1    2    0    0  0.30992054619E+01 -0.11223394894E+01 -0.31715266579E+02  0.59301908132E+02  0.49999934535E+02 0.  0.
        -12    1    1    2    0    0 -0.30992054619E+01  0.11223394894E+01  0.31715266579E+02  0.31886091868E+02  0.00000000000E+00 0.  1.
         11    1    3    3    0    0  0.35277944537E+01 -0.55631139205E+01 -0.76434498353E+01  0.10090386308E+02  0.51100000000E-03 0. -1.
        -11    1    3    3    0    0 -0.44718650060E+01  0.17344832277E+02  0.37292474962E+01  0.18296121734E+02  0.51100000000E-03 0.  1.
        -12    1    3    3    0    0  0.40432760142E+01 -0.12904057846E+02 -0.27801064240E+02  0.30915400090E+02  0.00000000000E+00 0.  1.
</event>
<event>
 7    1  0.5761011E-013  0.5930166E+02  0.7816164E-02  0.1266606E+00
        -11   -1    0    0    0    0  0.00000000000E+00  0.00000000000E+00  0.45593999997E+02  0.45594000000E+02  0.51100000000E-03 0. -1.
         11   -1    0    0    0    0 -0.00000000000E+00 -0.00000000000E+00 -0.45593999997E+02  0.45594000000E+02  0.51100000000E-03 0.  1.
    9900012    2    1    2    0    0 -0.16686919962E+02  0.11241094506E+02  0.24737083926E+02  0.59301657709E+02  0.49999477821E+02 0.  0.
        -12    1    1    2    0    0  0.16686919962E+02 -0.11241094506E+02 -0.24737083926E+02  0.31886342291E+02  0.00000000000E+00 0.  1.
         11    1    3    3    0    0  0.10307018258E+02  0.23386022572E+01  0.18488661471E+02  0.21296344502E+02  0.51100000000E-03 0. -1.
        -11    1    3    3    0    0 -0.18757813510E+02 -0.65972830933E+01  0.43156607159E+01  0.20347103960E+02  0.51100000000E-03 0.  1.
        -12    1    3    3    0    0 -0.82361247098E+01  0.15499775342E+02  0.19327617397E+01  0.17658209247E+02  0.00000000000E+00 0.  1.
</event>
<event>
 7    1  0.5761011E-013  0.5930194E+02  0.7816164E-02  0.1266605E+00
        -11   -1    0    0    0    0  0.00000000000E+00  0.00000000000E+00  0.45593999997E+02  0.45594000000E+02  0.51100000000E-03 0. -1.
         11   -1    0    0    0    0 -0.00000000000E+00 -0.00000000000E+00 -0.45593999997E+02  0.45594000000E+02  0.51100000000E-03 0.  1.
    9900012    2    1    2    0    0  0.30736428007E-01  0.21325968242E+02  0.23704909131E+02  0.59301943752E+02  0.49999999497E+02 0.  0.
        -12    1    1    2    0    0 -0.30736428007E-01 -0.21325968242E+02 -0.23704909131E+02  0.31886056248E+02  0.00000000000E+00 0.  1.
         11    1    3    3    0    0  0.17446659851E+02  0.19572548775E+02  0.14355772085E+02  0.29892453862E+02  0.51100000000E-03 0. -1.
        -11    1    3    3    0    0 -0.21061235830E+02  0.53800936665E+01  0.42137070675E+01  0.22142185756E+02  0.51100000000E-03 0.  1.
        -12    1    3    3    0    0  0.36453124075E+01 -0.36266741997E+01  0.51354299785E+01  0.72673041331E+01  0.00000000000E+00 0.  1.
</event>
<event>
 7    1  0.5761011E-013  0.5930194E+02  0.7816164E-02  0.1266605E+00
        -11   -1    0    0    0    0  0.00000000000E+00  0.00000000000E+00  0.45593999997E+02  0.45594000000E+02  0.51100000000E-03 0.  1.
         11   -1    0    0    0    0 -0.00000000000E+00 -0.00000000000E+00 -0.45593999997E+02  0.45594000000E+02  0.51100000000E-03 0. -1.
    9900012    2    1    2    0    0 -0.14502561247E+02  0.26717941625E+02 -0.96201997890E+01  0.59301938290E+02  0.49999989535E+02 0.  0.
        -12    1    1    2    0    0  0.14502561247E+02 -0.26717941625E+02  0.96201997890E+01  0.31886061710E+02  0.00000000000E+00 0.  1.
         11    1    3    3    0    0 -0.21606054412E+02  0.75337725829E+01 -0.12617677669E+02  0.26130157033E+02  0.51100000000E-03 0. -1.
        -11    1    3    3    0    0  0.59022072408E+01 -0.46963331928E+01  0.51976283085E+01  0.91600729291E+01  0.51100000000E-03 0.  1.
         12    1    3    3    0    0  0.12012859237E+01  0.23880502235E+02 -0.22001504288E+01  0.24011708327E+02  0.00000000000E+00 0. -1.
</event>
<event>
 7    1  0.5761011E-013  0.5930195E+02  0.7816164E-02  0.1266605E+00
        -11   -1    0    0    0    0  0.00000000000E+00  0.00000000000E+00  0.45593999997E+02  0.45594000000E+02  0.51100000000E-03 0. -1.
         11   -1    0    0    0    0 -0.00000000000E+00 -0.00000000000E+00 -0.45593999997E+02  0.45594000000E+02  0.51100000000E-03 0.  1.
    9900012    2    1    2    0    0 -0.30527304985E+02 -0.39206450178E+01 -0.83325951583E+01  0.59301953694E+02  0.50000017628E+02 0.  0.
        -12    1    1    2    0    0  0.30527304985E+02  0.39206450178E+01  0.83325951583E+01  0.31886046306E+02  0.00000000000E+00 0.  1.
         11    1    3    3    0    0 -0.20655281048E+02 -0.18328355871E+02  0.24836660122E+01  0.27726122362E+02  0.51100000000E-03 0. -1.
        -11    1    3    3    0    0  0.58958344770E+00  0.18288520024E+02 -0.85174366259E+01  0.20183267829E+02  0.51100000000E-03 0.  1.
        -12    1    3    3    0    0 -0.10461607385E+02 -0.38808091704E+01 -0.22988245447E+01  0.11392563503E+02  0.00000000000E+00 0.  1.
</event>
<event>
 7    1  0.5761011E-013  0.5930192E+02  0.7816164E-02  0.1266605E+00
        -11   -1    0    0    0    0  0.00000000000E+00  0.00000000000E+00  0.45593999997E+02  0.45594000000E+02  0.51100000000E-03 0.  1.
         11   -1    0    0    0    0 -0.00000000000E+00 -0.00000000000E+00 -0.45593999997E+02  0.45594000000E+02  0.51100000000E-03 0. -1.
    9900012    2    1    2    0    0  0.12383662953E+02  0.25365971767E+02 -0.14830184314E+02  0.59301921555E+02  0.49999959015E+02 0.  0.
        -12    1    1    2    0    0 -0.12383662953E+02 -0.25365971767E+02  0.14830184314E+02  0.31886078445E+02  0.00000000000E+00 0.  1.
         11    1    3    3    0    0  0.73435255792E+01  0.36564299913E+02 -0.76358423574E+01  0.38068116381E+02  0.51100000000E-03 0. -1.
        -11    1    3    3    0    0 -0.54960615806E+01 -0.52120271195E+01 -0.45320631902E+01  0.88267500595E+01  0.51100000000E-03 0.  1.
         12    1    3    3    0    0  0.10536198954E+02 -0.59863010263E+01 -0.26622787668E+01  0.12407055114E+02  0.00000000000E+00 0. -1.
</event>
<event>
 7    1  0.5761011E-013  0.5930188E+02  0.7816164E-02  0.1266605E+00
        -11   -1    0    0    0    0  0.00000000000E+00  0.00000000000E+00  0.45593999997E+02  0.45594000000E+02  0.51100000000E-03 0. -1.
         11   -1    0    0    0    0 -0.00000000000E+00 -0.00000000000E+00 -0.45593999997E+02  0.45594000000E+02  0.51100000000E-03 0.  1.
    9900012    2    1    2    0    0  0.88081634211E+00 -0.27585121278E+02  0.15969021643E+02  0.59301883812E+02  0.49999890180E+02 0.  0.
        -12    1    1    2    0    0 -0.88081634211E+00  0.27585121278E+02 -0.15969021643E+02  0.31886116188E+02  0.00000000000E+00 0.  1.
         11    1    3    3    0    0  0.21100424246E+02 -0.28790929753E+02  0.10906173730E+02  0.37324123098E+02  0.51100000000E-03 0. -1.
        -11    1    3    3    0    0 -0.13429989738E+02  0.31533174780E+01  0.10051137628E+01  0.13831785474E+02  0.51100000000E-03 0.  1.
         12    1    3    3    0    0 -0.67896181656E+01 -0.19475090027E+01  0.40577341508E+01  0.81459752387E+01  0.00000000000E+00 0. -1.
</event>
<event>
 7    1  0.5761011E-013  0.5930194E+02  0.7816164E-02  0.1266605E+00
        -11   -1    0    0    0    0  0.00000000000E+00  0.00000000000E+00  0.45593999997E+02  0.45594000000E+02  0.51100000000E-03 0. -1.
         11   -1    0    0    0    0 -0.00000000000E+00 -0.00000000000E+00 -0.45593999997E+02  0.45594000000E+02  0.51100000000E-03 0.  1.
    9900012    2    1    2    0    0  0.30656692970E+02  0.71901269007E+01  0.50189886233E+01  0.59301937285E+02  0.49999987702E+02 0.  0.
        -12    1    1    2    0    0 -0.30656692970E+02 -0.71901269007E+01 -0.50189886233E+01  0.31886062715E+02  0.00000000000E+00 0.  1.
         11    1    3    3    0    0  0.21444640134E+02  0.14629097374E+02  0.21347777456E+02  0.33609681389E+02  0.51100000000E-03 0. -1.
        -11    1    3    3    0    0  0.12308166629E+02 -0.83424041494E+01 -0.82746623531E+01  0.17016365948E+02  0.51100000000E-03 0.  1.
         12    1    3    3    0    0 -0.30961137937E+01  0.90343367589E+00 -0.80541264798E+01  0.86758899476E+01  0.00000000000E+00 0. -1.
</event>
<event>
 7    1  0.5761011E-013  0.5930197E+02  0.7816164E-02  0.1266605E+00
        -11   -1    0    0    0    0  0.00000000000E+00  0.00000000000E+00  0.45593999997E+02  0.45594000000E+02  0.51100000000E-03 0. -1.
         11   -1    0    0    0    0 -0.00000000000E+00 -0.00000000000E+00 -0.45593999997E+02  0.45594000000E+02  0.51100000000E-03 0.  1.
    9900012    2    1    2    0    0  0.24527109272E+02  0.51773801445E+01  0.19706207299E+02  0.59301969195E+02  0.50000045898E+02 0.  0.
        -12    1    1    2    0    0 -0.24527109272E+02 -0.51773801445E+01 -0.19706207299E+02  0.31886030805E+02  0.00000000000E+00 0.  1.
         11    1    3    3    0    0  0.13325409624E+02 -0.12924641483E+02 -0.41121134573E+01  0.19013741780E+02  0.51100000000E-03 0. -1.
        -11    1    3    3    0    0 -0.17445414089E+01  0.12386417783E+02  0.22916046357E+02  0.26107699078E+02  0.51100000000E-03 0.  1.
        -12    1    3    3    0    0  0.12946241057E+02  0.57156038454E+01  0.90227439840E+00  0.14180528337E+02  0.00000000000E+00 0.  1.
</event>
<event>
 7    1  0.5761011E-013  0.5930196E+02  0.7816164E-02  0.1266605E+00
        -11   -1    0    0    0    0  0.00000000000E+00  0.00000000000E+00  0.45593999997E+02  0.45594000000E+02  0.51100000000E-03 0. -1.
         11   -1    0    0    0    0 -0.00000000000E+00 -0.00000000000E+00 -0.45593999997E+02  0.45594000000E+02  0.51100000000E-03 0.  1.
    9900012    2    1    2    0    0  0.26110848943E+02  0.15748361332E+02 -0.93237459567E+01  0.59301959860E+02  0.50000028874E+02 0.  0.
        -12    1    1    2    0    0 -0.26110848943E+02 -0.15748361332E+02  0.93237459567E+01  0.31886040140E+02  0.00000000000E+00 0.  1.
         11    1    3    3    0    0 -0.41199613150E+01 -0.10677751868E+02 -0.84829633232E+01  0.14246021662E+02  0.51100000000E-03 0. -1.
        -11    1    3    3    0    0  0.26260666955E+02  0.29615716246E+02  0.11231865569E+01  0.39597661875E+02  0.51100000000E-03 0.  1.
         12    1    3    3    0    0  0.39701433025E+01 -0.31896030456E+01 -0.19639691904E+01  0.54582763224E+01  0.00000000000E+00 0. -1.
</event>
<event>
 7    1  0.5761011E-013  0.5930192E+02  0.7816164E-02  0.1266605E+00
        -11   -1    0    0    0    0  0.00000000000E+00  0.00000000000E+00  0.45593999997E+02  0.45594000000E+02  0.51100000000E-03 0.  1.
         11   -1    0    0    0    0 -0.00000000000E+00 -0.00000000000E+00 -0.45593999997E+02  0.45594000000E+02  0.51100000000E-03 0. -1.
    9900012    2    1    2    0    0 -0.25490519359E+02 -0.80456979899E+01 -0.17384534287E+02  0.59301923639E+02  0.49999962815E+02 0.  0.
        -12    1    1    2    0    0  0.25490519359E+02  0.80456979899E+01  0.17384534287E+02  0.31886076361E+02  0.00000000000E+00 0.  1.
         11    1    3    3    0    0 -0.24616697151E+02  0.13960202097E+01 -0.28392304483E+02  0.37603904122E+02  0.51100000000E-03 0. -1.
        -11    1    3    3    0    0  0.73667920577E+01 -0.25373618608E+01  0.60220401366E+01  0.98474767378E+01  0.51100000000E-03 0.  1.
        -12    1    3    3    0    0 -0.82406142657E+01 -0.69043563388E+01  0.49857300599E+01  0.11850542779E+02  0.00000000000E+00 0.  1.
</event>
<event>
 7    1  0.5761011E-013  0.5930193E+02  0.7816164E-02  0.1266605E+00
        -11   -1    0    0    0    0  0.00000000000E+00  0.00000000000E+00  0.45593999997E+02  0.45594000000E+02  0.51100000000E-03 0. -1.
         11   -1    0    0    0    0 -0.00000000000E+00 -0.00000000000E+00 -0.45593999997E+02  0.45594000000E+02  0.51100000000E-03 0.  1.
    9900012    2    1    2    0    0  0.17209614212E+02 -0.47276423479E+01  0.26423476029E+02  0.59301929234E+02  0.49999973019E+02 0.  0.
        -12    1    1    2    0    0 -0.17209614212E+02  0.47276423479E+01 -0.26423476029E+02  0.31886070766E+02  0.00000000000E+00 0.  1.
         11    1    3    3    0    0 -0.41642741801E+01  0.17181179427E+02  0.90886833021E+01  0.19878085179E+02  0.51100000000E-03 0. -1.
        -11    1    3    3    0    0  0.72793764343E+00 -0.75689584355E+01 -0.18217854944E+01  0.78190746038E+01  0.51100000000E-03 0.  1.
         12    1    3    3    0    0  0.20645950748E+02 -0.14339863340E+02  0.19156578221E+02  0.31604769451E+02  0.00000000000E+00 0. -1.
</event>
<event>
 7    1  0.5761011E-013  0.5930196E+02  0.7816164E-02  0.1266605E+00
        -11   -1    0    0    0    0  0.00000000000E+00  0.00000000000E+00  0.45593999997E+02  0.45594000000E+02  0.51100000000E-03 0.  1.
         11   -1    0    0    0    0 -0.00000000000E+00 -0.00000000000E+00 -0.45593999997E+02  0.45594000000E+02  0.51100000000E-03 0. -1.
    9900012    2    1    2    0    0  0.30819879643E+02 -0.39031266239E+01 -0.71847152777E+01  0.59301960543E+02  0.50000030120E+02 0.  0.
        -12    1    1    2    0    0 -0.30819879643E+02  0.39031266239E+01  0.71847152777E+01  0.31886039457E+02  0.00000000000E+00 0.  1.
         11    1    3    3    0    0  0.30295183374E+00 -0.41142921465E+01  0.11785315490E+02  0.12486506362E+02  0.51100000000E-03 0. -1.
        -11    1    3    3    0    0  0.14882452578E+02 -0.14517299261E+01 -0.25683630589E+02  0.29719417810E+02  0.51100000000E-03 0.  1.
        -12    1    3    3    0    0  0.15634475231E+02  0.16628954487E+01  0.67135998213E+01  0.17096036371E+02  0.00000000000E+00 0.  1.
</event>
<event>
 7    1  0.5761011E-013  0.5930195E+02  0.7816164E-02  0.1266605E+00
        -11   -1    0    0    0    0  0.00000000000E+00  0.00000000000E+00  0.45593999997E+02  0.45594000000E+02  0.51100000000E-03 0. -1.
         11   -1    0    0    0    0 -0.00000000000E+00 -0.00000000000E+00 -0.45593999997E+02  0.45594000000E+02  0.51100000000E-03 0.  1.
    9900012    2    1    2    0    0 -0.13492165322E+00  0.21374375305E+02  0.23660895781E+02  0.59301951127E+02  0.50000012948E+02 0.  0.
        -12    1    1    2    0    0  0.13492165322E+00 -0.21374375305E+02 -0.23660895781E+02  0.31886048873E+02  0.00000000000E+00 0.  1.
         11    1    3    3    0    0  0.14827005566E+02  0.70216801971E+01  0.80436338055E+01  0.18271402024E+02  0.51100000000E-03 0. -1.
        -11    1    3    3    0    0 -0.12399163764E+02  0.13064169159E+02 -0.61824226039E+01  0.19042954796E+02  0.51100000000E-03 0.  1.
        -12    1    3    3    0    0 -0.25627634555E+01  0.12885259485E+01  0.21799684580E+02  0.21987594307E+02  0.00000000000E+00 0.  1.
</event>
<event>
 7    1  0.5761011E-013  0.5930183E+02  0.7816164E-02  0.1266605E+00
        -11   -1    0    0    0    0  0.00000000000E+00  0.00000000000E+00  0.45593999997E+02  0.45594000000E+02  0.51100000000E-03 0. -1.
         11   -1    0    0    0    0 -0.00000000000E+00 -0.00000000000E+00 -0.45593999997E+02  0.45594000000E+02  0.51100000000E-03 0.  1.
    9900012    2    1    2    0    0 -0.45938430148E+01  0.31376196226E+02  0.33404655120E+01  0.59301830692E+02  0.49999793303E+02 0.  0.
        -12    1    1    2    0    0  0.45938430148E+01 -0.31376196226E+02 -0.33404655120E+01  0.31886169308E+02  0.00000000000E+00 0.  1.
         11    1    3    3    0    0  0.17776538880E+01  0.15417038255E+01  0.11420219071E+02  0.11660116120E+02  0.51100000000E-03 0. -1.
        -11    1    3    3    0    0  0.97801902552E+01  0.13291037201E+02 -0.16211681506E+02  0.23132712958E+02  0.51100000000E-03 0.  1.
        -12    1    3    3    0    0 -0.16151687158E+02  0.16543455200E+02  0.81319279466E+01  0.24509001614E+02  0.00000000000E+00 0.  1.
</event>
<event>
 7    1  0.5761011E-013  0.5930195E+02  0.7816164E-02  0.1266605E+00
        -11   -1    0    0    0    0  0.00000000000E+00  0.00000000000E+00  0.45593999997E+02  0.45594000000E+02  0.51100000000E-03 0. -1.
         11   -1    0    0    0    0 -0.00000000000E+00 -0.00000000000E+00 -0.45593999997E+02  0.45594000000E+02  0.51100000000E-03 0.  1.
    9900012    2    1    2    0    0 -0.23875977127E+01 -0.30393334890E+02  0.93415688157E+01  0.59301947618E+02  0.50000006547E+02 0.  0.
        -12    1    1    2    0    0  0.23875977127E+01  0.30393334890E+02 -0.93415688157E+01  0.31886052382E+02  0.00000000000E+00 0.  1.
         11    1    3    3    0    0  0.13026542397E+02 -0.13725179105E+02  0.23738853894E+02  0.30357940193E+02  0.51100000000E-03 0. -1.
        -11    1    3    3    0    0 -0.34284417967E+01 -0.11526262802E+02 -0.60735778926E+01  0.13472093231E+02  0.51100000000E-03 0.  1.
         12    1    3    3    0    0 -0.11985698313E+02 -0.51418929829E+01 -0.83237071859E+01  0.15471914194E+02  0.00000000000E+00 0. -1.
</event>
<event>
 7    1  0.5761011E-013  0.5930196E+02  0.7816164E-02  0.1266605E+00
        -11   -1    0    0    0    0  0.00000000000E+00  0.00000000000E+00  0.45593999997E+02  0.45594000000E+02  0.51100000000E-03 0.  1.
         11   -1    0    0    0    0 -0.00000000000E+00 -0.00000000000E+00 -0.45593999997E+02  0.45594000000E+02  0.51100000000E-03 0. -1.
    9900012    2    1    2    0    0  0.22540725155E+01  0.18403047682E+02  0.25941603021E+02  0.59301956435E+02  0.50000022628E+02 0.  0.
        -12    1    1    2    0    0 -0.22540725155E+01 -0.18403047682E+02 -0.25941603021E+02  0.31886043565E+02  0.00000000000E+00 0.  1.
         11    1    3    3    0    0  0.16015614885E+02  0.14169537728E+02 -0.41906590147E+00  0.21388112026E+02  0.51100000000E-03 0. -1.
        -11    1    3    3    0    0 -0.12523626651E+02 -0.70704831978E+01  0.20714986773E+02  0.25217922881E+02  0.51100000000E-03 0.  1.
        -12    1    3    3    0    0 -0.12379157187E+01  0.11303993152E+02  0.56456821497E+01  0.12695921528E+02  0.00000000000E+00 0.  1.
</event>
<event>
 7    1  0.5761011E-013  0.5930193E+02  0.7816164E-02  0.1266605E+00
        -11   -1    0    0    0    0  0.00000000000E+00  0.00000000000E+00  0.45593999997E+02  0.45594000000E+02  0.51100000000E-03 0. -1.
         11   -1    0    0    0    0 -0.00000000000E+00 -0.00000000000E+00 -0.45593999997E+02  0.45594000000E+02  0.51100000000E-03 0.  1.
    9900012    2    1    2    0    0 -0.14118809762E+02  0.19564632673E+02  0.20847197281E+02  0.59301932899E+02  0.49999979703E+02 0.  0.
        -12    1    1    2    0    0  0.14118809762E+02 -0.19564632673E+02 -0.20847197281E+02  0.31886067101E+02  0.00000000000E+00 0.  1.
         11    1    3    3    0    0 -0.98741179581E+01  0.32498362151E+02  0.12471350454E+02  0.36182541790E+02  0.51100000000E-03 0. -1.
        -11    1    3    3    0    0 -0.92624968556E+01 -0.76633482089E+01  0.10030411988E+02  0.15656625393E+02  0.51100000000E-03 0.  1.
        -12    1    3    3    0    0  0.50178050513E+01 -0.52703812694E+01 -0.16545651622E+01  0.74627657161E+01  0.00000000000E+00 0.  1.
</event>
<event>
 7    1  0.5761011E-013  0.5930193E+02  0.7816164E-02  0.1266605E+00
        -11   -1    0    0    0    0  0.00000000000E+00  0.00000000000E+00  0.45593999997E+02  0.45594000000E+02  0.51100000000E-03 0. -1.
         11   -1    0    0    0    0 -0.00000000000E+00 -0.00000000000E+00 -0.45593999997E+02  0.45594000000E+02  0.51100000000E-03 0.  1.
    9900012    2    1    2    0    0  0.29802808803E+02 -0.10930542853E+02  0.30061749627E+01  0.59301933019E+02  0.49999979922E+02 0.  0.
        -12    1    1    2    0    0 -0.29802808803E+02  0.10930542853E+02 -0.30061749627E+01  0.31886066981E+02  0.00000000000E+00 0.  1.
         11    1    3    3    0    0  0.27173240423E+02 -0.23205886840E+02  0.10934672668E+02  0.37369308874E+02  0.51100000000E-03 0. -1.
        -11    1    3    3    0    0  0.67709238044E+01  0.14288466810E+02 -0.56113067711E+01  0.16777736942E+02  0.51100000000E-03 0.  1.
        -12    1    3    3    0    0 -0.41413554239E+01 -0.20131228228E+01 -0.23171909340E+01  0.51548872026E+01  0.00000000000E+00 0.  1.
</event>
<event>
 7    1  0.5761011E-013  0.5930207E+02  0.7816164E-02  0.1266604E+00
        -11   -1    0    0    0    0  0.00000000000E+00  0.00000000000E+00  0.45593999997E+02  0.45594000000E+02  0.51100000000E-03 0.  1.
         11   -1    0    0    0    0 -0.00000000000E+00 -0.00000000000E+00 -0.45593999997E+02  0.45594000000E+02  0.51100000000E-03 0. -1.
    9900012    2    1    2    0    0  0.20029791066E+02  0.22618853217E+02 -0.10193487291E+02  0.59302074670E+02  0.50000238260E+02 0.  0.
        -12    1    1    2    0    0 -0.20029791066E+02 -0.22618853217E+02  0.10193487291E+02  0.31885925330E+02  0.00000000000E+00 0.  1.
         11    1    3    3    0    0  0.36799265901E+01  0.21889814350E+01 -0.42236649585E+01  0.60143865334E+01  0.51100000000E-03 0. -1.
        -11    1    3    3    0    0  0.19695411815E+02  0.49920570417E+01  0.16255637772E+02  0.26020677157E+02  0.51100000000E-03 0.  1.
        -12    1    3    3    0    0 -0.33455473384E+01  0.15437814740E+02 -0.22225460104E+02  0.27267010980E+02  0.00000000000E+00 0.  1.
</event>
<event>
 7    1  0.5761011E-013  0.5930195E+02  0.7816164E-02  0.1266605E+00
        -11   -1    0    0    0    0  0.00000000000E+00  0.00000000000E+00  0.45593999997E+02  0.45594000000E+02  0.51100000000E-03 0.  1.
         11   -1    0    0    0    0 -0.00000000000E+00 -0.00000000000E+00 -0.45593999997E+02  0.45594000000E+02  0.51100000000E-03 0. -1.
    9900012    2    1    2    0    0 -0.22950393970E+02 -0.21973913544E+02 -0.26732813160E+01  0.59301954576E+02  0.50000019237E+02 0.  0.
        -12    1    1    2    0    0  0.22950393970E+02  0.21973913544E+02  0.26732813160E+01  0.31886045424E+02  0.00000000000E+00 0.  1.
         11    1    3    3    0    0 -0.16241573212E+00  0.14815549586E+02  0.26878866706E+01  0.15058274251E+02  0.51100000000E-03 0.  1.
        -11    1    3    3    0    0 -0.15489986969E+02 -0.26121942951E+02 -0.32193545107E+00  0.30371026366E+02  0.51100000000E-03 0. -1.
         12    1    3    3    0    0 -0.72979912688E+01 -0.10667520179E+02 -0.50392325356E+01  0.13872653959E+02  0.00000000000E+00 0. -1.
</event>
<event>
 7    1  0.5761011E-013  0.5930192E+02  0.7816164E-02  0.1266605E+00
        -11   -1    0    0    0    0  0.00000000000E+00  0.00000000000E+00  0.45593999997E+02  0.45594000000E+02  0.51100000000E-03 0.  1.
         11   -1    0    0    0    0 -0.00000000000E+00 -0.00000000000E+00 -0.45593999997E+02  0.45594000000E+02  0.51100000000E-03 0. -1.
    9900012    2    1    2    0    0  0.26089241406E+02  0.15157294907E+02 -0.10311637132E+02  0.59301922060E+02  0.49999959937E+02 0.  0.
        -12    1    1    2    0    0 -0.26089241406E+02 -0.15157294907E+02  0.10311637132E+02  0.31886077940E+02  0.00000000000E+00 0.  1.
         11    1    3    3    0    0  0.86011143768E+01 -0.65431535338E+01  0.69870743621E+01  0.12869002879E+02  0.51100000000E-03 0.  1.
        -11    1    3    3    0    0  0.24085538725E+02  0.21723308862E+02 -0.21218616538E+02  0.38758805601E+02  0.51100000000E-03 0. -1.
         12    1    3    3    0    0 -0.65974116962E+01 -0.22860420690E-01  0.39199050439E+01  0.76741135802E+01  0.00000000000E+00 0. -1.
</event>
<event>
 7    1  0.5761011E-013  0.5930209E+02  0.7816164E-02  0.1266604E+00
        -11   -1    0    0    0    0  0.00000000000E+00  0.00000000000E+00  0.45593999997E+02  0.45594000000E+02  0.51100000000E-03 0.  1.
         11   -1    0    0    0    0 -0.00000000000E+00 -0.00000000000E+00 -0.45593999997E+02  0.45594000000E+02  0.51100000000E-03 0. -1.
    9900012    2    1    2    0    0 -0.28964924376E+02  0.42086428172E+01 -0.12650369422E+02  0.59302088299E+02  0.50000263115E+02 0.  0.
        -12    1    1    2    0    0  0.28964924376E+02 -0.42086428172E+01  0.12650369422E+02  0.31885911701E+02  0.00000000000E+00 0.  1.
         11    1    3    3    0    0 -0.28579585830E+02 -0.13129915945E+02 -0.25095364635E+01  0.31551310471E+02  0.51100000000E-03 0. -1.
        -11    1    3    3    0    0 -0.46595830794E+01  0.19251550788E+02 -0.11462549157E+02  0.22885015963E+02  0.51100000000E-03 0.  1.
        -12    1    3    3    0    0  0.42742445326E+01 -0.19129920262E+01  0.13217161977E+01  0.48657618647E+01  0.00000000000E+00 0.  1.
</event>
<event>
 7    1  0.5761011E-013  0.5930195E+02  0.7816164E-02  0.1266605E+00
        -11   -1    0    0    0    0  0.00000000000E+00  0.00000000000E+00  0.45593999997E+02  0.45594000000E+02  0.51100000000E-03 0.  1.
         11   -1    0    0    0    0 -0.00000000000E+00 -0.00000000000E+00 -0.45593999997E+02  0.45594000000E+02  0.51100000000E-03 0. -1.
    9900012    2    1    2    0    0  0.57622958177E+01  0.24873462256E+02 -0.19100441553E+02  0.59301952185E+02  0.50000014878E+02 0.  0.
        -12    1    1    2    0    0 -0.57622958177E+01 -0.24873462256E+02  0.19100441553E+02  0.31886047815E+02  0.00000000000E+00 0.  1.
         11    1    3    3    0    0 -0.39881117030E+01  0.25518900758E+02  0.82777253391E+01  0.27122685484E+02  0.51100000000E-03 0.  1.
        -11    1    3    3    0    0  0.75191223294E+01  0.52489492820E+01 -0.22210267477E+02  0.24028829576E+02  0.51100000000E-03 0. -1.
        -12    1    3    3    0    0  0.22312851913E+01 -0.58943877836E+01 -0.51678994159E+01  0.81504371245E+01  0.00000000000E+00 0.  1.
</event>
<event>
 7    1  0.5761011E-013  0.5930194E+02  0.7816164E-02  0.1266605E+00
        -11   -1    0    0    0    0  0.00000000000E+00  0.00000000000E+00  0.45593999997E+02  0.45594000000E+02  0.51100000000E-03 0. -1.
         11   -1    0    0    0    0 -0.00000000000E+00 -0.00000000000E+00 -0.45593999997E+02  0.45594000000E+02  0.51100000000E-03 0.  1.
    9900012    2    1    2    0    0 -0.19745318582E+02  0.24615209352E+02  0.45754729167E+01  0.59301935806E+02  0.49999985006E+02 0.  0.
        -12    1    1    2    0    0  0.19745318582E+02 -0.24615209352E+02 -0.45754729167E+01  0.31886064194E+02  0.00000000000E+00 0.  1.
         11    1    3    3    0    0 -0.84893716194E+01 -0.80491621810E+01  0.10276690661E+02  0.15571410132E+02  0.51100000000E-03 0. -1.
        -11    1    3    3    0    0 -0.60898411964E+01  0.34193174654E+02 -0.10739945036E+02  0.36353896329E+02  0.51100000000E-03 0.  1.
        -12    1    3    3    0    0 -0.51661057660E+01 -0.15288031206E+01  0.50387272918E+01  0.73766293447E+01  0.00000000000E+00 0.  1.
</event>
<event>
 7    1  0.5761011E-013  0.5930194E+02  0.7816164E-02  0.1266605E+00
        -11   -1    0    0    0    0  0.00000000000E+00  0.00000000000E+00  0.45593999997E+02  0.45594000000E+02  0.51100000000E-03 0. -1.
         11   -1    0    0    0    0 -0.00000000000E+00 -0.00000000000E+00 -0.45593999997E+02  0.45594000000E+02  0.51100000000E-03 0.  1.
    9900012    2    1    2    0    0 -0.67815922354E+01  0.31098692917E+02 -0.18979039846E+01  0.59301941386E+02  0.49999995182E+02 0.  0.
        -12    1    1    2    0    0  0.67815922354E+01 -0.31098692917E+02  0.18979039846E+01  0.31886058614E+02  0.00000000000E+00 0.  1.
         11    1    3    3    0    0 -0.57197070931E+00  0.37112381335E+00  0.35776385596E+01  0.36420298326E+01  0.51100000000E-03 0. -1.
        -11    1    3    3    0    0  0.91540598534E+01 -0.53807266669E+01 -0.11842515270E+02  0.15905791381E+02  0.51100000000E-03 0.  1.
        -12    1    3    3    0    0 -0.15363681379E+02  0.36108295771E+02  0.63669727260E+01  0.39754120173E+02  0.00000000000E+00 0.  1.
</event>
<event>
 7    1  0.5761011E-013  0.5930194E+02  0.7816164E-02  0.1266605E+00
        -11   -1    0    0    0    0  0.00000000000E+00  0.00000000000E+00  0.45593999997E+02  0.45594000000E+02  0.51100000000E-03 0.  1.
         11   -1    0    0    0    0 -0.00000000000E+00 -0.00000000000E+00 -0.45593999997E+02  0.45594000000E+02  0.51100000000E-03 0. -1.
    9900012    2    1    2    0    0  0.52516633995E+01  0.60907559535E+01 -0.30855202121E+02  0.59301940751E+02  0.49999994023E+02 0.  0.
        -12    1    1    2    0    0 -0.52516633995E+01 -0.60907559535E+01  0.30855202121E+02  0.31886059249E+02  0.00000000000E+00 0.  1.
         11    1    3    3    0    0  0.54090745457E+01  0.24025652132E+01  0.10188086516E+02  0.11782508823E+02  0.51100000000E-03 0. -1.
        -11    1    3    3    0    0 -0.11713853659E+02  0.15471876565E+01 -0.16357979146E+02  0.20178990043E+02  0.51100000000E-03 0.  1.
         12    1    3    3    0    0  0.11556442512E+02  0.21410030839E+01 -0.24685309491E+02  0.27340441884E+02  0.00000000000E+00 0. -1.
</event>
<event>
 7    1  0.5761011E-013  0.5930194E+02  0.7816164E-02  0.1266605E+00
        -11   -1    0    0    0    0  0.00000000000E+00  0.00000000000E+00  0.45593999997E+02  0.45594000000E+02  0.51100000000E-03 0. -1.
         11   -1    0    0    0    0 -0.00000000000E+00 -0.00000000000E+00 -0.45593999997E+02  0.45594000000E+02  0.51100000000E-03 0.  1.
    9900012    2    1    2    0    0 -0.83223597673E+00  0.14573123222E+02  0.28348756002E+02  0.59301944991E+02  0.50000001757E+02 0.  0.
        -12    1    1    2    0    0  0.83223597673E+00 -0.14573123222E+02 -0.28348756002E+02  0.31886055009E+02  0.00000000000E+00 0.  1.
         11    1    3    3    0    0  0.12152746348E+02  0.89092815140E+01  0.22938685287E+02  0.27445360698E+02  0.51100000000E-03 0. -1.
        -11    1    3    3    0    0 -0.47894728770E+01 -0.21271014267E+01 -0.10851065389E+02  0.12050279302E+02  0.51100000000E-03 0.  1.
         12    1    3    3    0    0 -0.81955094473E+01  0.77909431346E+01  0.16261136103E+02  0.19806304991E+02  0.00000000000E+00 0. -1.
</event>
<event>
 7    1  0.5761011E-013  0.5930197E+02  0.7816164E-02  0.1266605E+00
        -11   -1    0    0    0    0  0.00000000000E+00  0.00000000000E+00  0.45593999997E+02  0.45594000000E+02  0.51100000000E-03 0. -1.
         11   -1    0    0    0    0 -0.00000000000E+00 -0.00000000000E+00 -0.45593999997E+02  0.45594000000E+02  0.51100000000E-03 0.  1.
    9900012    2    1    2    0    0  0.24337716380E+02 -0.15835536347E+01  0.20539885614E+02  0.59301968862E+02  0.50000045292E+02 0.  0.
        -12    1    1    2    0    0 -0.24337716380E+02  0.15835536347E+01 -0.20539885614E+02  0.31886031138E+02  0.00000000000E+00 0.  1.
         11    1    3    3    0    0  0.18638343231E+02 -0.17450997242E+02  0.56502696272E+01  0.26150539005E+02  0.51100000000E-03 0. -1.
        -11    1    3    3    0    0  0.97757643050E+01  0.14494698422E+02 -0.17573316099E+00  0.17484070822E+02  0.51100000000E-03 0.  1.
        -12    1    3    3    0    0 -0.40763911555E+01  0.13727451849E+01  0.15065349148E+02  0.15667359035E+02  0.00000000000E+00 0.  1.
</event>
<event>
 7    1  0.5761011E-013  0.5930187E+02  0.7816164E-02  0.1266605E+00
        -11   -1    0    0    0    0  0.00000000000E+00  0.00000000000E+00  0.45593999997E+02  0.45594000000E+02  0.51100000000E-03 0. -1.
         11   -1    0    0    0    0 -0.00000000000E+00 -0.00000000000E+00 -0.45593999997E+02  0.45594000000E+02  0.51100000000E-03 0.  1.
    9900012    2    1    2    0    0 -0.30800146780E+02  0.57652104531E+01 -0.59024049589E+01  0.59301873275E+02  0.49999870963E+02 0.  0.
        -12    1    1    2    0    0  0.30800146780E+02 -0.57652104531E+01  0.59024049589E+01  0.31886126725E+02  0.00000000000E+00 0.  1.
         11    1    3    3    0    0 -0.25942312932E+02 -0.18986463301E+01  0.12709982941E+02  0.28950857064E+02  0.51100000000E-03 0. -1.
        -11    1    3    3    0    0 -0.12706866949E+02  0.65635404851E+01 -0.17082281883E+02  0.22278888796E+02  0.51100000000E-03 0.  1.
         12    1    3    3    0    0  0.78490331012E+01  0.11003162981E+01 -0.15301060162E+01  0.80721274148E+01  0.00000000000E+00 0. -1.
</event>
<event>
 7    1  0.5761011E-013  0.5930200E+02  0.7816164E-02  0.1266605E+00
        -11   -1    0    0    0    0  0.00000000000E+00  0.00000000000E+00  0.45593999997E+02  0.45594000000E+02  0.51100000000E-03 0. -1.
         11   -1    0    0    0    0 -0.00000000000E+00 -0.00000000000E+00 -0.45593999997E+02  0.45594000000E+02  0.51100000000E-03 0.  1.
    9900012    2    1    2    0    0  0.30141579627E+02 -0.44180262651E+01 -0.94171609266E+01  0.59302004666E+02  0.50000110590E+02 0.  0.
        -12    1    1    2    0    0 -0.30141579627E+02  0.44180262651E+01  0.94171609266E+01  0.31885995334E+02  0.00000000000E+00 0.  1.
         11    1    3    3    0    0  0.11063383024E+02 -0.23137741784E+01  0.58123800002E+01  0.12709671766E+02  0.51100000000E-03 0. -1.
        -11    1    3    3    0    0  0.16389856605E+02  0.13812484547E+02 -0.20452433059E+02  0.29626240855E+02  0.51100000000E-03 0.  1.
        -12    1    3    3    0    0  0.26883399986E+01 -0.15916736634E+02  0.52228921327E+01  0.16966092044E+02  0.00000000000E+00 0.  1.
</event>
<event>
 7    1  0.5761011E-013  0.5930194E+02  0.7816164E-02  0.1266605E+00
        -11   -1    0    0    0    0  0.00000000000E+00  0.00000000000E+00  0.45593999997E+02  0.45594000000E+02  0.51100000000E-03 0.  1.
         11   -1    0    0    0    0 -0.00000000000E+00 -0.00000000000E+00 -0.45593999997E+02  0.45594000000E+02  0.51100000000E-03 0. -1.
    9900012    2    1    2    0    0 -0.29788478394E+01  0.11268815244E+02 -0.29679304257E+02  0.59301939839E+02  0.49999992360E+02 0.  0.
        -12    1    1    2    0    0  0.29788478394E+01 -0.11268815244E+02  0.29679304257E+02  0.31886060161E+02  0.00000000000E+00 0.  1.
         11    1    3    3    0    0  0.60047089473E+01 -0.42398003519E+01 -0.13930359044E+02  0.15750788549E+02  0.51100000000E-03 0. -1.
        -11    1    3    3    0    0 -0.12242209474E+02  0.23845350596E+02 -0.20191402152E+02  0.33558384332E+02  0.51100000000E-03 0.  1.
        -12    1    3    3    0    0  0.32586526875E+01 -0.83367350000E+01  0.44424569399E+01  0.99927669572E+01  0.00000000000E+00 0.  1.
</event>
<event>
 7    1  0.5761011E-013  0.5930195E+02  0.7816164E-02  0.1266605E+00
        -11   -1    0    0    0    0  0.00000000000E+00  0.00000000000E+00  0.45593999997E+02  0.45594000000E+02  0.51100000000E-03 0.  1.
         11   -1    0    0    0    0 -0.00000000000E+00 -0.00000000000E+00 -0.45593999997E+02  0.45594000000E+02  0.51100000000E-03 0. -1.
    9900012    2    1    2    0    0  0.24518532989E+02  0.15724544449E+02 -0.12973068578E+02  0.59301948717E+02  0.50000008552E+02 0.  0.
        -12    1    1    2    0    0 -0.24518532989E+02 -0.15724544449E+02  0.12973068578E+02  0.31886051283E+02  0.00000000000E+00 0.  1.
         11    1    3    3    0    0  0.25212302679E+02 -0.55468710042E-01 -0.21082629251E+02  0.32865491622E+02  0.51100000000E-03 0. -1.
        -11    1    3    3    0    0 -0.68677434040E+01  0.17426283196E+02  0.53792919816E+01  0.19487894396E+02  0.51100000000E-03 0.  1.
        -12    1    3    3    0    0  0.61739737144E+01 -0.16462700371E+01  0.27302686912E+01  0.69485626994E+01  0.00000000000E+00 0.  1.
</event>
<event>
 7    1  0.5761011E-013  0.5930193E+02  0.7816164E-02  0.1266605E+00
        -11   -1    0    0    0    0  0.00000000000E+00  0.00000000000E+00  0.45593999997E+02  0.45594000000E+02  0.51100000000E-03 0.  1.
         11   -1    0    0    0    0 -0.00000000000E+00 -0.00000000000E+00 -0.45593999997E+02  0.45594000000E+02  0.51100000000E-03 0. -1.
    9900012    2    1    2    0    0 -0.10960494789E+02  0.29930447092E+02  0.87038204051E+00  0.59301926645E+02  0.49999968297E+02 0.  0.
        -12    1    1    2    0    0  0.10960494789E+02 -0.29930447092E+02 -0.87038204051E+00  0.31886073355E+02  0.00000000000E+00 0.  1.
         11    1    3    3    0    0 -0.13821029306E+02  0.75261312212E+01  0.21331020244E+02  0.26508035143E+02  0.51100000000E-03 0.  1.
        -11    1    3    3    0    0  0.31021863343E+01  0.96290815827E+01 -0.16610889087E+02  0.19449020765E+02  0.51100000000E-03 0. -1.
         12    1    3    3    0    0 -0.24165181702E+00  0.12775234288E+02 -0.38497491166E+01  0.13344870736E+02  0.00000000000E+00 0. -1.
</event>
<event>
 7    1  0.5761011E-013  0.5930190E+02  0.7816164E-02  0.1266605E+00
        -11   -1    0    0    0    0  0.00000000000E+00  0.00000000000E+00  0.45593999997E+02  0.45594000000E+02  0.51100000000E-03 0.  1.
         11   -1    0    0    0    0 -0.00000000000E+00 -0.00000000000E+00 -0.45593999997E+02  0.45594000000E+02  0.51100000000E-03 0. -1.
    9900012    2    1    2    0    0  0.13122429889E+01  0.17012644548E+02 -0.26936432650E+02  0.59301898637E+02  0.49999917219E+02 0.  0.
        -12    1    1    2    0    0 -0.13122429889E+01 -0.17012644548E+02  0.26936432650E+02  0.31886101363E+02  0.00000000000E+00 0.  1.
         11    1    3    3    0    0 -0.18994750366E+01  0.23228949429E+02 -0.17671696952E+02  0.29248606299E+02  0.51100000000E-03 0. -1.
        -11    1    3    3    0    0  0.17640812882E+01 -0.16545865562E+02 -0.10303158764E+02  0.19571222005E+02  0.51100000000E-03 0.  1.
        -12    1    3    3    0    0  0.14476367373E+01  0.10329560682E+02  0.10384230668E+01  0.10482070333E+02  0.00000000000E+00 0.  1.
</event>
<event>
 7    1  0.5761011E-013  0.5930194E+02  0.7816164E-02  0.1266605E+00
        -11   -1    0    0    0    0  0.00000000000E+00  0.00000000000E+00  0.45593999997E+02  0.45594000000E+02  0.51100000000E-03 0.  1.
         11   -1    0    0    0    0 -0.00000000000E+00 -0.00000000000E+00 -0.45593999997E+02  0.45594000000E+02  0.51100000000E-03 0. -1.
    9900012    2    1    2    0    0 -0.26384329071E+02 -0.16160909093E+02 -0.77079686175E+01  0.59301943746E+02  0.49999999486E+02 0.  0.
        -12    1    1    2    0    0  0.26384329071E+02  0.16160909093E+02  0.77079686175E+01  0.31886056254E+02  0.00000000000E+00 0.  1.
         11    1    3    3    0    0 -0.74242104691E+00  0.13409370709E+02 -0.54137753425E+01  0.14480033686E+02  0.51100000000E-03 0. -1.
        -11    1    3    3    0    0 -0.14606733025E+02 -0.18437822538E+02 -0.11978218632E+02  0.26396736001E+02  0.51100000000E-03 0.  1.
        -12    1    3    3    0    0 -0.11035174998E+02 -0.11132457264E+02  0.96840253569E+01  0.18425174059E+02  0.00000000000E+00 0.  1.
</event>
<event>
 7    1  0.5761011E-013  0.5930195E+02  0.7816164E-02  0.1266605E+00
        -11   -1    0    0    0    0  0.00000000000E+00  0.00000000000E+00  0.45593999997E+02  0.45594000000E+02  0.51100000000E-03 0.  1.
         11   -1    0    0    0    0 -0.00000000000E+00 -0.00000000000E+00 -0.45593999997E+02  0.45594000000E+02  0.51100000000E-03 0. -1.
    9900012    2    1    2    0    0 -0.45694934457E+01 -0.30430288052E+02 -0.83568998061E+01  0.59301945436E+02  0.50000002569E+02 0.  0.
        -12    1    1    2    0    0  0.45694934457E+01  0.30430288052E+02  0.83568998061E+01  0.31886054564E+02  0.00000000000E+00 0.  1.
         11    1    3    3    0    0 -0.57182279704E+01  0.86757791104E+01 -0.41887996563E+01  0.11203272607E+02  0.51100000000E-03 0.  1.
        -11    1    3    3    0    0 -0.19656722475E+01 -0.40830561200E+02  0.20547771449E+01  0.40929460107E+02  0.51100000000E-03 0. -1.
         12    1    3    3    0    0  0.31144067722E+01  0.17244940376E+01 -0.62228772947E+01  0.71692127220E+01  0.00000000000E+00 0. -1.
</event>
<event>
 7    1  0.5761011E-013  0.5930195E+02  0.7816164E-02  0.1266605E+00
        -11   -1    0    0    0    0  0.00000000000E+00  0.00000000000E+00  0.45593999997E+02  0.45594000000E+02  0.51100000000E-03 0.  1.
         11   -1    0    0    0    0 -0.00000000000E+00 -0.00000000000E+00 -0.45593999997E+02  0.45594000000E+02  0.51100000000E-03 0. -1.
    9900012    2    1    2    0    0 -0.13111440068E+02  0.28816193979E+02 -0.37996271930E+01  0.59301951909E+02  0.50000014373E+02 0.  0.
        -12    1    1    2    0    0  0.13111440068E+02 -0.28816193979E+02  0.37996271930E+01  0.31886048091E+02  0.00000000000E+00 0.  1.
         11    1    3    3    0    0 -0.18390720281E+02  0.33998249854E+02 -0.75090127573E+00  0.38660877365E+02  0.51100000000E-03 0. -1.
        -11    1    3    3    0    0  0.68410622122E+01  0.57624641467E+01  0.68854186169E+00  0.89710766015E+01  0.51100000000E-03 0.  1.
         12    1    3    3    0    0 -0.15617819988E+01 -0.10944520022E+02 -0.37372677790E+01  0.11669997943E+02  0.00000000000E+00 0. -1.
</event>
<event>
 7    1  0.5761011E-013  0.5930193E+02  0.7816164E-02  0.1266605E+00
        -11   -1    0    0    0    0  0.00000000000E+00  0.00000000000E+00  0.45593999997E+02  0.45594000000E+02  0.51100000000E-03 0. -1.
         11   -1    0    0    0    0 -0.00000000000E+00 -0.00000000000E+00 -0.45593999997E+02  0.45594000000E+02  0.51100000000E-03 0.  1.
    9900012    2    1    2    0    0 -0.22753315385E+01 -0.53994406236E+01  0.31343111048E+02  0.59301926193E+02  0.49999967474E+02 0.  0.
        -12    1    1    2    0    0  0.22753315385E+01  0.53994406236E+01 -0.31343111048E+02  0.31886073807E+02  0.00000000000E+00 0.  1.
         11    1    3    3    0    0 -0.18516750802E+02 -0.98503305115E+01  0.88775227342E+01  0.22775194436E+02  0.51100000000E-03 0. -1.
        -11    1    3    3    0    0  0.93220134488E+01 -0.94316429753E+01  0.11167069805E+02  0.17336645357E+02  0.51100000000E-03 0.  1.
        -12    1    3    3    0    0  0.69194058147E+01  0.13882532863E+02  0.11298518509E+02  0.19190086400E+02  0.00000000000E+00 0.  1.
</event>
<event>
 7    1  0.5761011E-013  0.5930194E+02  0.7816164E-02  0.1266605E+00
        -11   -1    0    0    0    0  0.00000000000E+00  0.00000000000E+00  0.45593999997E+02  0.45594000000E+02  0.51100000000E-03 0.  1.
         11   -1    0    0    0    0 -0.00000000000E+00 -0.00000000000E+00 -0.45593999997E+02  0.45594000000E+02  0.51100000000E-03 0. -1.
    9900012    2    1    2    0    0 -0.27001965860E+02 -0.66739381578E+01 -0.15590809198E+02  0.59301938119E+02  0.49999989225E+02 0.  0.
        -12    1    1    2    0    0  0.27001965860E+02  0.66739381578E+01  0.15590809198E+02  0.31886061881E+02  0.00000000000E+00 0.  1.
         11    1    3    3    0    0 -0.37688627336E+02 -0.75889236794E+01 -0.83097217632E+01  0.39332885340E+02  0.51100000000E-03 0. -1.
        -11    1    3    3    0    0  0.78976760190E+01  0.17169558531E+01  0.34976296172E+01  0.88065110630E+01  0.51100000000E-03 0.  1.
         12    1    3    3    0    0  0.27889854579E+01 -0.80197033150E+00 -0.10778717052E+02  0.11162541717E+02  0.00000000000E+00 0. -1.
</event>
<event>
 7    1  0.5761011E-013  0.5930193E+02  0.7816164E-02  0.1266605E+00
        -11   -1    0    0    0    0  0.00000000000E+00  0.00000000000E+00  0.45593999997E+02  0.45594000000E+02  0.51100000000E-03 0.  1.
         11   -1    0    0    0    0 -0.00000000000E+00 -0.00000000000E+00 -0.45593999997E+02  0.45594000000E+02  0.51100000000E-03 0. -1.
    9900012    2    1    2    0    0 -0.14230055473E+02 -0.38707752126E+01 -0.28270906254E+02  0.59301929061E+02  0.49999972704E+02 0.  0.
        -12    1    1    2    0    0  0.14230055473E+02  0.38707752126E+01  0.28270906254E+02  0.31886070939E+02  0.00000000000E+00 0.  1.
         11    1    3    3    0    0 -0.41635592824E+01 -0.14006102827E+02 -0.19215424809E+02  0.24139981217E+02  0.51100000000E-03 0. -1.
        -11    1    3    3    0    0 -0.11947897512E+02  0.20344748497E+02 -0.64059055693E+01  0.24447835748E+02  0.51100000000E-03 0.  1.
         12    1    3    3    0    0  0.18814013210E+01 -0.10209420882E+02 -0.26495758763E+01  0.10714112096E+02  0.00000000000E+00 0. -1.
</event>
<event>
 7    1  0.5761011E-013  0.5930194E+02  0.7816164E-02  0.1266605E+00
        -11   -1    0    0    0    0  0.00000000000E+00  0.00000000000E+00  0.45593999997E+02  0.45594000000E+02  0.51100000000E-03 0.  1.
         11   -1    0    0    0    0 -0.00000000000E+00 -0.00000000000E+00 -0.45593999997E+02  0.45594000000E+02  0.51100000000E-03 0. -1.
    9900012    2    1    2    0    0 -0.11063512866E+01  0.31756971847E+02  0.26441758891E+01  0.59301938152E+02  0.49999989284E+02 0.  0.
        -12    1    1    2    0    0  0.11063512866E+01 -0.31756971847E+02 -0.26441758891E+01  0.31886061848E+02  0.00000000000E+00 0.  1.
         11    1    3    3    0    0  0.10031522275E+01  0.26301414428E+02 -0.15471504965E+02  0.30530938103E+02  0.51100000000E-03 0. -1.
        -11    1    3    3    0    0 -0.95055873886E+01  0.86004317212E+01  0.58118119823E+01  0.14074827749E+02  0.51100000000E-03 0.  1.
         12    1    3    3    0    0  0.73960838744E+01 -0.31448743024E+01  0.12303868871E+02  0.14696172300E+02  0.00000000000E+00 0. -1.
</event>
<event>
 7    1  0.5761011E-013  0.5930196E+02  0.7816164E-02  0.1266605E+00
        -11   -1    0    0    0    0  0.00000000000E+00  0.00000000000E+00  0.45593999997E+02  0.45594000000E+02  0.51100000000E-03 0.  1.
         11   -1    0    0    0    0 -0.00000000000E+00 -0.00000000000E+00 -0.45593999997E+02  0.45594000000E+02  0.51100000000E-03 0. -1.
    9900012    2    1    2    0    0  0.16820991307E+02  0.25983800965E+02  0.76560939010E+01  0.59301961755E+02  0.50000032330E+02 0.  0.
        -12    1    1    2    0    0 -0.16820991307E+02 -0.25983800965E+02 -0.76560939010E+01  0.31886038245E+02  0.00000000000E+00 0.  1.
         11    1    3    3    0    0  0.12325186463E+02  0.17004352063E+02  0.72123007871E+01  0.22205303270E+02  0.51100000000E-03 0. -1.
        -11    1    3    3    0    0 -0.15385864129E+02  0.29483329848E+00 -0.23201222817E+00  0.15390437667E+02  0.51100000000E-03 0.  1.
        -12    1    3    3    0    0  0.19881668972E+02  0.86846156044E+01  0.67580534215E+00  0.21706220817E+02  0.00000000000E+00 0.  1.
</event>
<event>
 7    1  0.5761011E-013  0.5930203E+02  0.7816164E-02  0.1266604E+00
        -11   -1    0    0    0    0  0.00000000000E+00  0.00000000000E+00  0.45593999997E+02  0.45594000000E+02  0.51100000000E-03 0. -1.
         11   -1    0    0    0    0 -0.00000000000E+00 -0.00000000000E+00 -0.45593999997E+02  0.45594000000E+02  0.51100000000E-03 0.  1.
    9900012    2    1    2    0    0  0.14641161860E+02 -0.24237129470E+02  0.14659921249E+02  0.59302025707E+02  0.50000148964E+02 0.  0.
        -12    1    1    2    0    0 -0.14641161860E+02  0.24237129470E+02 -0.14659921249E+02  0.31885974293E+02  0.00000000000E+00 0.  1.
         11    1    3    3    0    0  0.63377246061E+01  0.88345359478E+01 -0.52047842528E+01  0.12054275506E+02  0.51100000000E-03 0. -1.
        -11    1    3    3    0    0 -0.76054941577E+01 -0.17124924573E+02  0.27077034879E+01  0.18932465277E+02  0.51100000000E-03 0.  1.
         12    1    3    3    0    0  0.15908931411E+02 -0.15946740845E+02  0.17157002014E+02  0.28315284924E+02  0.00000000000E+00 0. -1.
</event>
<event>
 7    1  0.5761011E-013  0.5930193E+02  0.7816164E-02  0.1266605E+00
        -11   -1    0    0    0    0  0.00000000000E+00  0.00000000000E+00  0.45593999997E+02  0.45594000000E+02  0.51100000000E-03 0.  1.
         11   -1    0    0    0    0 -0.00000000000E+00 -0.00000000000E+00 -0.45593999997E+02  0.45594000000E+02  0.51100000000E-03 0. -1.
    9900012    2    1    2    0    0  0.33498635649E+01 -0.15287060433E+02 -0.27781396061E+02  0.59301925144E+02  0.49999965561E+02 0.  0.
        -12    1    1    2    0    0 -0.33498635649E+01  0.15287060433E+02  0.27781396061E+02  0.31886074856E+02  0.00000000000E+00 0.  1.
         11    1    3    3    0    0  0.19548794882E+02 -0.34642321399E+00 -0.20396807649E+02  0.28254294415E+02  0.51100000000E-03 0. -1.
        -11    1    3    3    0    0 -0.10377463241E+02  0.33666513543E+01 -0.34078244433E+01  0.11429757319E+02  0.51100000000E-03 0.  1.
         12    1    3    3    0    0 -0.58214680759E+01 -0.18307288574E+02 -0.39767639691E+01  0.19617873410E+02  0.00000000000E+00 0. -1.
</event>
<event>
 7    1  0.5761011E-013  0.5930196E+02  0.7816164E-02  0.1266605E+00
        -11   -1    0    0    0    0  0.00000000000E+00  0.00000000000E+00  0.45593999997E+02  0.45594000000E+02  0.51100000000E-03 0. -1.
         11   -1    0    0    0    0 -0.00000000000E+00 -0.00000000000E+00 -0.45593999997E+02  0.45594000000E+02  0.51100000000E-03 0.  1.
    9900012    2    1    2    0    0 -0.19764634528E+02  0.25006510198E+02 -0.86803964072E+00  0.59301955668E+02  0.50000021229E+02 0.  0.
        -12    1    1    2    0    0  0.19764634528E+02 -0.25006510198E+02  0.86803964072E+00  0.31886044332E+02  0.00000000000E+00 0.  1.
         11    1    3    3    0    0 -0.24890946112E+01  0.10422014658E+02  0.17164392934E+02  0.20234385747E+02  0.51100000000E-03 0. -1.
        -11    1    3    3    0    0 -0.16853225862E+02  0.21407814188E+02 -0.11373959980E+02  0.29524442351E+02  0.51100000000E-03 0.  1.
         12    1    3    3    0    0 -0.42231405473E+00 -0.68233186473E+01 -0.66584725943E+01  0.95431275698E+01  0.00000000000E+00 0. -1.
</event>
<event>
 7    1  0.5761011E-013  0.5930198E+02  0.7816164E-02  0.1266605E+00
        -11   -1    0    0    0    0  0.00000000000E+00  0.00000000000E+00  0.45593999997E+02  0.45594000000E+02  0.51100000000E-03 0.  1.
         11   -1    0    0    0    0 -0.00000000000E+00 -0.00000000000E+00 -0.45593999997E+02  0.45594000000E+02  0.51100000000E-03 0. -1.
    9900012    2    1    2    0    0  0.54490472790E+01  0.44857801839E+01 -0.31095081406E+02  0.59301977549E+02  0.50000061135E+02 0.  0.
        -12    1    1    2    0    0 -0.54490472790E+01 -0.44857801839E+01  0.31095081406E+02  0.31886022451E+02  0.00000000000E+00 0.  1.
         11    1    3    3    0    0  0.13327341177E+02  0.60083164200E+01 -0.68717369399E+01  0.16153595819E+02  0.51100000000E-03 0. -1.
        -11    1    3    3    0    0 -0.69967488928E+01 -0.45678813074E+01 -0.32882257410E+02  0.33927317715E+02  0.51100000000E-03 0.  1.
        -12    1    3    3    0    0 -0.88154500525E+00  0.30453450714E+01  0.86589129439E+01  0.92210640150E+01  0.00000000000E+00 0.  1.
</event>
<event>
 7    1  0.5761011E-013  0.5930194E+02  0.7816164E-02  0.1266605E+00
        -11   -1    0    0    0    0  0.00000000000E+00  0.00000000000E+00  0.45593999997E+02  0.45594000000E+02  0.51100000000E-03 0.  1.
         11   -1    0    0    0    0 -0.00000000000E+00 -0.00000000000E+00 -0.45593999997E+02  0.45594000000E+02  0.51100000000E-03 0. -1.
    9900012    2    1    2    0    0  0.58978557722E+01 -0.80840648034E+01 -0.30275137938E+02  0.59301940607E+02  0.49999993762E+02 0.  0.
        -12    1    1    2    0    0 -0.58978557722E+01  0.80840648034E+01  0.30275137938E+02  0.31886059393E+02  0.00000000000E+00 0.  1.
         11    1    3    3    0    0 -0.23455526244E+00  0.24019142453E+00 -0.55263241598E+01  0.55365121757E+01  0.51100000000E-03 0. -1.
        -11    1    3    3    0    0  0.23022453291E+02 -0.87256688954E+01 -0.10265943192E+01  0.24641926657E+02  0.51100000000E-03 0.  1.
        -12    1    3    3    0    0 -0.16890042257E+02  0.40141266752E+00 -0.23722219459E+02  0.29123501774E+02  0.00000000000E+00 0.  1.
</event>
<event>
 7    1  0.5761011E-013  0.5930195E+02  0.7816164E-02  0.1266605E+00
        -11   -1    0    0    0    0  0.00000000000E+00  0.00000000000E+00  0.45593999997E+02  0.45594000000E+02  0.51100000000E-03 0. -1.
         11   -1    0    0    0    0 -0.00000000000E+00 -0.00000000000E+00 -0.45593999997E+02  0.45594000000E+02  0.51100000000E-03 0.  1.
    9900012    2    1    2    0    0  0.98334211507E+01  0.30065185715E+02  0.40135610590E+01  0.59301949195E+02  0.50000009423E+02 0.  0.
        -12    1    1    2    0    0 -0.98334211507E+01 -0.30065185715E+02 -0.40135610590E+01  0.31886050805E+02  0.00000000000E+00 0.  1.
         11    1    3    3    0    0 -0.11747611739E+02  0.16360611083E+02 -0.33156987904E+01  0.20412492139E+02  0.51100000000E-03 0.  1.
        -11    1    3    3    0    0  0.21688527146E+02  0.12134216064E+02 -0.59195641513E+01  0.25547458763E+02  0.51100000000E-03 0. -1.
         12    1    3    3    0    0 -0.10749425605E+00  0.15703585682E+01  0.13248824001E+02  0.13341998293E+02  0.00000000000E+00 0. -1.
</event>
<event>
 7    1  0.5761011E-013  0.5930197E+02  0.7816164E-02  0.1266605E+00
        -11   -1    0    0    0    0  0.00000000000E+00  0.00000000000E+00  0.45593999997E+02  0.45594000000E+02  0.51100000000E-03 0. -1.
         11   -1    0    0    0    0 -0.00000000000E+00 -0.00000000000E+00 -0.45593999997E+02  0.45594000000E+02  0.51100000000E-03 0.  1.
    9900012    2    1    2    0    0  0.16201494306E+02  0.25852612182E+02 -0.92667602164E+01  0.59301971409E+02  0.50000049937E+02 0.  0.
        -12    1    1    2    0    0 -0.16201494306E+02 -0.25852612182E+02  0.92667602164E+01  0.31886028591E+02  0.00000000000E+00 0.  1.
         11    1    3    3    0    0  0.18256012749E+02  0.10809326801E+02  0.69342744346E+01  0.22320566963E+02  0.51100000000E-03 0. -1.
        -11    1    3    3    0    0 -0.43502526064E+01  0.23783187104E+02 -0.11091649505E+02  0.26600552167E+02  0.51100000000E-03 0.  1.
        -12    1    3    3    0    0  0.22957341633E+01 -0.87399017227E+01 -0.51093851462E+01  0.10380852279E+02  0.00000000000E+00 0.  1.
</event>
<event>
 7    1  0.5761011E-013  0.5930186E+02  0.7816164E-02  0.1266605E+00
        -11   -1    0    0    0    0  0.00000000000E+00  0.00000000000E+00  0.45593999997E+02  0.45594000000E+02  0.51100000000E-03 0. -1.
         11   -1    0    0    0    0 -0.00000000000E+00 -0.00000000000E+00 -0.45593999997E+02  0.45594000000E+02  0.51100000000E-03 0.  1.
    9900012    2    1    2    0    0 -0.23589521072E+02 -0.15232368484E+02  0.15107453762E+02  0.59301863306E+02  0.49999852784E+02 0.  0.
        -12    1    1    2    0    0  0.23589521072E+02  0.15232368484E+02 -0.15107453762E+02  0.31886136694E+02  0.00000000000E+00 0.  1.
         11    1    3    3    0    0 -0.57742336621E+01  0.69095151450E+00  0.27213196973E+02  0.27827635152E+02  0.51100000000E-03 0. -1.
        -11    1    3    3    0    0 -0.79959250018E+01 -0.16597913279E+02 -0.43164188739E+01  0.18922394511E+02  0.51100000000E-03 0.  1.
         12    1    3    3    0    0 -0.98193624086E+01  0.67459328102E+00 -0.77893243367E+01  0.12551833644E+02  0.00000000000E+00 0. -1.
</event>
<event>
 7    1  0.5761011E-013  0.5930208E+02  0.7816164E-02  0.1266604E+00
        -11   -1    0    0    0    0  0.00000000000E+00  0.00000000000E+00  0.45593999997E+02  0.45594000000E+02  0.51100000000E-03 0.  1.
         11   -1    0    0    0    0 -0.00000000000E+00 -0.00000000000E+00 -0.45593999997E+02  0.45594000000E+02  0.51100000000E-03 0. -1.
    9900012    2    1    2    0    0  0.29497679138E+01 -0.29461045277E+02 -0.11834586490E+02  0.59302082153E+02  0.50000251906E+02 0.  0.
        -12    1    1    2    0    0 -0.29497679138E+01  0.29461045277E+02  0.11834586490E+02  0.31885917847E+02  0.00000000000E+00 0.  1.
         11    1    3    3    0    0 -0.41794015224E+01  0.47886737683E+01 -0.18406255092E+02  0.19472776390E+02  0.51100000000E-03 0. -1.
        -11    1    3    3    0    0  0.92363154973E+01 -0.22372289744E+02  0.11501868191E+02  0.26797795516E+02  0.51100000000E-03 0.  1.
         12    1    3    3    0    0 -0.21071460611E+01 -0.11877429302E+02 -0.49301995885E+01  0.13031510247E+02  0.00000000000E+00 0. -1.
</event>
<event>
 7    1  0.5761011E-013  0.5930194E+02  0.7816164E-02  0.1266605E+00
        -11   -1    0    0    0    0  0.00000000000E+00  0.00000000000E+00  0.45593999997E+02  0.45594000000E+02  0.51100000000E-03 0. -1.
         11   -1    0    0    0    0 -0.00000000000E+00 -0.00000000000E+00 -0.45593999997E+02  0.45594000000E+02  0.51100000000E-03 0.  1.
    9900012    2    1    2    0    0  0.24546892944E+02 -0.67530577340E+01  0.19198097151E+02  0.59301942292E+02  0.49999996835E+02 0.  0.
        -12    1    1    2    0    0 -0.24546892944E+02  0.67530577340E+01 -0.19198097151E+02  0.31886057708E+02  0.00000000000E+00 0.  1.
         11    1    3    3    0    0  0.64738366903E+01 -0.61872355763E+01  0.27231440683E+02  0.28666074156E+02  0.51100000000E-03 0. -1.
        -11    1    3    3    0    0  0.14213066151E+02 -0.10359836572E+02 -0.95281157218E+01  0.20003061083E+02  0.51100000000E-03 0.  1.
         12    1    3    3    0    0  0.38599901024E+01  0.97940144142E+01  0.14947721892E+01  0.10632807053E+02  0.00000000000E+00 0. -1.
</event>
<event>
 7    1  0.5761011E-013  0.5930197E+02  0.7816164E-02  0.1266605E+00
        -11   -1    0    0    0    0  0.00000000000E+00  0.00000000000E+00  0.45593999997E+02  0.45594000000E+02  0.51100000000E-03 0.  1.
         11   -1    0    0    0    0 -0.00000000000E+00 -0.00000000000E+00 -0.45593999997E+02  0.45594000000E+02  0.51100000000E-03 0. -1.
    9900012    2    1    2    0    0  0.56728830333E+01  0.26854346714E+02 -0.16229035606E+02  0.59301966443E+02  0.50000040880E+02 0.  0.
        -12    1    1    2    0    0 -0.56728830333E+01 -0.26854346714E+02  0.16229035606E+02  0.31886033557E+02  0.00000000000E+00 0.  1.
         11    1    3    3    0    0  0.43680098364E+01 -0.59438287013E+01 -0.24291063223E+02  0.25386302652E+02  0.51100000000E-03 0. -1.
        -11    1    3    3    0    0  0.20919155036E+01  0.27474267471E+02  0.70191571805E+01  0.28433783627E+02  0.51100000000E-03 0.  1.
         12    1    3    3    0    0 -0.78704230672E+00  0.53239079436E+01  0.10428704368E+01  0.54818801641E+01  0.00000000000E+00 0. -1.
</event>
<event>
 7    1  0.5761011E-013  0.5930195E+02  0.7816164E-02  0.1266605E+00
        -11   -1    0    0    0    0  0.00000000000E+00  0.00000000000E+00  0.45593999997E+02  0.45594000000E+02  0.51100000000E-03 0.  1.
         11   -1    0    0    0    0 -0.00000000000E+00 -0.00000000000E+00 -0.45593999997E+02  0.45594000000E+02  0.51100000000E-03 0. -1.
    9900012    2    1    2    0    0 -0.65680552084E+01  0.85099690798E+01 -0.30019345037E+02  0.59301952904E+02  0.50000016188E+02 0.  0.
        -12    1    1    2    0    0  0.65680552084E+01 -0.85099690798E+01  0.30019345037E+02  0.31886047096E+02  0.00000000000E+00 0.  1.
         11    1    3    3    0    0 -0.10193896181E+02  0.18178958687E+02 -0.19281781670E+02  0.28393259111E+02  0.51100000000E-03 0. -1.
        -11    1    3    3    0    0  0.10079461449E+02 -0.11115535725E+02  0.33245563150E+01  0.15368908631E+02  0.51100000000E-03 0.  1.
         12    1    3    3    0    0 -0.64536204766E+01  0.14465461186E+01 -0.14062119682E+02  0.15539785162E+02  0.00000000000E+00 0. -1.
</event>
<event>
 7    1  0.5761011E-013  0.5930194E+02  0.7816164E-02  0.1266605E+00
        -11   -1    0    0    0    0  0.00000000000E+00  0.00000000000E+00  0.45593999997E+02  0.45594000000E+02  0.51100000000E-03 0.  1.
         11   -1    0    0    0    0 -0.00000000000E+00 -0.00000000000E+00 -0.45593999997E+02  0.45594000000E+02  0.51100000000E-03 0. -1.
    9900012    2    1    2    0    0 -0.31234283675E+02  0.43659736530E+00  0.63991726708E+01  0.59301944979E+02  0.50000001735E+02 0.  0.
        -12    1    1    2    0    0  0.31234283675E+02 -0.43659736530E+00 -0.63991726708E+01  0.31886055021E+02  0.00000000000E+00 0.  1.
         11    1    3    3    0    0 -0.40565727853E+02 -0.58231931194E+01  0.13262508062E+02  0.43074145084E+02  0.51100000000E-03 0. -1.
        -11    1    3    3    0    0  0.31396841865E+00  0.34667887210E+01  0.13315160480E+01  0.37269472026E+01  0.51100000000E-03 0.  1.
         12    1    3    3    0    0  0.90174757598E+01  0.27930017638E+01 -0.81948514388E+01  0.12500852692E+02  0.00000000000E+00 0. -1.
</event>
<event>
 7    1  0.5761011E-013  0.5930184E+02  0.7816164E-02  0.1266605E+00
        -11   -1    0    0    0    0  0.00000000000E+00  0.00000000000E+00  0.45593999997E+02  0.45594000000E+02  0.51100000000E-03 0.  1.
         11   -1    0    0    0    0 -0.00000000000E+00 -0.00000000000E+00 -0.45593999997E+02  0.45594000000E+02  0.51100000000E-03 0. -1.
    9900012    2    1    2    0    0  0.17192029846E+02 -0.20608110277E+02 -0.17218213118E+02  0.59301843719E+02  0.49999817060E+02 0.  0.
        -12    1    1    2    0    0 -0.17192029846E+02  0.20608110277E+02  0.17218213118E+02  0.31886156281E+02  0.00000000000E+00 0.  1.
         11    1    3    3    0    0  0.97470902009E+01  0.97332294326E+01 -0.31430234759E+01  0.14128698433E+02  0.51100000000E-03 0. -1.
        -11    1    3    3    0    0 -0.11351437409E+02 -0.13373591371E+02 -0.69443917654E+01  0.18866177532E+02  0.51100000000E-03 0.  1.
         12    1    3    3    0    0  0.18796377054E+02 -0.16967748339E+02 -0.71307978769E+01  0.26306967754E+02  0.00000000000E+00 0. -1.
</event>
<event>
 7    1  0.5761011E-013  0.5930186E+02  0.7816164E-02  0.1266605E+00
        -11   -1    0    0    0    0  0.00000000000E+00  0.00000000000E+00  0.45593999997E+02  0.45594000000E+02  0.51100000000E-03 0. -1.
         11   -1    0    0    0    0 -0.00000000000E+00 -0.00000000000E+00 -0.45593999997E+02  0.45594000000E+02  0.51100000000E-03 0.  1.
    9900012    2    1    2    0    0 -0.13661531884E+02  0.87516239270E+01  0.27449907354E+02  0.59301862126E+02  0.49999850631E+02 0.  0.
        -12    1    1    2    0    0  0.13661531884E+02 -0.87516239270E+01 -0.27449907354E+02  0.31886137874E+02  0.00000000000E+00 0.  1.
         11    1    3    3    0    0  0.33452956979E+01 -0.12359484241E+02  0.15665334040E+02  0.20232413224E+02  0.51100000000E-03 0. -1.
        -11    1    3    3    0    0 -0.18996418456E+02  0.19456060123E+02  0.19315368893E+00  0.27192636839E+02  0.51100000000E-03 0.  1.
        -12    1    3    3    0    0  0.19895908745E+01  0.16550480450E+01  0.11591419624E+02  0.11876812063E+02  0.00000000000E+00 0.  1.
</event>
<event>
 7    1  0.5761011E-013  0.5930195E+02  0.7816164E-02  0.1266605E+00
        -11   -1    0    0    0    0  0.00000000000E+00  0.00000000000E+00  0.45593999997E+02  0.45594000000E+02  0.51100000000E-03 0. -1.
         11   -1    0    0    0    0 -0.00000000000E+00 -0.00000000000E+00 -0.45593999997E+02  0.45594000000E+02  0.51100000000E-03 0.  1.
    9900012    2    1    2    0    0 -0.10776614961E+02  0.28944046673E+02  0.79263583353E+01  0.59301946241E+02  0.50000004037E+02 0.  0.
        -12    1    1    2    0    0  0.10776614961E+02 -0.28944046673E+02 -0.79263583353E+01  0.31886053759E+02  0.00000000000E+00 0.  1.
         11    1    3    3    0    0 -0.54198665557E+01  0.55764637121E+01  0.21926855673E+02  0.23264971545E+02  0.51100000000E-03 0. -1.
        -11    1    3    3    0    0  0.66092874865E+01  0.92623215790E+01 -0.13332260060E+02  0.17527761999E+02  0.51100000000E-03 0.  1.
         12    1    3    3    0    0 -0.11966035892E+02  0.14105261382E+02 -0.66823727746E+00  0.18509212698E+02  0.00000000000E+00 0. -1.
</event>
<event>
 7    1  0.5761011E-013  0.5930201E+02  0.7816164E-02  0.1266605E+00
        -11   -1    0    0    0    0  0.00000000000E+00  0.00000000000E+00  0.45593999997E+02  0.45594000000E+02  0.51100000000E-03 0.  1.
         11   -1    0    0    0    0 -0.00000000000E+00 -0.00000000000E+00 -0.45593999997E+02  0.45594000000E+02  0.51100000000E-03 0. -1.
    9900012    2    1    2    0    0  0.13902234257E+01  0.15046061392E+02 -0.28078454979E+02  0.59302010622E+02  0.50000121452E+02 0.  0.
        -12    1    1    2    0    0 -0.13902234257E+01 -0.15046061392E+02  0.28078454979E+02  0.31885989378E+02  0.00000000000E+00 0.  1.
         11    1    3    3    0    0  0.19753482578E+02  0.88132045365E+00 -0.15643373122E+02  0.25212931655E+02  0.51100000000E-03 0.  1.
        -11    1    3    3    0    0 -0.20763538902E+02  0.44428894953E+01 -0.55826477685E+01  0.21955176410E+02  0.51100000000E-03 0. -1.
         12    1    3    3    0    0  0.24002797494E+01  0.97218514426E+01 -0.68524340886E+01  0.12133902558E+02  0.00000000000E+00 0. -1.
</event>
<event>
 7    1  0.5985547E-013  0.5930190E+02  0.7816164E-02  0.1266605E+00
        -11   -1    0    0    0    0  0.00000000000E+00  0.00000000000E+00  0.45593999997E+02  0.45594000000E+02  0.51100000000E-03 0.  1.
         11   -1    0    0    0    0 -0.00000000000E+00 -0.00000000000E+00 -0.45593999997E+02  0.45594000000E+02  0.51100000000E-03 0. -1.
    9900012    2    1    2    0    0 -0.28413530750E+02  0.49601921877E+00 -0.14461963927E+02  0.59301903260E+02  0.49999925649E+02 0.  0.
        -12    1    1    2    0    0  0.28413530750E+02 -0.49601921877E+00  0.14461963927E+02  0.31886096740E+02  0.00000000000E+00 0.  1.
         11    1    3    3    0    0 -0.22248373983E+02 -0.12819266935E+02 -0.15601868410E+02  0.30045666040E+02  0.51100000000E-03 0. -1.
        -11    1    3    3    0    0 -0.11742623808E+02  0.10470081518E+02  0.98258346799E+01  0.18548823367E+02  0.51100000000E-03 0.  1.
         12    1    3    3    0    0  0.55774670419E+01  0.28452046353E+01 -0.86859301964E+01  0.10707413852E+02  0.00000000000E+00 0. -1.
</event>
<event>
 7    1  0.5761011E-013  0.5930196E+02  0.7816164E-02  0.1266605E+00
        -11   -1    0    0    0    0  0.00000000000E+00  0.00000000000E+00  0.45593999997E+02  0.45594000000E+02  0.51100000000E-03 0. -1.
         11   -1    0    0    0    0 -0.00000000000E+00 -0.00000000000E+00 -0.45593999997E+02  0.45594000000E+02  0.51100000000E-03 0.  1.
    9900012    2    1    2    0    0 -0.18977555583E+02 -0.28348084825E+01  0.25466370351E+02  0.59301956441E+02  0.50000022638E+02 0.  0.
        -12    1    1    2    0    0  0.18977555583E+02  0.28348084825E+01 -0.25466370351E+02  0.31886043559E+02  0.00000000000E+00 0.  1.
         11    1    3    3    0    0 -0.10883959948E+02 -0.19671327382E+01  0.21089059192E+02  0.23813412464E+02  0.51100000000E-03 0. -1.
        -11    1    3    3    0    0  0.12388794835E+02  0.52181888721E+01 -0.91978844132E+00  0.13474336481E+02  0.51100000000E-03 0.  1.
        -12    1    3    3    0    0 -0.20482390469E+02 -0.60858646164E+01  0.52970996005E+01  0.22014207495E+02  0.00000000000E+00 0.  1.
</event>
<event>
 7    1  0.5761011E-013  0.5930194E+02  0.7816164E-02  0.1266605E+00
        -11   -1    0    0    0    0  0.00000000000E+00  0.00000000000E+00  0.45593999997E+02  0.45594000000E+02  0.51100000000E-03 0.  1.
         11   -1    0    0    0    0 -0.00000000000E+00 -0.00000000000E+00 -0.45593999997E+02  0.45594000000E+02  0.51100000000E-03 0. -1.
    9900012    2    1    2    0    0 -0.14338600310E+02  0.26355261058E+02 -0.10794697362E+02  0.59301941362E+02  0.49999995139E+02 0.  0.
        -12    1    1    2    0    0  0.14338600310E+02 -0.26355261058E+02  0.10794697362E+02  0.31886058638E+02  0.00000000000E+00 0.  1.
         11    1    3    3    0    0 -0.23995040588E+01  0.32616819030E+02 -0.16227552525E+02  0.36509559907E+02  0.51100000000E-03 0. -1.
        -11    1    3    3    0    0 -0.20486390707E+01 -0.19444570885E+01  0.10497916942E+02  0.10871250884E+02  0.51100000000E-03 0.  1.
        -12    1    3    3    0    0 -0.98904571806E+01 -0.43171008829E+01 -0.50650617788E+01  0.11921130571E+02  0.00000000000E+00 0.  1.
</event>
<event>
 7    1  0.5761011E-013  0.5930195E+02  0.7816164E-02  0.1266605E+00
        -11   -1    0    0    0    0  0.00000000000E+00  0.00000000000E+00  0.45593999997E+02  0.45594000000E+02  0.51100000000E-03 0.  1.
         11   -1    0    0    0    0 -0.00000000000E+00 -0.00000000000E+00 -0.45593999997E+02  0.45594000000E+02  0.51100000000E-03 0. -1.
    9900012    2    1    2    0    0  0.14483364317E+02  0.28157938768E+02 -0.37526971347E+01  0.59301951430E+02  0.50000013500E+02 0.  0.
        -12    1    1    2    0    0 -0.14483364317E+02 -0.28157938768E+02  0.37526971347E+01  0.31886048570E+02  0.00000000000E+00 0.  1.
         11    1    3    3    0    0  0.19181145565E+02  0.29854476317E+02  0.11776324831E+02  0.37388339467E+02  0.51100000000E-03 0. -1.
        -11    1    3    3    0    0 -0.13036068572E+01  0.27273984747E+01 -0.16032446867E+02  0.16314945482E+02  0.51100000000E-03 0.  1.
         12    1    3    3    0    0 -0.33941743908E+01 -0.44239360235E+01  0.50342490139E+00  0.55986664811E+01  0.00000000000E+00 0. -1.
</event>
<event>
 7    1  0.5761011E-013  0.5930195E+02  0.7816164E-02  0.1266605E+00
        -11   -1    0    0    0    0  0.00000000000E+00  0.00000000000E+00  0.45593999997E+02  0.45594000000E+02  0.51100000000E-03 0. -1.
         11   -1    0    0    0    0 -0.00000000000E+00 -0.00000000000E+00 -0.45593999997E+02  0.45594000000E+02  0.51100000000E-03 0.  1.
    9900012    2    1    2    0    0 -0.97954347666E+01  0.25403699572E+02  0.16595832293E+02  0.59301950642E+02  0.50000012062E+02 0.  0.
        -12    1    1    2    0    0  0.97954347666E+01 -0.25403699572E+02 -0.16595832293E+02  0.31886049358E+02  0.00000000000E+00 0.  1.
         11    1    3    3    0    0 -0.13649333850E+02  0.21999430667E+02 -0.31827311422E+01  0.26084651464E+02  0.51100000000E-03 0. -1.
        -11    1    3    3    0    0 -0.44643618235E+01 -0.91514335595E+01  0.28815360085E+01  0.10582179015E+02  0.51100000000E-03 0.  1.
         12    1    3    3    0    0  0.83182609074E+01  0.12555702465E+02  0.16897027426E+02  0.22635120162E+02  0.00000000000E+00 0. -1.
</event>
<event>
 7    1  0.5761011E-013  0.5930193E+02  0.7816164E-02  0.1266605E+00
        -11   -1    0    0    0    0  0.00000000000E+00  0.00000000000E+00  0.45593999997E+02  0.45594000000E+02  0.51100000000E-03 0.  1.
         11   -1    0    0    0    0 -0.00000000000E+00 -0.00000000000E+00 -0.45593999997E+02  0.45594000000E+02  0.51100000000E-03 0. -1.
    9900012    2    1    2    0    0  0.60767629015E+01  0.23510930399E+02 -0.20664711228E+02  0.59301934302E+02  0.49999982262E+02 0.  0.
        -12    1    1    2    0    0 -0.60767629015E+01 -0.23510930399E+02  0.20664711228E+02  0.31886065698E+02  0.00000000000E+00 0.  1.
         11    1    3    3    0    0  0.47657173281E+00  0.99959389173E+01 -0.23226481874E+02  0.25290618339E+02  0.51100000000E-03 0. -1.
        -11    1    3    3    0    0  0.62503303623E+01  0.23277685892E+02  0.11931462206E+01  0.24131740267E+02  0.51100000000E-03 0.  1.
        -12    1    3    3    0    0 -0.65013919358E+00 -0.97626944101E+01  0.13686244259E+01  0.98795756961E+01  0.00000000000E+00 0.  1.
</event>
<event>
 7    1  0.5761011E-013  0.5930194E+02  0.7816164E-02  0.1266605E+00
        -11   -1    0    0    0    0  0.00000000000E+00  0.00000000000E+00  0.45593999997E+02  0.45594000000E+02  0.51100000000E-03 0. -1.
         11   -1    0    0    0    0 -0.00000000000E+00 -0.00000000000E+00 -0.45593999997E+02  0.45594000000E+02  0.51100000000E-03 0.  1.
    9900012    2    1    2    0    0 -0.28485190049E+02 -0.73249934244E+01 -0.12315006477E+02  0.59301937758E+02  0.49999988565E+02 0.  0.
        -12    1    1    2    0    0  0.28485190049E+02  0.73249934244E+01  0.12315006477E+02  0.31886062242E+02  0.00000000000E+00 0.  1.
         11    1    3    3    0    0 -0.26994895633E+02  0.24379314799E+01 -0.21482978619E+02  0.34585925906E+02  0.51100000000E-03 0. -1.
        -11    1    3    3    0    0  0.21059343739E+01 -0.75775341449E+01 -0.54080495648E+01  0.95446835286E+01  0.51100000000E-03 0.  1.
         12    1    3    3    0    0 -0.35962287895E+01 -0.21853907593E+01  0.14576021707E+02  0.15171328323E+02  0.00000000000E+00 0. -1.
</event>
<event>
 7    1  0.5761011E-013  0.5930194E+02  0.7816164E-02  0.1266605E+00
        -11   -1    0    0    0    0  0.00000000000E+00  0.00000000000E+00  0.45593999997E+02  0.45594000000E+02  0.51100000000E-03 0. -1.
         11   -1    0    0    0    0 -0.00000000000E+00 -0.00000000000E+00 -0.45593999997E+02  0.45594000000E+02  0.51100000000E-03 0.  1.
    9900012    2    1    2    0    0 -0.31325948525E+02 -0.59071477062E+01  0.71520135137E+00  0.59301937873E+02  0.49999988775E+02 0.  0.
        -12    1    1    2    0    0  0.31325948525E+02  0.59071477062E+01 -0.71520135137E+00  0.31886062127E+02  0.00000000000E+00 0.  1.
         11    1    3    3    0    0 -0.27858342393E+02 -0.92313473909E+01  0.18727921564E+02  0.34814365741E+02  0.51100000000E-03 0. -1.
        -11    1    3    3    0    0  0.30353175546E+01 -0.45291191086E+01 -0.26828282992E+01  0.60764825764E+01  0.51100000000E-03 0.  1.
         12    1    3    3    0    0 -0.65029236863E+01  0.78533187933E+01 -0.15329891914E+02  0.18411089556E+02  0.00000000000E+00 0. -1.
</event>
<event>
 7    1  0.5761011E-013  0.5930196E+02  0.7816164E-02  0.1266605E+00
        -11   -1    0    0    0    0  0.00000000000E+00  0.00000000000E+00  0.45593999997E+02  0.45594000000E+02  0.51100000000E-03 0.  1.
         11   -1    0    0    0    0 -0.00000000000E+00 -0.00000000000E+00 -0.45593999997E+02  0.45594000000E+02  0.51100000000E-03 0. -1.
    9900012    2    1    2    0    0 -0.98260422436E+01  0.15533400905E+02 -0.26055363335E+02  0.59301959036E+02  0.50000027372E+02 0.  0.
        -12    1    1    2    0    0  0.98260422436E+01 -0.15533400905E+02  0.26055363335E+02  0.31886040964E+02  0.00000000000E+00 0.  1.
         11    1    3    3    0    0 -0.98011652815E+01 -0.87315033666E+01  0.21880052765E+01  0.13307492599E+02  0.51100000000E-03 0. -1.
        -11    1    3    3    0    0 -0.34981546431E+01  0.21579767893E+02 -0.32959874480E+02  0.39550939233E+02  0.51100000000E-03 0.  1.
        -12    1    3    3    0    0  0.34732776809E+01  0.26851363781E+01  0.47165058688E+01  0.64435272039E+01  0.00000000000E+00 0.  1.
</event>
<event>
 7    1  0.5761011E-013  0.5930195E+02  0.7816164E-02  0.1266605E+00
        -11   -1    0    0    0    0  0.00000000000E+00  0.00000000000E+00  0.45593999997E+02  0.45594000000E+02  0.51100000000E-03 0.  1.
         11   -1    0    0    0    0 -0.00000000000E+00 -0.00000000000E+00 -0.45593999997E+02  0.45594000000E+02  0.51100000000E-03 0. -1.
    9900012    2    1    2    0    0  0.73247757598E+01 -0.24944168234E+02 -0.18462285945E+02  0.59301954915E+02  0.50000019857E+02 0.  0.
        -12    1    1    2    0    0 -0.73247757598E+01  0.24944168234E+02  0.18462285945E+02  0.31886045085E+02  0.00000000000E+00 0.  1.
         11    1    3    3    0    0  0.11281669736E+02 -0.22691416054E+02 -0.19396721258E+02  0.31912524663E+02  0.51100000000E-03 0. -1.
        -11    1    3    3    0    0 -0.12832704499E+02  0.20438739262E+01  0.79988566808E+01  0.15259011562E+02  0.51100000000E-03 0.  1.
        -12    1    3    3    0    0  0.88758105228E+01 -0.42966261061E+01 -0.70644213683E+01  0.12130418690E+02  0.00000000000E+00 0.  1.
</event>
<event>
 7    1  0.5761011E-013  0.5930198E+02  0.7816164E-02  0.1266605E+00
        -11   -1    0    0    0    0  0.00000000000E+00  0.00000000000E+00  0.45593999997E+02  0.45594000000E+02  0.51100000000E-03 0.  1.
         11   -1    0    0    0    0 -0.00000000000E+00 -0.00000000000E+00 -0.45593999997E+02  0.45594000000E+02  0.51100000000E-03 0. -1.
    9900012    2    1    2    0    0 -0.84978786677E+01  0.21231611268E+02 -0.22219872815E+02  0.59301984150E+02  0.50000073173E+02 0.  0.
        -12    1    1    2    0    0  0.84978786677E+01 -0.21231611268E+02  0.22219872815E+02  0.31886015850E+02  0.00000000000E+00 0.  1.
         11    1    3    3    0    0 -0.23020786594E+01  0.12581584056E+02 -0.85997992148E+01  0.15412734031E+02  0.51100000000E-03 0. -1.
        -11    1    3    3    0    0  0.39394642686E+01 -0.60652089982E+01  0.11184536811E+02  0.13319159240E+02  0.51100000000E-03 0.  1.
        -12    1    3    3    0    0 -0.10135264277E+02  0.14715236210E+02 -0.24804610411E+02  0.30570090879E+02  0.00000000000E+00 0.  1.
</event>
<event>
 7    1  0.5761011E-013  0.5930195E+02  0.7816164E-02  0.1266605E+00
        -11   -1    0    0    0    0  0.00000000000E+00  0.00000000000E+00  0.45593999997E+02  0.45594000000E+02  0.51100000000E-03 0. -1.
         11   -1    0    0    0    0 -0.00000000000E+00 -0.00000000000E+00 -0.45593999997E+02  0.45594000000E+02  0.51100000000E-03 0.  1.
    9900012    2    1    2    0    0  0.21716805880E+02 -0.85042338850E+01  0.21743473760E+02  0.59301948147E+02  0.50000007513E+02 0.  0.
        -12    1    1    2    0    0 -0.21716805880E+02  0.85042338850E+01 -0.21743473760E+02  0.31886051853E+02  0.00000000000E+00 0.  1.
         11    1    3    3    0    0  0.31201118284E+02 -0.95717644655E+00  0.29258681107E+02  0.42784300734E+02  0.51100000000E-03 0. -1.
        -11    1    3    3    0    0 -0.20378381025E+01 -0.55715327214E+01 -0.26488241734E+00  0.59384277342E+01  0.51100000000E-03 0.  1.
         12    1    3    3    0    0 -0.74464743014E+01 -0.19755247171E+01 -0.72503249299E+01  0.10579219679E+02  0.00000000000E+00 0. -1.
</event>
<event>
 7    1  0.5761011E-013  0.5930196E+02  0.7816164E-02  0.1266605E+00
        -11   -1    0    0    0    0  0.00000000000E+00  0.00000000000E+00  0.45593999997E+02  0.45594000000E+02  0.51100000000E-03 0.  1.
         11   -1    0    0    0    0 -0.00000000000E+00 -0.00000000000E+00 -0.45593999997E+02  0.45594000000E+02  0.51100000000E-03 0. -1.
    9900012    2    1    2    0    0  0.11540220985E+02  0.29069877985E+02 -0.62036216204E+01  0.59301961870E+02  0.50000032539E+02 0.  0.
        -12    1    1    2    0    0 -0.11540220985E+02 -0.29069877985E+02  0.62036216204E+01  0.31886038130E+02  0.00000000000E+00 0.  1.
         11    1    3    3    0    0 -0.13202036574E+02  0.81102170581E+01 -0.27164054666E+01  0.15730487893E+02  0.51100000000E-03 0. -1.
        -11    1    3    3    0    0  0.11302614598E+02 -0.63712281495E+01 -0.94645789907E+00  0.13009128629E+02  0.51100000000E-03 0.  1.
        -12    1    3    3    0    0  0.13439642962E+02  0.27330889076E+02 -0.25407582547E+01  0.30562345348E+02  0.00000000000E+00 0.  1.
</event>
<event>
 7    1  0.5761011E-013  0.5930195E+02  0.7816164E-02  0.1266605E+00
        -11   -1    0    0    0    0  0.00000000000E+00  0.00000000000E+00  0.45593999997E+02  0.45594000000E+02  0.51100000000E-03 0.  1.
         11   -1    0    0    0    0 -0.00000000000E+00 -0.00000000000E+00 -0.45593999997E+02  0.45594000000E+02  0.51100000000E-03 0. -1.
    9900012    2    1    2    0    0  0.27157845611E+02 -0.93103422876E+00 -0.16682477589E+02  0.59301945658E+02  0.50000002974E+02 0.  0.
        -12    1    1    2    0    0 -0.27157845611E+02  0.93103422876E+00  0.16682477589E+02  0.31886054342E+02  0.00000000000E+00 0.  1.
         11    1    3    3    0    0  0.22164786785E+02 -0.28212911694E+01  0.67833842953E+01  0.23350626540E+02  0.51100000000E-03 0. -1.
        -11    1    3    3    0    0 -0.52634765021E+01 -0.51188523404E+01 -0.22295823108E+02  0.23473614176E+02  0.51100000000E-03 0.  1.
        -12    1    3    3    0    0  0.10256535329E+02  0.70091092810E+01 -0.11700387759E+01  0.12477704941E+02  0.00000000000E+00 0.  1.
</event>
<event>
 7    1  0.5761011E-013  0.5930192E+02  0.7816164E-02  0.1266605E+00
        -11   -1    0    0    0    0  0.00000000000E+00  0.00000000000E+00  0.45593999997E+02  0.45594000000E+02  0.51100000000E-03 0.  1.
         11   -1    0    0    0    0 -0.00000000000E+00 -0.00000000000E+00 -0.45593999997E+02  0.45594000000E+02  0.51100000000E-03 0. -1.
    9900012    2    1    2    0    0  0.60589752863E+01  0.30573773530E+02 -0.67272243853E+01  0.59301915930E+02  0.49999948757E+02 0.  0.
        -12    1    1    2    0    0 -0.60589752863E+01 -0.30573773530E+02  0.67272243853E+01  0.31886084070E+02  0.00000000000E+00 0.  1.
         11    1    3    3    0    0 -0.13471427930E+01 -0.10322952090E+02  0.22745845049E+01  0.10656071907E+02  0.51100000000E-03 0.  1.
        -11    1    3    3    0    0  0.97067171469E+01  0.41481928534E+02 -0.12517855593E+02  0.44403462270E+02  0.51100000000E-03 0. -1.
         12    1    3    3    0    0 -0.23005990676E+01 -0.58520291444E+00  0.35160467033E+01  0.42423817533E+01  0.00000000000E+00 0. -1.
</event>
<event>
 7    1  0.5761011E-013  0.5930191E+02  0.7816164E-02  0.1266605E+00
        -11   -1    0    0    0    0  0.00000000000E+00  0.00000000000E+00  0.45593999997E+02  0.45594000000E+02  0.51100000000E-03 0. -1.
         11   -1    0    0    0    0 -0.00000000000E+00 -0.00000000000E+00 -0.45593999997E+02  0.45594000000E+02  0.51100000000E-03 0.  1.
    9900012    2    1    2    0    0  0.24632799999E+02  0.11645683214E+02  0.16562786424E+02  0.59301911067E+02  0.49999939887E+02 0.  0.
        -12    1    1    2    0    0 -0.24632799999E+02 -0.11645683214E+02 -0.16562786424E+02  0.31886088933E+02  0.00000000000E+00 0.  1.
         11    1    3    3    0    0 -0.30563404309E+01  0.23807166596E+02  0.15180104603E+02  0.28399964334E+02  0.51100000000E-03 0. -1.
        -11    1    3    3    0    0  0.15814891653E+02 -0.40138770915E+01  0.22721899303E+01  0.16473762613E+02  0.51100000000E-03 0.  1.
         12    1    3    3    0    0  0.11874248777E+02 -0.81476062909E+01 -0.88950810925E+00  0.14428184119E+02  0.00000000000E+00 0. -1.
</event>
<event>
 7    1  0.5761011E-013  0.5930195E+02  0.7816164E-02  0.1266605E+00
        -11   -1    0    0    0    0  0.00000000000E+00  0.00000000000E+00  0.45593999997E+02  0.45594000000E+02  0.51100000000E-03 0.  1.
         11   -1    0    0    0    0 -0.00000000000E+00 -0.00000000000E+00 -0.45593999997E+02  0.45594000000E+02  0.51100000000E-03 0. -1.
    9900012    2    1    2    0    0  0.46356782033E+01  0.47951149813E+01 -0.31180724260E+02  0.59301949673E+02  0.50000010295E+02 0.  0.
        -12    1    1    2    0    0 -0.46356782033E+01 -0.47951149813E+01  0.31180724260E+02  0.31886050327E+02  0.00000000000E+00 0.  1.
         11    1    3    3    0    0  0.37133760946E+01 -0.10252288723E+02 -0.16266886913E+02  0.19583416356E+02  0.51100000000E-03 0. -1.
        -11    1    3    3    0    0 -0.12768517798E+02  0.16682438672E+02 -0.15195367018E+02  0.25927552640E+02  0.51100000000E-03 0.  1.
        -12    1    3    3    0    0  0.13690819907E+02 -0.16350349685E+01  0.28152967043E+00  0.13790980677E+02  0.00000000000E+00 0.  1.
</event>
<event>
 7    1  0.5761011E-013  0.5930201E+02  0.7816164E-02  0.1266605E+00
        -11   -1    0    0    0    0  0.00000000000E+00  0.00000000000E+00  0.45593999997E+02  0.45594000000E+02  0.51100000000E-03 0.  1.
         11   -1    0    0    0    0 -0.00000000000E+00 -0.00000000000E+00 -0.45593999997E+02  0.45594000000E+02  0.51100000000E-03 0. -1.
    9900012    2    1    2    0    0  0.26509400585E+02  0.59381333265E+00 -0.17709198236E+02  0.59302005648E+02  0.50000112381E+02 0.  0.
        -12    1    1    2    0    0 -0.26509400585E+02 -0.59381333265E+00  0.17709198236E+02  0.31885994352E+02  0.00000000000E+00 0.  1.
         11    1    3    3    0    0  0.29723231606E+02  0.36443236606E+01 -0.96657183711E+01  0.31467089219E+02  0.51100000000E-03 0. -1.
        -11    1    3    3    0    0 -0.11199413918E+02  0.79191062470E+00  0.48167522579E+01  0.12217000332E+02  0.51100000000E-03 0.  1.
        -12    1    3    3    0    0  0.79855828961E+01 -0.38424209526E+01 -0.12860232123E+02  0.15617916097E+02  0.00000000000E+00 0.  1.
</event>
<event>
 7    1  0.5761011E-013  0.5930194E+02  0.7816164E-02  0.1266605E+00
        -11   -1    0    0    0    0  0.00000000000E+00  0.00000000000E+00  0.45593999997E+02  0.45594000000E+02  0.51100000000E-03 0. -1.
         11   -1    0    0    0    0 -0.00000000000E+00 -0.00000000000E+00 -0.45593999997E+02  0.45594000000E+02  0.51100000000E-03 0.  1.
    9900012    2    1    2    0    0  0.24044147857E+02 -0.20666985767E+02  0.33875489902E+01  0.59301939801E+02  0.49999992291E+02 0.  0.
        -12    1    1    2    0    0 -0.24044147857E+02  0.20666985767E+02 -0.33875489902E+01  0.31886060199E+02  0.00000000000E+00 0.  1.
         11    1    3    3    0    0  0.10023534457E+02 -0.22934483569E+01 -0.34772053653E+01  0.10854589158E+02  0.51100000000E-03 0. -1.
        -11    1    3    3    0    0  0.31770492689E+00 -0.23898648214E+02  0.18021258027E+02  0.29933460609E+02  0.51100000000E-03 0.  1.
        -12    1    3    3    0    0  0.13702908473E+02  0.55251108039E+01 -0.11156503671E+02  0.18513890034E+02  0.00000000000E+00 0.  1.
</event>
<event>
 7    1  0.5761011E-013  0.5930192E+02  0.7816164E-02  0.1266605E+00
        -11   -1    0    0    0    0  0.00000000000E+00  0.00000000000E+00  0.45593999997E+02  0.45594000000E+02  0.51100000000E-03 0. -1.
         11   -1    0    0    0    0 -0.00000000000E+00 -0.00000000000E+00 -0.45593999997E+02  0.45594000000E+02  0.51100000000E-03 0.  1.
    9900012    2    1    2    0    0  0.16501818693E+02 -0.20517051407E+01  0.27206658733E+02  0.59301924770E+02  0.49999964879E+02 0.  0.
        -12    1    1    2    0    0 -0.16501818693E+02  0.20517051407E+01 -0.27206658733E+02  0.31886075230E+02  0.00000000000E+00 0.  1.
         11    1    3    3    0    0 -0.41864665429E+01  0.20344663201E+01  0.18058564868E+02  0.18648788718E+02  0.51100000000E-03 0. -1.
        -11    1    3    3    0    0  0.28678977231E+02 -0.87978371993E+01  0.91982370900E+01  0.31376635260E+02  0.51100000000E-03 0.  1.
        -12    1    3    3    0    0 -0.79906919956E+01  0.47116657385E+01 -0.50143224736E-01  0.92765007919E+01  0.00000000000E+00 0.  1.
</event>
<event>
 7    1  0.5761011E-013  0.5930195E+02  0.7816164E-02  0.1266605E+00
        -11   -1    0    0    0    0  0.00000000000E+00  0.00000000000E+00  0.45593999997E+02  0.45594000000E+02  0.51100000000E-03 0.  1.
         11   -1    0    0    0    0 -0.00000000000E+00 -0.00000000000E+00 -0.45593999997E+02  0.45594000000E+02  0.51100000000E-03 0. -1.
    9900012    2    1    2    0    0 -0.13522054871E+02 -0.17837188307E+02  0.22709224295E+02  0.59301950971E+02  0.50000012662E+02 0.  0.
        -12    1    1    2    0    0  0.13522054871E+02  0.17837188307E+02 -0.22709224295E+02  0.31886049029E+02  0.00000000000E+00 0.  1.
         11    1    3    3    0    0 -0.54644136790E+01  0.69649002195E+01 -0.34392188092E+01  0.94972563512E+01  0.51100000000E-03 0. -1.
        -11    1    3    3    0    0 -0.12004684295E+02 -0.30833819907E+02  0.14544034386E+02  0.36143683149E+02  0.51100000000E-03 0.  1.
        -12    1    3    3    0    0  0.39470431028E+01  0.60317313804E+01  0.11604408718E+02  0.13661011471E+02  0.00000000000E+00 0.  1.
</event>
<event>
 7    1  0.5761011E-013  0.5930194E+02  0.7816164E-02  0.1266605E+00
        -11   -1    0    0    0    0  0.00000000000E+00  0.00000000000E+00  0.45593999997E+02  0.45594000000E+02  0.51100000000E-03 0.  1.
         11   -1    0    0    0    0 -0.00000000000E+00 -0.00000000000E+00 -0.45593999997E+02  0.45594000000E+02  0.51100000000E-03 0. -1.
    9900012    2    1    2    0    0  0.13712914433E+02 -0.67791135149E+01 -0.27977137132E+02  0.59301943417E+02  0.49999998887E+02 0.  0.
        -12    1    1    2    0    0 -0.13712914433E+02  0.67791135149E+01  0.27977137132E+02  0.31886056583E+02  0.00000000000E+00 0.  1.
         11    1    3    3    0    0 -0.46649438992E+01 -0.20143342380E+02 -0.17534880570E+02  0.27110661753E+02  0.51100000000E-03 0. -1.
        -11    1    3    3    0    0  0.15512430122E+02  0.17239193743E+02 -0.13153566840E+02  0.26661613043E+02  0.51100000000E-03 0.  1.
        -12    1    3    3    0    0  0.28654282110E+01 -0.38749648775E+01  0.27113102787E+01  0.55296686214E+01  0.00000000000E+00 0.  1.
</event>
<event>
 7    1  0.5761011E-013  0.5930194E+02  0.7816164E-02  0.1266605E+00
        -11   -1    0    0    0    0  0.00000000000E+00  0.00000000000E+00  0.45593999997E+02  0.45594000000E+02  0.51100000000E-03 0.  1.
         11   -1    0    0    0    0 -0.00000000000E+00 -0.00000000000E+00 -0.45593999997E+02  0.45594000000E+02  0.51100000000E-03 0. -1.
    9900012    2    1    2    0    0  0.22035409984E+02  0.18080806698E+02 -0.14291456345E+02  0.59301943667E+02  0.49999999342E+02 0.  0.
        -12    1    1    2    0    0 -0.22035409984E+02 -0.18080806698E+02  0.14291456345E+02  0.31886056333E+02  0.00000000000E+00 0.  1.
         11    1    3    3    0    0  0.16167288147E+02  0.17568762293E+01  0.10662257859E+02  0.19446119485E+02  0.51100000000E-03 0. -1.
        -11    1    3    3    0    0 -0.10151302965E+02  0.82029282890E+01 -0.92315502956E+01  0.15986197344E+02  0.51100000000E-03 0.  1.
         12    1    3    3    0    0  0.16019424802E+02  0.81210021798E+01 -0.15722163908E+02  0.23869626837E+02  0.00000000000E+00 0. -1.
</event>
<event>
 7    1  0.5761011E-013  0.5930197E+02  0.7816164E-02  0.1266605E+00
        -11   -1    0    0    0    0  0.00000000000E+00  0.00000000000E+00  0.45593999997E+02  0.45594000000E+02  0.51100000000E-03 0.  1.
         11   -1    0    0    0    0 -0.00000000000E+00 -0.00000000000E+00 -0.45593999997E+02  0.45594000000E+02  0.51100000000E-03 0. -1.
    9900012    2    1    2    0    0  0.17636469049E+02  0.63346297774E+01 -0.25798190345E+02  0.59301965439E+02  0.50000039050E+02 0.  0.
        -12    1    1    2    0    0 -0.17636469049E+02 -0.63346297774E+01  0.25798190345E+02  0.31886034561E+02  0.00000000000E+00 0.  1.
         11    1    3    3    0    0  0.29422829017E+02  0.61575530669E+00 -0.27815124034E+02  0.40493989026E+02  0.51100000000E-03 0. -1.
        -11    1    3    3    0    0 -0.46208255748E+01 -0.17693824494E+01  0.59356955046E+01  0.77275626578E+01  0.51100000000E-03 0.  1.
         12    1    3    3    0    0 -0.71655343925E+01  0.74882569201E+01 -0.39187618152E+01  0.11080413756E+02  0.00000000000E+00 0. -1.
</event>
<event>
 7    1  0.5761011E-013  0.5930194E+02  0.7816164E-02  0.1266605E+00
        -11   -1    0    0    0    0  0.00000000000E+00  0.00000000000E+00  0.45593999997E+02  0.45594000000E+02  0.51100000000E-03 0. -1.
         11   -1    0    0    0    0 -0.00000000000E+00 -0.00000000000E+00 -0.45593999997E+02  0.45594000000E+02  0.51100000000E-03 0.  1.
    9900012    2    1    2    0    0  0.15168440256E+02  0.65919737187E+01  0.27261425082E+02  0.59301937295E+02  0.49999987722E+02 0.  0.
        -12    1    1    2    0    0 -0.15168440256E+02 -0.65919737187E+01 -0.27261425082E+02  0.31886062705E+02  0.00000000000E+00 0.  1.
         11    1    3    3    0    0  0.11467914181E+02 -0.21603726172E+01  0.93275970884E+01  0.14939355181E+02  0.51100000000E-03 0. -1.
        -11    1    3    3    0    0 -0.63616924279E+01 -0.10951508104E+02 -0.39267389717E+01  0.13259937387E+02  0.51100000000E-03 0.  1.
        -12    1    3    3    0    0  0.10062218503E+02  0.19703854440E+02  0.21860566965E+02  0.31102644727E+02  0.00000000000E+00 0.  1.
</event>
<event>
 7    1  0.5761011E-013  0.5930196E+02  0.7816164E-02  0.1266605E+00
        -11   -1    0    0    0    0  0.00000000000E+00  0.00000000000E+00  0.45593999997E+02  0.45594000000E+02  0.51100000000E-03 0. -1.
         11   -1    0    0    0    0 -0.00000000000E+00 -0.00000000000E+00 -0.45593999997E+02  0.45594000000E+02  0.51100000000E-03 0.  1.
    9900012    2    1    2    0    0  0.83267995728E+01 -0.30381210149E+02 -0.49361906331E+01  0.59301960747E+02  0.50000030493E+02 0.  0.
        -12    1    1    2    0    0 -0.83267995728E+01  0.30381210149E+02  0.49361906331E+01  0.31886039253E+02  0.00000000000E+00 0.  1.
         11    1    3    3    0    0  0.13403653663E+02 -0.77351441386E+01  0.14724205572E+02  0.21361006914E+02  0.51100000000E-03 0. -1.
        -11    1    3    3    0    0 -0.77932268169E+01 -0.11320874597E+01 -0.13101214336E+02  0.15285870063E+02  0.51100000000E-03 0.  1.
         12    1    3    3    0    0  0.27163727262E+01 -0.21513978551E+02 -0.65591818688E+01  0.22655083771E+02  0.00000000000E+00 0. -1.
</event>
<event>
 7    1  0.5761011E-013  0.5930194E+02  0.7816164E-02  0.1266605E+00
        -11   -1    0    0    0    0  0.00000000000E+00  0.00000000000E+00  0.45593999997E+02  0.45594000000E+02  0.51100000000E-03 0.  1.
         11   -1    0    0    0    0 -0.00000000000E+00 -0.00000000000E+00 -0.45593999997E+02  0.45594000000E+02  0.51100000000E-03 0. -1.
    9900012    2    1    2    0    0 -0.20392389086E+02 -0.48638281774E+01 -0.24025286884E+02  0.59301940867E+02  0.49999994235E+02 0.  0.
        -12    1    1    2    0    0  0.20392389086E+02  0.48638281774E+01  0.24025286884E+02  0.31886059133E+02  0.00000000000E+00 0.  1.
         11    1    3    3    0    0 -0.15794677695E+02 -0.98880499177E+01 -0.25076932896E+02  0.31242566131E+02  0.51100000000E-03 0. -1.
        -11    1    3    3    0    0  0.83551710374E+01  0.86742386471E+01  0.63276026306E+01  0.13604773224E+02  0.51100000000E-03 0.  1.
        -12    1    3    3    0    0 -0.12952882428E+02 -0.36500169068E+01 -0.52759566186E+01  0.14454601512E+02  0.00000000000E+00 0.  1.
</event>
<event>
 7    1  0.5761011E-013  0.5930192E+02  0.7816164E-02  0.1266605E+00
        -11   -1    0    0    0    0  0.00000000000E+00  0.00000000000E+00  0.45593999997E+02  0.45594000000E+02  0.51100000000E-03 0.  1.
         11   -1    0    0    0    0 -0.00000000000E+00 -0.00000000000E+00 -0.45593999997E+02  0.45594000000E+02  0.51100000000E-03 0. -1.
    9900012    2    1    2    0    0 -0.13531672835E+02  0.28720007666E+02  0.29625988801E+01  0.59301921499E+02  0.49999958913E+02 0.  0.
        -12    1    1    2    0    0  0.13531672835E+02 -0.28720007666E+02 -0.29625988801E+01  0.31886078501E+02  0.00000000000E+00 0.  1.
         11    1    3    3    0    0  0.14239178112E+02  0.19523695640E+02 -0.30298628816E+01  0.24353828325E+02  0.51100000000E-03 0. -1.
        -11    1    3    3    0    0 -0.26223197223E+02  0.22837788860E+01  0.11120131733E+01  0.26345935022E+02  0.51100000000E-03 0.  1.
        -12    1    3    3    0    0 -0.15476537234E+01  0.69125331393E+01  0.48804485884E+01  0.86021581521E+01  0.00000000000E+00 0.  1.
</event>
<event>
 7    1  0.5761011E-013  0.5930194E+02  0.7816164E-02  0.1266605E+00
        -11   -1    0    0    0    0  0.00000000000E+00  0.00000000000E+00  0.45593999997E+02  0.45594000000E+02  0.51100000000E-03 0. -1.
         11   -1    0    0    0    0 -0.00000000000E+00 -0.00000000000E+00 -0.45593999997E+02  0.45594000000E+02  0.51100000000E-03 0.  1.
    9900012    2    1    2    0    0  0.14957950462E+02  0.56338730587E+01  0.27590578443E+02  0.59301939935E+02  0.49999992535E+02 0.  0.
        -12    1    1    2    0    0 -0.14957950462E+02 -0.56338730587E+01 -0.27590578443E+02  0.31886060065E+02  0.00000000000E+00 0.  1.
         11    1    3    3    0    0  0.15990470133E+02  0.14234261647E+02  0.14081542030E+02  0.25624191029E+02  0.51100000000E-03 0. -1.
        -11    1    3    3    0    0 -0.13202918260E+02 -0.11195202389E+02  0.12173558742E+02  0.21162351944E+02  0.51100000000E-03 0.  1.
        -12    1    3    3    0    0  0.12170398589E+02  0.25948138015E+01  0.13354776718E+01  0.12515396961E+02  0.00000000000E+00 0.  1.
</event>
<event>
 7    1  0.5761011E-013  0.5930195E+02  0.7816164E-02  0.1266605E+00
        -11   -1    0    0    0    0  0.00000000000E+00  0.00000000000E+00  0.45593999997E+02  0.45594000000E+02  0.51100000000E-03 0.  1.
         11   -1    0    0    0    0 -0.00000000000E+00 -0.00000000000E+00 -0.45593999997E+02  0.45594000000E+02  0.51100000000E-03 0. -1.
    9900012    2    1    2    0    0  0.26204268564E+02 -0.17496487942E+02 -0.48917607459E+01  0.59301951257E+02  0.50000013185E+02 0.  0.
        -12    1    1    2    0    0 -0.26204268564E+02  0.17496487942E+02  0.48917607459E+01  0.31886048743E+02  0.00000000000E+00 0.  1.
         11    1    3    3    0    0  0.71104816117E+01  0.10471191369E+02  0.33129187989E+01  0.13083586231E+02  0.51100000000E-03 0.  1.
        -11    1    3    3    0    0  0.23468952946E+02 -0.15764641443E+02  0.38290928375E+01  0.28530293101E+02  0.51100000000E-03 0. -1.
         12    1    3    3    0    0 -0.43751659941E+01 -0.12203037867E+02 -0.12033772382E+02  0.17688071925E+02  0.00000000000E+00 0. -1.
</event>
<event>
 7    1  0.5761011E-013  0.5930196E+02  0.7816164E-02  0.1266605E+00
        -11   -1    0    0    0    0  0.00000000000E+00  0.00000000000E+00  0.45593999997E+02  0.45594000000E+02  0.51100000000E-03 0. -1.
         11   -1    0    0    0    0 -0.00000000000E+00 -0.00000000000E+00 -0.45593999997E+02  0.45594000000E+02  0.51100000000E-03 0.  1.
    9900012    2    1    2    0    0 -0.22853207072E+02 -0.26558309211E+01 -0.22077077123E+02  0.59301955315E+02  0.50000020586E+02 0.  0.
        -12    1    1    2    0    0  0.22853207072E+02  0.26558309211E+01  0.22077077123E+02  0.31886044685E+02  0.00000000000E+00 0.  1.
         11    1    3    3    0    0 -0.20324646959E+02  0.85287182402E+01  0.42646509232E+00  0.22045683966E+02  0.51100000000E-03 0. -1.
        -11    1    3    3    0    0 -0.63988746617E+01 -0.18106772558E+02 -0.22152447238E+02  0.29317771544E+02  0.51100000000E-03 0.  1.
        -12    1    3    3    0    0  0.38703145487E+01  0.69222233970E+01 -0.35109497723E+00  0.79384998045E+01  0.00000000000E+00 0.  1.
</event>
<event>
 7    1  0.5761011E-013  0.5930195E+02  0.7816164E-02  0.1266605E+00
        -11   -1    0    0    0    0  0.00000000000E+00  0.00000000000E+00  0.45593999997E+02  0.45594000000E+02  0.51100000000E-03 0.  1.
         11   -1    0    0    0    0 -0.00000000000E+00 -0.00000000000E+00 -0.45593999997E+02  0.45594000000E+02  0.51100000000E-03 0. -1.
    9900012    2    1    2    0    0 -0.29298661730E+02  0.12554051764E+02 -0.83941572893E+00  0.59301946409E+02  0.50000004343E+02 0.  0.
        -12    1    1    2    0    0  0.29298661730E+02 -0.12554051764E+02  0.83941572893E+00  0.31886053591E+02  0.00000000000E+00 0.  1.
         11    1    3    3    0    0 -0.32744215752E+02  0.10426702996E+02 -0.14859118466E+02  0.37439193399E+02  0.51100000000E-03 0. -1.
        -11    1    3    3    0    0 -0.55791942998E+01  0.36768071134E+01  0.95966333556E+01  0.11693660317E+02  0.51100000000E-03 0.  1.
         12    1    3    3    0    0  0.90247483217E+01 -0.15494583452E+01  0.44230693816E+01  0.10169092692E+02  0.00000000000E+00 0. -1.
</event>
<event>
 7    1  0.5761011E-013  0.5930194E+02  0.7816164E-02  0.1266605E+00
        -11   -1    0    0    0    0  0.00000000000E+00  0.00000000000E+00  0.45593999997E+02  0.45594000000E+02  0.51100000000E-03 0. -1.
         11   -1    0    0    0    0 -0.00000000000E+00 -0.00000000000E+00 -0.45593999997E+02  0.45594000000E+02  0.51100000000E-03 0.  1.
    9900012    2    1    2    0    0 -0.21175675333E+02  0.20668901281E+02  0.11878882838E+02  0.59301944059E+02  0.50000000057E+02 0.  0.
        -12    1    1    2    0    0  0.21175675333E+02 -0.20668901281E+02 -0.11878882838E+02  0.31886055941E+02  0.00000000000E+00 0.  1.
         11    1    3    3    0    0 -0.91301999978E+01  0.19633631793E+02  0.23169329417E+02  0.31712109285E+02  0.51100000000E-03 0. -1.
        -11    1    3    3    0    0 -0.53711133487E+01 -0.10114407939E+02 -0.85946331717E+01  0.14318443567E+02  0.51100000000E-03 0.  1.
         12    1    3    3    0    0 -0.66743619868E+01  0.11149677427E+02 -0.26958134077E+01  0.13271391208E+02  0.00000000000E+00 0. -1.
</event>
<event>
 7    1  0.5761011E-013  0.5930193E+02  0.7816164E-02  0.1266605E+00
        -11   -1    0    0    0    0  0.00000000000E+00  0.00000000000E+00  0.45593999997E+02  0.45594000000E+02  0.51100000000E-03 0.  1.
         11   -1    0    0    0    0 -0.00000000000E+00 -0.00000000000E+00 -0.45593999997E+02  0.45594000000E+02  0.51100000000E-03 0. -1.
    9900012    2    1    2    0    0  0.20914986136E+02  0.17696862500E+02 -0.16312749417E+02  0.59301931240E+02  0.49999976678E+02 0.  0.
        -12    1    1    2    0    0 -0.20914986136E+02 -0.17696862500E+02  0.16312749417E+02  0.31886068760E+02  0.00000000000E+00 0.  1.
         11    1    3    3    0    0 -0.86371116940E+01  0.11918207022E+02 -0.12903550016E+02  0.19574089004E+02  0.51100000000E-03 0.  1.
        -11    1    3    3    0    0  0.26200397551E+02  0.49730580325E+01  0.79734602399E+01  0.27834658368E+02  0.51100000000E-03 0. -1.
         12    1    3    3    0    0  0.33517002794E+01  0.80559744537E+00 -0.11382659641E+02  0.11893183868E+02  0.00000000000E+00 0. -1.
</event>
<event>
 7    1  0.5761011E-013  0.5930194E+02  0.7816164E-02  0.1266605E+00
        -11   -1    0    0    0    0  0.00000000000E+00  0.00000000000E+00  0.45593999997E+02  0.45594000000E+02  0.51100000000E-03 0. -1.
         11   -1    0    0    0    0 -0.00000000000E+00 -0.00000000000E+00 -0.45593999997E+02  0.45594000000E+02  0.51100000000E-03 0.  1.
    9900012    2    1    2    0    0 -0.30917541999E+02 -0.13271345705E+00 -0.77979968691E+01  0.59301940800E+02  0.49999994114E+02 0.  0.
        -12    1    1    2    0    0  0.30917541999E+02  0.13271345705E+00  0.77979968691E+01  0.31886059200E+02  0.00000000000E+00 0.  1.
         11    1    3    3    0    0 -0.33133181521E+02 -0.10110596539E+02 -0.18848879002E+01  0.34692718007E+02  0.51100000000E-03 0. -1.
        -11    1    3    3    0    0  0.59368808352E+01  0.49310518790E+01 -0.13017577698E+02  0.15133378871E+02  0.51100000000E-03 0.  1.
         12    1    3    3    0    0 -0.37212413135E+01  0.50468312032E+01  0.71044687289E+01  0.94758439216E+01  0.00000000000E+00 0. -1.
</event>
<event>
 7    1  0.5761011E-013  0.5930194E+02  0.7816164E-02  0.1266605E+00
        -11   -1    0    0    0    0  0.00000000000E+00  0.00000000000E+00  0.45593999997E+02  0.45594000000E+02  0.51100000000E-03 0. -1.
         11   -1    0    0    0    0 -0.00000000000E+00 -0.00000000000E+00 -0.45593999997E+02  0.45594000000E+02  0.51100000000E-03 0.  1.
    9900012    2    1    2    0    0  0.24231680872E+01 -0.28835164604E+02  0.13393373635E+02  0.59301938490E+02  0.49999989900E+02 0.  0.
        -12    1    1    2    0    0 -0.24231680872E+01  0.28835164604E+02 -0.13393373635E+02  0.31886061510E+02  0.00000000000E+00 0.  1.
         11    1    3    3    0    0  0.82490480591E+00 -0.11144125391E+02  0.38528373646E+01  0.11820167287E+02  0.51100000000E-03 0. -1.
        -11    1    3    3    0    0  0.69231764683E+01  0.13036970250E+02  0.65614963754E+01  0.16153829287E+02  0.51100000000E-03 0.  1.
        -12    1    3    3    0    0 -0.53249131870E+01 -0.30728009462E+02  0.29790398954E+01  0.31327941915E+02  0.00000000000E+00 0.  1.
</event>
<event>
 7    1  0.5761011E-013  0.5930193E+02  0.7816164E-02  0.1266605E+00
        -11   -1    0    0    0    0  0.00000000000E+00  0.00000000000E+00  0.45593999997E+02  0.45594000000E+02  0.51100000000E-03 0.  1.
         11   -1    0    0    0    0 -0.00000000000E+00 -0.00000000000E+00 -0.45593999997E+02  0.45594000000E+02  0.51100000000E-03 0. -1.
    9900012    2    1    2    0    0 -0.69594007104E+01 -0.30730974925E+02  0.48883207833E+01  0.59301925326E+02  0.49999965892E+02 0.  0.
        -12    1    1    2    0    0  0.69594007104E+01  0.30730974925E+02 -0.48883207833E+01  0.31886074674E+02  0.00000000000E+00 0.  1.
         11    1    3    3    0    0 -0.19541569780E+01 -0.41283217891E+02  0.35858240754E+01  0.41484707345E+02  0.51100000000E-03 0. -1.
        -11    1    3    3    0    0  0.22868400647E+01  0.95373674021E+01 -0.15347751029E+01  0.99270614645E+01  0.51100000000E-03 0.  1.
        -12    1    3    3    0    0 -0.72920837970E+01  0.10148755649E+01  0.28372718107E+01  0.78901565157E+01  0.00000000000E+00 0.  1.
</event>
<event>
 7    1  0.5761011E-013  0.5930196E+02  0.7816164E-02  0.1266605E+00
        -11   -1    0    0    0    0  0.00000000000E+00  0.00000000000E+00  0.45593999997E+02  0.45594000000E+02  0.51100000000E-03 0.  1.
         11   -1    0    0    0    0 -0.00000000000E+00 -0.00000000000E+00 -0.45593999997E+02  0.45594000000E+02  0.51100000000E-03 0. -1.
    9900012    2    1    2    0    0 -0.24970387942E+02  0.18750438723E+02 -0.64513653352E+01  0.59301963229E+02  0.50000035018E+02 0.  0.
        -12    1    1    2    0    0  0.24970387942E+02 -0.18750438723E+02  0.64513653352E+01  0.31886036771E+02  0.00000000000E+00 0.  1.
         11    1    3    3    0    0 -0.21166629671E+02 -0.49176674396E+01 -0.63208080148E+01  0.22631002604E+02  0.51100000000E-03 0. -1.
        -11    1    3    3    0    0  0.73971268719E+01  0.23415838363E+02  0.36933676915E+01  0.24832638550E+02  0.51100000000E-03 0.  1.
        -12    1    3    3    0    0 -0.11200885143E+02  0.25226780013E+00 -0.38239250119E+01  0.11838322074E+02  0.00000000000E+00 0.  1.
</event>
<event>
 7    1  0.5761011E-013  0.5930197E+02  0.7816164E-02  0.1266605E+00
        -11   -1    0    0    0    0  0.00000000000E+00  0.00000000000E+00  0.45593999997E+02  0.45594000000E+02  0.51100000000E-03 0.  1.
         11   -1    0    0    0    0 -0.00000000000E+00 -0.00000000000E+00 -0.45593999997E+02  0.45594000000E+02  0.51100000000E-03 0. -1.
    9900012    2    1    2    0    0  0.12125302847E+02  0.13989610381E+01 -0.29457411215E+02  0.59301966434E+02  0.50000040864E+02 0.  0.
        -12    1    1    2    0    0 -0.12125302847E+02 -0.13989610381E+01  0.29457411215E+02  0.31886033566E+02  0.00000000000E+00 0.  1.
         11    1    3    3    0    0 -0.14172531054E+01  0.19116065236E+01 -0.12782427783E+02  0.13002050075E+02  0.51100000000E-03 0. -1.
        -11    1    3    3    0    0  0.22902219611E+01  0.11003205152E+00  0.13705815077E+02  0.13896279749E+02  0.51100000000E-03 0.  1.
        -12    1    3    3    0    0  0.11252333991E+02 -0.62267753702E+00 -0.30380798508E+02  0.32403636610E+02  0.00000000000E+00 0.  1.
</event>
<event>
 7    1  0.5761011E-013  0.5930193E+02  0.7816164E-02  0.1266605E+00
        -11   -1    0    0    0    0  0.00000000000E+00  0.00000000000E+00  0.45593999997E+02  0.45594000000E+02  0.51100000000E-03 0.  1.
         11   -1    0    0    0    0 -0.00000000000E+00 -0.00000000000E+00 -0.45593999997E+02  0.45594000000E+02  0.51100000000E-03 0. -1.
    9900012    2    1    2    0    0  0.21532386860E+02 -0.12442876530E+02 -0.19956261325E+02  0.59301933666E+02  0.49999981102E+02 0.  0.
        -12    1    1    2    0    0 -0.21532386860E+02  0.12442876530E+02  0.19956261325E+02  0.31886066334E+02  0.00000000000E+00 0.  1.
         11    1    3    3    0    0  0.16617289031E+02 -0.23197447328E+01 -0.28582099394E+02  0.33142901448E+02  0.51100000000E-03 0. -1.
        -11    1    3    3    0    0 -0.73377127430E+01  0.14973175366E+01  0.75162351420E+00  0.75265480981E+01  0.51100000000E-03 0.  1.
         12    1    3    3    0    0  0.12252810572E+02 -0.11620449334E+02  0.78742145546E+01  0.18632484120E+02  0.00000000000E+00 0. -1.
</event>
<event>
 7    1  0.5761011E-013  0.5930194E+02  0.7816164E-02  0.1266605E+00
        -11   -1    0    0    0    0  0.00000000000E+00  0.00000000000E+00  0.45593999997E+02  0.45594000000E+02  0.51100000000E-03 0. -1.
         11   -1    0    0    0    0 -0.00000000000E+00 -0.00000000000E+00 -0.45593999997E+02  0.45594000000E+02  0.51100000000E-03 0.  1.
    9900012    2    1    2    0    0 -0.25911495672E+02 -0.16192040557E+02  0.91177288265E+01  0.59301940910E+02  0.49999994313E+02 0.  0.
        -12    1    1    2    0    0  0.25911495672E+02  0.16192040557E+02 -0.91177288265E+01  0.31886059090E+02  0.00000000000E+00 0.  1.
         11    1    3    3    0    0  0.44324487712E+01  0.13654719268E+01 -0.10593194140E+02  0.11564033813E+02  0.51100000000E-03 0.  1.
        -11    1    3    3    0    0 -0.21514369991E+02 -0.26212377255E+01  0.21206704662E+02  0.30322653680E+02  0.51100000000E-03 0. -1.
        -12    1    3    3    0    0 -0.88295744525E+01 -0.14936274758E+02 -0.14957816961E+01  0.17415253416E+02  0.00000000000E+00 0.  1.
</event>
<event>
 7    1  0.5761011E-013  0.5930191E+02  0.7816164E-02  0.1266605E+00
        -11   -1    0    0    0    0  0.00000000000E+00  0.00000000000E+00  0.45593999997E+02  0.45594000000E+02  0.51100000000E-03 0.  1.
         11   -1    0    0    0    0 -0.00000000000E+00 -0.00000000000E+00 -0.45593999997E+02  0.45594000000E+02  0.51100000000E-03 0. -1.
    9900012    2    1    2    0    0 -0.12489217682E+02  0.52439192314E+01 -0.28865957955E+02  0.59301909367E+02  0.49999936787E+02 0.  0.
        -12    1    1    2    0    0  0.12489217682E+02 -0.52439192314E+01  0.28865957955E+02  0.31886090633E+02  0.00000000000E+00 0.  1.
         11    1    3    3    0    0  0.16871443505E+01  0.47778129839E+01 -0.26541911650E+02  0.27021232897E+02  0.51100000000E-03 0. -1.
        -11    1    3    3    0    0 -0.19464312102E+02  0.92930683071E+01 -0.37503861381E+01  0.21892600591E+02  0.51100000000E-03 0.  1.
         12    1    3    3    0    0  0.52879500703E+01 -0.88269620596E+01  0.14263398334E+01  0.10388075879E+02  0.00000000000E+00 0. -1.
</event>
<event>
 7    1  0.5761011E-013  0.5930178E+02  0.7816164E-02  0.1266605E+00
        -11   -1    0    0    0    0  0.00000000000E+00  0.00000000000E+00  0.45593999997E+02  0.45594000000E+02  0.51100000000E-03 0.  1.
         11   -1    0    0    0    0 -0.00000000000E+00 -0.00000000000E+00 -0.45593999997E+02  0.45594000000E+02  0.51100000000E-03 0. -1.
    9900012    2    1    2    0    0 -0.16252354207E+02  0.72221985110E+01 -0.26465669610E+02  0.59301782969E+02  0.49999706268E+02 0.  0.
        -12    1    1    2    0    0  0.16252354207E+02 -0.72221985110E+01  0.26465669610E+02  0.31886217031E+02  0.00000000000E+00 0.  1.
         11    1    3    3    0    0 -0.24773132797E+01 -0.56049891709E+01 -0.10116936080E+02  0.11828160491E+02  0.51100000000E-03 0. -1.
        -11    1    3    3    0    0 -0.24182145302E+02  0.50783640006E+01  0.22328095735E+01  0.24810307760E+02  0.51100000000E-03 0.  1.
        -12    1    3    3    0    0  0.10407104374E+02  0.77488236813E+01 -0.18581543103E+02  0.22663314718E+02  0.00000000000E+00 0.  1.
</event>
<event>
 7    1  0.5761011E-013  0.5930173E+02  0.7816164E-02  0.1266606E+00
        -11   -1    0    0    0    0  0.00000000000E+00  0.00000000000E+00  0.45593999997E+02  0.45594000000E+02  0.51100000000E-03 0. -1.
         11   -1    0    0    0    0 -0.00000000000E+00 -0.00000000000E+00 -0.45593999997E+02  0.45594000000E+02  0.51100000000E-03 0.  1.
    9900012    2    1    2    0    0 -0.31393683275E+02 -0.38518867006E+01 -0.40415186594E+01  0.59301729383E+02  0.49999608539E+02 0.  0.
        -12    1    1    2    0    0  0.31393683275E+02  0.38518867006E+01  0.40415186594E+01  0.31886270617E+02  0.00000000000E+00 0.  1.
         11    1    3    3    0    0  0.58266793109E+01  0.18123294651E+01  0.27105958289E+01  0.66769798480E+01  0.51100000000E-03 0. -1.
        -11    1    3    3    0    0 -0.21525147123E+02 -0.20827653975E+02 -0.62976417360E+00  0.29958633679E+02  0.51100000000E-03 0.  1.
         12    1    3    3    0    0 -0.15695215463E+02  0.15163437809E+02 -0.61223503147E+01  0.22666115856E+02  0.00000000000E+00 0. -1.
</event>
<event>
 7    1  0.5761011E-013  0.5930194E+02  0.7816164E-02  0.1266605E+00
        -11   -1    0    0    0    0  0.00000000000E+00  0.00000000000E+00  0.45593999997E+02  0.45594000000E+02  0.51100000000E-03 0. -1.
         11   -1    0    0    0    0 -0.00000000000E+00 -0.00000000000E+00 -0.45593999997E+02  0.45594000000E+02  0.51100000000E-03 0.  1.
    9900012    2    1    2    0    0  0.12402705153E+02 -0.24618124308E+02  0.16026276918E+02  0.59301942053E+02  0.49999996398E+02 0.  0.
        -12    1    1    2    0    0 -0.12402705153E+02  0.24618124308E+02 -0.16026276918E+02  0.31886057947E+02  0.00000000000E+00 0.  1.
         11    1    3    3    0    0 -0.42570817063E+01 -0.21801279334E+02  0.19003580549E+02  0.29232765850E+02  0.51100000000E-03 0. -1.
        -11    1    3    3    0    0  0.21533079815E+02 -0.49851353513E+01 -0.72218503562E+01  0.23252531553E+02  0.51100000000E-03 0.  1.
         12    1    3    3    0    0 -0.48732929549E+01  0.21682903780E+01  0.42445467255E+01  0.68166446506E+01  0.00000000000E+00 0. -1.
</event>
<event>
 7    1  0.5761011E-013  0.5930196E+02  0.7816164E-02  0.1266605E+00
        -11   -1    0    0    0    0  0.00000000000E+00  0.00000000000E+00  0.45593999997E+02  0.45594000000E+02  0.51100000000E-03 0. -1.
         11   -1    0    0    0    0 -0.00000000000E+00 -0.00000000000E+00 -0.45593999997E+02  0.45594000000E+02  0.51100000000E-03 0.  1.
    9900012    2    1    2    0    0  0.25710783156E+02  0.17276282019E+01  0.18780057493E+02  0.59301958710E+02  0.50000026777E+02 0.  0.
        -12    1    1    2    0    0 -0.25710783156E+02 -0.17276282019E+01 -0.18780057493E+02  0.31886041290E+02  0.00000000000E+00 0.  1.
         11    1    3    3    0    0  0.10631631780E+02  0.43366260877E+01 -0.14517342163E+02  0.18509217808E+02  0.51100000000E-03 0. -1.
        -11    1    3    3    0    0 -0.25275482665E+01  0.39501130809E+01  0.53204545185E+01  0.70921879654E+01  0.51100000000E-03 0.  1.
         12    1    3    3    0    0  0.17606699643E+02 -0.65591109668E+01  0.27976945138E+02  0.33700552936E+02  0.00000000000E+00 0. -1.
</event>
<event>
 7    1  0.5761011E-013  0.5930195E+02  0.7816164E-02  0.1266605E+00
        -11   -1    0    0    0    0  0.00000000000E+00  0.00000000000E+00  0.45593999997E+02  0.45594000000E+02  0.51100000000E-03 0.  1.
         11   -1    0    0    0    0 -0.00000000000E+00 -0.00000000000E+00 -0.45593999997E+02  0.45594000000E+02  0.51100000000E-03 0. -1.
    9900012    2    1    2    0    0  0.13723941451E+02 -0.78649214090E+01 -0.27686042021E+02  0.59301945360E+02  0.50000002429E+02 0.  0.
        -12    1    1    2    0    0 -0.13723941451E+02  0.78649214090E+01  0.27686042021E+02  0.31886054640E+02  0.00000000000E+00 0.  1.
         11    1    3    3    0    0 -0.24170507390E+01 -0.20251095264E+01 -0.26059951718E+02  0.26250034031E+02  0.51100000000E-03 0. -1.
        -11    1    3    3    0    0 -0.19616333452E+01  0.66024612675E+01  0.66540610619E+01  0.95769008059E+01  0.51100000000E-03 0.  1.
         12    1    3    3    0    0  0.18102625535E+02 -0.12442273150E+02 -0.82801513657E+01  0.23475010523E+02  0.00000000000E+00 0. -1.
</event>
<event>
 7    1  0.5761011E-013  0.5930194E+02  0.7816164E-02  0.1266605E+00
        -11   -1    0    0    0    0  0.00000000000E+00  0.00000000000E+00  0.45593999997E+02  0.45594000000E+02  0.51100000000E-03 0.  1.
         11   -1    0    0    0    0 -0.00000000000E+00 -0.00000000000E+00 -0.45593999997E+02  0.45594000000E+02  0.51100000000E-03 0. -1.
    9900012    2    1    2    0    0  0.28270702367E+02 -0.11820231372E+02  0.88187644984E+01  0.59301935813E+02  0.49999985019E+02 0.  0.
        -12    1    1    2    0    0 -0.28270702367E+02  0.11820231372E+02 -0.88187644984E+01  0.31886064187E+02  0.00000000000E+00 0.  1.
         11    1    3    3    0    0  0.82881438508E+01  0.11632619408E+02 -0.81789651367E+01  0.16459241591E+02  0.51100000000E-03 0. -1.
        -11    1    3    3    0    0  0.22770005444E+02 -0.26019309298E+02  0.12059702626E+02  0.36618493033E+02  0.51100000000E-03 0.  1.
        -12    1    3    3    0    0 -0.27874469278E+01  0.25664585183E+01  0.49380270097E+01  0.62242011897E+01  0.00000000000E+00 0.  1.
</event>
<event>
 7    1  0.5761011E-013  0.5930194E+02  0.7816164E-02  0.1266605E+00
        -11   -1    0    0    0    0  0.00000000000E+00  0.00000000000E+00  0.45593999997E+02  0.45594000000E+02  0.51100000000E-03 0. -1.
         11   -1    0    0    0    0 -0.00000000000E+00 -0.00000000000E+00 -0.45593999997E+02  0.45594000000E+02  0.51100000000E-03 0.  1.
    9900012    2    1    2    0    0 -0.15618078271E+02  0.13069371963E+02  0.24535442335E+02  0.59301940617E+02  0.49999993779E+02 0.  0.
        -12    1    1    2    0    0  0.15618078271E+02 -0.13069371963E+02 -0.24535442335E+02  0.31886059383E+02  0.00000000000E+00 0.  1.
         11    1    3    3    0    0 -0.52983337160E+01 -0.94631841725E+01  0.25587744799E+02  0.27791309415E+02  0.51100000000E-03 0. -1.
        -11    1    3    3    0    0  0.33212446305E+01  0.14635985906E+02  0.28422895501E+01  0.15274860375E+02  0.51100000000E-03 0.  1.
         12    1    3    3    0    0 -0.13640989186E+02  0.78965702299E+01 -0.38945920140E+01  0.16235770826E+02  0.00000000000E+00 0. -1.
</event>
<event>
 7    1  0.5761011E-013  0.5930195E+02  0.7816164E-02  0.1266605E+00
        -11   -1    0    0    0    0  0.00000000000E+00  0.00000000000E+00  0.45593999997E+02  0.45594000000E+02  0.51100000000E-03 0.  1.
         11   -1    0    0    0    0 -0.00000000000E+00 -0.00000000000E+00 -0.45593999997E+02  0.45594000000E+02  0.51100000000E-03 0. -1.
    9900012    2    1    2    0    0 -0.28376218961E+02 -0.69338207525E+01 -0.12784075710E+02  0.59301948747E+02  0.50000008607E+02 0.  0.
        -12    1    1    2    0    0  0.28376218961E+02  0.69338207525E+01  0.12784075710E+02  0.31886051253E+02  0.00000000000E+00 0.  1.
         11    1    3    3    0    0 -0.26006257225E+01 -0.64133092014E+00 -0.36563091131E+01  0.45324558563E+01  0.51100000000E-03 0. -1.
        -11    1    3    3    0    0  0.11093430386E+02 -0.11797622495E+02 -0.63287073413E+01  0.17386794735E+02  0.51100000000E-03 0.  1.
        -12    1    3    3    0    0 -0.36869023625E+02  0.55051326628E+01 -0.27990592560E+01  0.37382698156E+02  0.00000000000E+00 0.  1.
</event>
<event>
 7    1  0.5761011E-013  0.5930196E+02  0.7816164E-02  0.1266605E+00
        -11   -1    0    0    0    0  0.00000000000E+00  0.00000000000E+00  0.45593999997E+02  0.45594000000E+02  0.51100000000E-03 0. -1.
         11   -1    0    0    0    0 -0.00000000000E+00 -0.00000000000E+00 -0.45593999997E+02  0.45594000000E+02  0.51100000000E-03 0.  1.
    9900012    2    1    2    0    0 -0.26654837648E+02  0.17434835821E+02  0.15053116014E+01  0.59301955511E+02  0.50000020943E+02 0.  0.
        -12    1    1    2    0    0  0.26654837648E+02 -0.17434835821E+02 -0.15053116014E+01  0.31886044489E+02  0.00000000000E+00 0.  1.
         11    1    3    3    0    0 -0.27298688275E+02  0.20553539902E+02 -0.68539238625E+01  0.34851723868E+02  0.51100000000E-03 0. -1.
        -11    1    3    3    0    0  0.40334753257E+01 -0.50433395622E+01 -0.64555871852E+01  0.91311994453E+01  0.51100000000E-03 0.  1.
        -12    1    3    3    0    0 -0.33896246984E+01  0.19246354819E+01  0.14814822649E+02  0.15319032197E+02  0.00000000000E+00 0.  1.
</event>
<event>
 7    1  0.5761011E-013  0.5930196E+02  0.7816164E-02  0.1266605E+00
        -11   -1    0    0    0    0  0.00000000000E+00  0.00000000000E+00  0.45593999997E+02  0.45594000000E+02  0.51100000000E-03 0. -1.
         11   -1    0    0    0    0 -0.00000000000E+00 -0.00000000000E+00 -0.45593999997E+02  0.45594000000E+02  0.51100000000E-03 0.  1.
    9900012    2    1    2    0    0  0.60682193017E+01  0.23419252674E+02  0.20771010294E+02  0.59301959952E+02  0.50000029041E+02 0.  0.
        -12    1    1    2    0    0 -0.60682193017E+01 -0.23419252674E+02 -0.20771010294E+02  0.31886040048E+02  0.00000000000E+00 0.  1.
         11    1    3    3    0    0  0.31122169581E+00 -0.12410347892E+02 -0.41612960009E+01  0.13093127145E+02  0.51100000000E-03 0. -1.
        -11    1    3    3    0    0  0.14154301927E+01  0.88737944554E+01 -0.35700142111E+00  0.89930595985E+01  0.51100000000E-03 0.  1.
         12    1    3    3    0    0  0.43415674132E+01  0.26955806112E+02  0.25289307716E+02  0.37215773208E+02  0.00000000000E+00 0. -1.
</event>
<event>
 7    1  0.5761011E-013  0.5930203E+02  0.7816164E-02  0.1266604E+00
        -11   -1    0    0    0    0  0.00000000000E+00  0.00000000000E+00  0.45593999997E+02  0.45594000000E+02  0.51100000000E-03 0.  1.
         11   -1    0    0    0    0 -0.00000000000E+00 -0.00000000000E+00 -0.45593999997E+02  0.45594000000E+02  0.51100000000E-03 0. -1.
    9900012    2    1    2    0    0 -0.22707946598E+02  0.13248993724E+02 -0.18042410486E+02  0.59302027385E+02  0.50000152024E+02 0.  0.
        -12    1    1    2    0    0  0.22707946598E+02 -0.13248993724E+02  0.18042410486E+02  0.31885972615E+02  0.00000000000E+00 0.  1.
         11    1    3    3    0    0 -0.58265590108E+01  0.29043035959E+00 -0.19613393455E+02  0.20462608406E+02  0.51100000000E-03 0. -1.
        -11    1    3    3    0    0  0.71129718309E+00 -0.70673093969E+00  0.13522317281E+02  0.13559442363E+02  0.51100000000E-03 0.  1.
        -12    1    3    3    0    0 -0.17592684771E+02  0.13665294304E+02 -0.11951334313E+02  0.25279976616E+02  0.00000000000E+00 0.  1.
</event>
<event>
 7    1  0.5761011E-013  0.5930194E+02  0.7816164E-02  0.1266605E+00
        -11   -1    0    0    0    0  0.00000000000E+00  0.00000000000E+00  0.45593999997E+02  0.45594000000E+02  0.51100000000E-03 0.  1.
         11   -1    0    0    0    0 -0.00000000000E+00 -0.00000000000E+00 -0.45593999997E+02  0.45594000000E+02  0.51100000000E-03 0. -1.
    9900012    2    1    2    0    0  0.17650032239E+02 -0.25877843942E+02 -0.59610971842E+01  0.59301935257E+02  0.49999984004E+02 0.  0.
        -12    1    1    2    0    0 -0.17650032239E+02  0.25877843942E+02  0.59610971842E+01  0.31886064743E+02  0.00000000000E+00 0.  1.
         11    1    3    3    0    0  0.13192779703E+02 -0.57298935129E+01 -0.11412382713E+02  0.18360925777E+02  0.51100000000E-03 0. -1.
        -11    1    3    3    0    0 -0.14331183527E+01 -0.24267532546E+02  0.15318193232E+02  0.28733499756E+02  0.51100000000E-03 0.  1.
        -12    1    3    3    0    0  0.58903708893E+01  0.41195821168E+01 -0.98669077031E+01  0.12207509724E+02  0.00000000000E+00 0.  1.
</event>
<event>
 7    1  0.5761011E-013  0.5930198E+02  0.7816164E-02  0.1266605E+00
        -11   -1    0    0    0    0  0.00000000000E+00  0.00000000000E+00  0.45593999997E+02  0.45594000000E+02  0.51100000000E-03 0.  1.
         11   -1    0    0    0    0 -0.00000000000E+00 -0.00000000000E+00 -0.45593999997E+02  0.45594000000E+02  0.51100000000E-03 0. -1.
    9900012    2    1    2    0    0 -0.31046250644E+02 -0.13486034966E+01 -0.71435326551E+01  0.59301976899E+02  0.50000059949E+02 0.  0.
        -12    1    1    2    0    0  0.31046250644E+02  0.13486034966E+01  0.71435326551E+01  0.31886023101E+02  0.00000000000E+00 0.  1.
         11    1    3    3    0    0 -0.68675306169E+01 -0.17411725235E+02 -0.19211555057E+02  0.26821912691E+02  0.51100000000E-03 0. -1.
        -11    1    3    3    0    0 -0.33346126334E+01  0.49846342524E+01  0.50871228434E+01  0.78641616928E+01  0.51100000000E-03 0.  1.
         12    1    3    3    0    0 -0.20844107393E+02  0.11078487486E+02  0.69808995584E+01  0.24615902515E+02  0.00000000000E+00 0. -1.
</event>
<event>
 7    1  0.5761011E-013  0.5930197E+02  0.7816164E-02  0.1266605E+00
        -11   -1    0    0    0    0  0.00000000000E+00  0.00000000000E+00  0.45593999997E+02  0.45594000000E+02  0.51100000000E-03 0.  1.
         11   -1    0    0    0    0 -0.00000000000E+00 -0.00000000000E+00 -0.45593999997E+02  0.45594000000E+02  0.51100000000E-03 0. -1.
    9900012    2    1    2    0    0  0.18049986138E+02  0.25773824481E+02  0.51601029820E+01  0.59301973425E+02  0.50000053613E+02 0.  0.
        -12    1    1    2    0    0 -0.18049986138E+02 -0.25773824481E+02 -0.51601029820E+01  0.31886026575E+02  0.00000000000E+00 0.  1.
         11    1    3    3    0    0 -0.43968687598E+01  0.19228925505E+02  0.82475953707E+01  0.21380057545E+02  0.51100000000E-03 0. -1.
        -11    1    3    3    0    0  0.81170200562E+01 -0.66305656545E+01 -0.12489040776E+02  0.16304188273E+02  0.51100000000E-03 0.  1.
        -12    1    3    3    0    0  0.14329834841E+02  0.13175464631E+02  0.94015483868E+01  0.21617727607E+02  0.00000000000E+00 0.  1.
</event>
<event>
 7    1  0.5761011E-013  0.5930172E+02  0.7816164E-02  0.1266606E+00
        -11   -1    0    0    0    0  0.00000000000E+00  0.00000000000E+00  0.45593999997E+02  0.45594000000E+02  0.51100000000E-03 0.  1.
         11   -1    0    0    0    0 -0.00000000000E+00 -0.00000000000E+00 -0.45593999997E+02  0.45594000000E+02  0.51100000000E-03 0. -1.
    9900012    2    1    2    0    0  0.14506214191E+02 -0.24571467647E+02 -0.14231916655E+02  0.59301722008E+02  0.49999595088E+02 0.  0.
        -12    1    1    2    0    0 -0.14506214191E+02  0.24571467647E+02  0.14231916655E+02  0.31886277992E+02  0.00000000000E+00 0.  1.
         11    1    3    3    0    0  0.21876142291E+02 -0.71693825320E+01  0.67593827847E+01  0.23992809408E+02  0.51100000000E-03 0. -1.
        -11    1    3    3    0    0 -0.85013773508E+01 -0.17841600249E+02 -0.65557766992E+01  0.20822447616E+02  0.51100000000E-03 0.  1.
         12    1    3    3    0    0  0.11314492507E+01  0.43951513401E+00 -0.14435522740E+02  0.14486464984E+02  0.00000000000E+00 0. -1.
</event>
<event>
 7    1  0.5761011E-013  0.5930194E+02  0.7816164E-02  0.1266605E+00
        -11   -1    0    0    0    0  0.00000000000E+00  0.00000000000E+00  0.45593999997E+02  0.45594000000E+02  0.51100000000E-03 0. -1.
         11   -1    0    0    0    0 -0.00000000000E+00 -0.00000000000E+00 -0.45593999997E+02  0.45594000000E+02  0.51100000000E-03 0.  1.
    9900012    2    1    2    0    0  0.89440393219E+01 -0.35815487991E+01  0.30395682794E+02  0.59301939351E+02  0.49999991471E+02 0.  0.
        -12    1    1    2    0    0 -0.89440393219E+01  0.35815487991E+01 -0.30395682794E+02  0.31886060649E+02  0.00000000000E+00 0.  1.
         11    1    3    3    0    0  0.16661828919E+02 -0.43226726955E+01  0.78825837921E+01  0.18932436971E+02  0.51100000000E-03 0. -1.
        -11    1    3    3    0    0 -0.65071963926E+01 -0.13050782779E+02  0.78357184659E+00  0.14604126853E+02  0.51100000000E-03 0.  1.
        -12    1    3    3    0    0 -0.12105932046E+01  0.13791906676E+02  0.21729527155E+02  0.25765375527E+02  0.00000000000E+00 0.  1.
</event>
<event>
 7    1  0.5761011E-013  0.5930196E+02  0.7816164E-02  0.1266605E+00
        -11   -1    0    0    0    0  0.00000000000E+00  0.00000000000E+00  0.45593999997E+02  0.45594000000E+02  0.51100000000E-03 0.  1.
         11   -1    0    0    0    0 -0.00000000000E+00 -0.00000000000E+00 -0.45593999997E+02  0.45594000000E+02  0.51100000000E-03 0. -1.
    9900012    2    1    2    0    0 -0.11707243787E+02  0.11162914130E+02 -0.27478165770E+02  0.59301955983E+02  0.50000021803E+02 0.  0.
        -12    1    1    2    0    0  0.11707243787E+02 -0.11162914130E+02  0.27478165770E+02  0.31886044017E+02  0.00000000000E+00 0.  1.
         11    1    3    3    0    0 -0.63910765742E+01  0.25372616300E+02 -0.25173364334E+02  0.36308591131E+02  0.51100000000E-03 0. -1.
        -11    1    3    3    0    0 -0.10114862224E+02 -0.11729018048E+02 -0.58232332900E+01  0.16546611387E+02  0.51100000000E-03 0.  1.
         12    1    3    3    0    0  0.47986950115E+01 -0.24806841219E+01  0.35184318543E+01  0.64467534651E+01  0.00000000000E+00 0. -1.
</event>
<event>
 7    1  0.5761011E-013  0.5930195E+02  0.7816164E-02  0.1266605E+00
        -11   -1    0    0    0    0  0.00000000000E+00  0.00000000000E+00  0.45593999997E+02  0.45594000000E+02  0.51100000000E-03 0.  1.
         11   -1    0    0    0    0 -0.00000000000E+00 -0.00000000000E+00 -0.45593999997E+02  0.45594000000E+02  0.51100000000E-03 0. -1.
    9900012    2    1    2    0    0 -0.16081802074E+02 -0.10241486161E+02 -0.25557933890E+02  0.59301946913E+02  0.50000005263E+02 0.  0.
        -12    1    1    2    0    0  0.16081802074E+02  0.10241486161E+02  0.25557933890E+02  0.31886053087E+02  0.00000000000E+00 0.  1.
         11    1    3    3    0    0 -0.21113200429E+02 -0.88973919148E+01 -0.27039022657E+02  0.35440648439E+02  0.51100000000E-03 0. -1.
        -11    1    3    3    0    0  0.53959457556E+01 -0.71337468332E+01  0.10087702237E+02  0.13482147869E+02  0.51100000000E-03 0.  1.
        -12    1    3    3    0    0 -0.36454740018E+00  0.57896525869E+01 -0.86066134694E+01  0.10379150606E+02  0.00000000000E+00 0.  1.
</event>
<event>
 7    1  0.5761011E-013  0.5930193E+02  0.7816164E-02  0.1266605E+00
        -11   -1    0    0    0    0  0.00000000000E+00  0.00000000000E+00  0.45593999997E+02  0.45594000000E+02  0.51100000000E-03 0.  1.
         11   -1    0    0    0    0 -0.00000000000E+00 -0.00000000000E+00 -0.45593999997E+02  0.45594000000E+02  0.51100000000E-03 0. -1.
    9900012    2    1    2    0    0  0.29293562700E+01 -0.69599844622E+01 -0.30979007235E+02  0.59301930924E+02  0.49999976102E+02 0.  0.
        -12    1    1    2    0    0 -0.29293562700E+01  0.69599844622E+01  0.30979007235E+02  0.31886069076E+02  0.00000000000E+00 0.  1.
         11    1    3    3    0    0 -0.80596035410E+01 -0.12526111870E+02 -0.33094345697E+02  0.36291822842E+02  0.51100000000E-03 0. -1.
        -11    1    3    3    0    0  0.11901402218E+02  0.10149537790E+02 -0.31652247741E+01  0.15958544427E+02  0.51100000000E-03 0.  1.
         12    1    3    3    0    0 -0.91244240691E+00 -0.45834103824E+01  0.52805632365E+01  0.70515636546E+01  0.00000000000E+00 0. -1.
</event>
<event>
 7    1  0.5761011E-013  0.5930209E+02  0.7816164E-02  0.1266604E+00
        -11   -1    0    0    0    0  0.00000000000E+00  0.00000000000E+00  0.45593999997E+02  0.45594000000E+02  0.51100000000E-03 0.  1.
         11   -1    0    0    0    0 -0.00000000000E+00 -0.00000000000E+00 -0.45593999997E+02  0.45594000000E+02  0.51100000000E-03 0. -1.
    9900012    2    1    2    0    0  0.70717165605E+01  0.25785408247E+02 -0.17372818238E+02  0.59302089834E+02  0.50000265915E+02 0.  0.
        -12    1    1    2    0    0 -0.70717165605E+01 -0.25785408247E+02  0.17372818238E+02  0.31885910166E+02  0.00000000000E+00 0.  1.
         11    1    3    3    0    0 -0.13526890907E+02  0.20321190994E+02 -0.13123793684E+02  0.27715727339E+02  0.51100000000E-03 0. -1.
        -11    1    3    3    0    0  0.13372030326E+02 -0.42980528483E+01  0.63980967981E+01  0.15434380331E+02  0.51100000000E-03 0.  1.
         12    1    3    3    0    0  0.72265771419E+01  0.97622701014E+01 -0.10647121352E+02  0.16151982163E+02  0.00000000000E+00 0. -1.
</event>
<event>
 7    1  0.5761011E-013  0.5930195E+02  0.7816164E-02  0.1266605E+00
        -11   -1    0    0    0    0  0.00000000000E+00  0.00000000000E+00  0.45593999997E+02  0.45594000000E+02  0.51100000000E-03 0.  1.
         11   -1    0    0    0    0 -0.00000000000E+00 -0.00000000000E+00 -0.45593999997E+02  0.45594000000E+02  0.51100000000E-03 0. -1.
    9900012    2    1    2    0    0  0.17385620137E+02 -0.18354763725E+02 -0.19430979762E+02  0.59301951115E+02  0.50000012926E+02 0.  0.
        -12    1    1    2    0    0 -0.17385620137E+02  0.18354763725E+02  0.19430979762E+02  0.31886048885E+02  0.00000000000E+00 0.  1.
         11    1    3    3    0    0  0.12557639113E+02 -0.13977181838E+02 -0.88563870869E+01  0.20772373593E+02  0.51100000000E-03 0. -1.
        -11    1    3    3    0    0 -0.42566282864E+00  0.23051742392E+01 -0.23195088806E+02  0.23313240060E+02  0.51100000000E-03 0.  1.
        -12    1    3    3    0    0  0.52536438528E+01 -0.66827561265E+01  0.12620496130E+02  0.15216337462E+02  0.00000000000E+00 0.  1.
</event>
<event>
 7    1  0.5761011E-013  0.5930194E+02  0.7816164E-02  0.1266605E+00
        -11   -1    0    0    0    0  0.00000000000E+00  0.00000000000E+00  0.45593999997E+02  0.45594000000E+02  0.51100000000E-03 0. -1.
         11   -1    0    0    0    0 -0.00000000000E+00 -0.00000000000E+00 -0.45593999997E+02  0.45594000000E+02  0.51100000000E-03 0.  1.
    9900012    2    1    2    0    0  0.90456773721E+01 -0.29114248106E+02 -0.93411437216E+01  0.59301942107E+02  0.49999996498E+02 0.  0.
        -12    1    1    2    0    0 -0.90456773721E+01  0.29114248106E+02  0.93411437216E+01  0.31886057893E+02  0.00000000000E+00 0.  1.
         11    1    3    3    0    0 -0.14525041631E+01 -0.12478558803E+02  0.10335712288E+02  0.16268102130E+02  0.51100000000E-03 0. -1.
        -11    1    3    3    0    0  0.10189361952E+02  0.78577816674E+01 -0.11361767699E+02  0.17165593355E+02  0.51100000000E-03 0.  1.
        -12    1    3    3    0    0  0.30881958330E+00 -0.24493470971E+02 -0.83150883111E+01  0.25868246623E+02  0.00000000000E+00 0.  1.
</event>
<event>
 7    1  0.5761011E-013  0.5930195E+02  0.7816164E-02  0.1266605E+00
        -11   -1    0    0    0    0  0.00000000000E+00  0.00000000000E+00  0.45593999997E+02  0.45594000000E+02  0.51100000000E-03 0.  1.
         11   -1    0    0    0    0 -0.00000000000E+00 -0.00000000000E+00 -0.45593999997E+02  0.45594000000E+02  0.51100000000E-03 0. -1.
    9900012    2    1    2    0    0  0.26245651813E+02  0.10128162390E+02 -0.15010205750E+02  0.59301949929E+02  0.50000010763E+02 0.  0.
        -12    1    1    2    0    0 -0.26245651813E+02 -0.10128162390E+02  0.15010205750E+02  0.31886050071E+02  0.00000000000E+00 0.  1.
         11    1    3    3    0    0  0.10025607914E+02 -0.38041746942E+01 -0.16311547223E+02  0.19520531043E+02  0.51100000000E-03 0. -1.
        -11    1    3    3    0    0  0.18826001775E+02  0.98986500061E+01  0.14496173250E+02  0.25739865072E+02  0.51100000000E-03 0.  1.
        -12    1    3    3    0    0 -0.26059578762E+01  0.40336870784E+01 -0.13194831777E+02  0.14041553814E+02  0.00000000000E+00 0.  1.
</event>
<event>
 7    1  0.5761011E-013  0.5930195E+02  0.7816164E-02  0.1266605E+00
        -11   -1    0    0    0    0  0.00000000000E+00  0.00000000000E+00  0.45593999997E+02  0.45594000000E+02  0.51100000000E-03 0. -1.
         11   -1    0    0    0    0 -0.00000000000E+00 -0.00000000000E+00 -0.45593999997E+02  0.45594000000E+02  0.51100000000E-03 0.  1.
    9900012    2    1    2    0    0 -0.11868054121E+02  0.20602650592E+02  0.21246179056E+02  0.59301952196E+02  0.50000014898E+02 0.  0.
        -12    1    1    2    0    0  0.11868054121E+02 -0.20602650592E+02 -0.21246179056E+02  0.31886047804E+02  0.00000000000E+00 0.  1.
         11    1    3    3    0    0 -0.98555976257E+01  0.61262250705E+01  0.21626166199E+02  0.24542911459E+02  0.51100000000E-03 0. -1.
        -11    1    3    3    0    0 -0.22383164904E+00 -0.90574986762E+01 -0.55127097723E+01  0.10605581180E+02  0.51100000000E-03 0.  1.
        -12    1    3    3    0    0 -0.17886248466E+01  0.23533924198E+02  0.51327226299E+01  0.24153459557E+02  0.00000000000E+00 0.  1.
</event>
<event>
 7    1  0.5761011E-013  0.5930190E+02  0.7816164E-02  0.1266605E+00
        -11   -1    0    0    0    0  0.00000000000E+00  0.00000000000E+00  0.45593999997E+02  0.45594000000E+02  0.51100000000E-03 0. -1.
         11   -1    0    0    0    0 -0.00000000000E+00 -0.00000000000E+00 -0.45593999997E+02  0.45594000000E+02  0.51100000000E-03 0.  1.
    9900012    2    1    2    0    0  0.18163889300E+02 -0.25652403832E+02  0.53619371466E+01  0.59301904804E+02  0.49999928465E+02 0.  0.
        -12    1    1    2    0    0 -0.18163889300E+02  0.25652403832E+02 -0.53619371466E+01  0.31886095196E+02  0.00000000000E+00 0.  1.
         11    1    3    3    0    0  0.20799591799E+02 -0.12800728265E+02 -0.20012831239E+01  0.24504832126E+02  0.51100000000E-03 0. -1.
        -11    1    3    3    0    0 -0.11250972687E+02 -0.32148468275E+01 -0.84054357698E+01  0.14407323737E+02  0.51100000000E-03 0.  1.
        -12    1    3    3    0    0  0.86152701880E+01 -0.96368287399E+01  0.15768656040E+02  0.20389748941E+02  0.00000000000E+00 0.  1.
</event>
<event>
 7    1  0.5761011E-013  0.5930195E+02  0.7816164E-02  0.1266605E+00
        -11   -1    0    0    0    0  0.00000000000E+00  0.00000000000E+00  0.45593999997E+02  0.45594000000E+02  0.51100000000E-03 0. -1.
         11   -1    0    0    0    0 -0.00000000000E+00 -0.00000000000E+00 -0.45593999997E+02  0.45594000000E+02  0.51100000000E-03 0.  1.
    9900012    2    1    2    0    0  0.43570152364E+00 -0.26089706623E+02  0.18326414597E+02  0.59301951335E+02  0.50000013327E+02 0.  0.
        -12    1    1    2    0    0 -0.43570152364E+00  0.26089706623E+02 -0.18326414597E+02  0.31886048665E+02  0.00000000000E+00 0.  1.
         11    1    3    3    0    0  0.99824926474E+01  0.30348622630E+01 -0.10665278810E+01  0.10487994584E+02  0.51100000000E-03 0. -1.
        -11    1    3    3    0    0 -0.14829833604E+02 -0.31776317080E+02  0.22955724132E+02  0.41912093274E+02  0.51100000000E-03 0.  1.
        -12    1    3    3    0    0  0.52830424806E+01  0.26517481939E+01 -0.35627816547E+01  0.69018634770E+01  0.00000000000E+00 0.  1.
</event>
<event>
 7    1  0.5761011E-013  0.5930201E+02  0.7816164E-02  0.1266605E+00
        -11   -1    0    0    0    0  0.00000000000E+00  0.00000000000E+00  0.45593999997E+02  0.45594000000E+02  0.51100000000E-03 0.  1.
         11   -1    0    0    0    0 -0.00000000000E+00 -0.00000000000E+00 -0.45593999997E+02  0.45594000000E+02  0.51100000000E-03 0. -1.
    9900012    2    1    2    0    0 -0.23495841512E+00  0.28517628240E+02 -0.14262045758E+02  0.59302011304E+02  0.50000122696E+02 0.  0.
        -12    1    1    2    0    0  0.23495841512E+00 -0.28517628240E+02  0.14262045758E+02  0.31885988696E+02  0.00000000000E+00 0.  1.
         11    1    3    3    0    0  0.22186835246E+02  0.15963037844E+02 -0.98833622900E+01  0.29064670751E+02  0.51100000000E-03 0. -1.
        -11    1    3    3    0    0 -0.59416984079E+01 -0.17032182293E+01 -0.56967390497E+01  0.84058056347E+01  0.51100000000E-03 0.  1.
         12    1    3    3    0    0 -0.16480095254E+02  0.14257808626E+02  0.13180555819E+01  0.21831534918E+02  0.00000000000E+00 0. -1.
</event>
<event>
 7    1  0.5761011E-013  0.5930195E+02  0.7816164E-02  0.1266605E+00
        -11   -1    0    0    0    0  0.00000000000E+00  0.00000000000E+00  0.45593999997E+02  0.45594000000E+02  0.51100000000E-03 0. -1.
         11   -1    0    0    0    0 -0.00000000000E+00 -0.00000000000E+00 -0.45593999997E+02  0.45594000000E+02  0.51100000000E-03 0.  1.
    9900012    2    1    2    0    0  0.55237478222E+00 -0.57242710374E+01  0.31363163865E+02  0.59301945925E+02  0.50000003460E+02 0.  0.
        -12    1    1    2    0    0 -0.55237478222E+00  0.57242710374E+01 -0.31363163865E+02  0.31886054075E+02  0.00000000000E+00 0.  1.
         11    1    3    3    0    0  0.39783099286E+01 -0.42973342408E+00  0.25381016383E+02  0.25694505514E+02  0.51100000000E-03 0. -1.
        -11    1    3    3    0    0  0.58546021464E+01  0.49447050006E+01 -0.99228823570E+01  0.12537546346E+02  0.51100000000E-03 0.  1.
        -12    1    3    3    0    0 -0.92805372927E+01 -0.10239242614E+02  0.15905029839E+02  0.21069894065E+02  0.00000000000E+00 0.  1.
</event>
<event>
 7    1  0.5761011E-013  0.5930195E+02  0.7816164E-02  0.1266605E+00
        -11   -1    0    0    0    0  0.00000000000E+00  0.00000000000E+00  0.45593999997E+02  0.45594000000E+02  0.51100000000E-03 0.  1.
         11   -1    0    0    0    0 -0.00000000000E+00 -0.00000000000E+00 -0.45593999997E+02  0.45594000000E+02  0.51100000000E-03 0. -1.
    9900012    2    1    2    0    0 -0.32538328587E+01 -0.31566016581E+02 -0.31176287296E+01  0.59301945996E+02  0.50000003590E+02 0.  0.
        -12    1    1    2    0    0  0.32538328587E+01  0.31566016581E+02  0.31176287296E+01  0.31886054004E+02  0.00000000000E+00 0.  1.
         11    1    3    3    0    0 -0.58666702113E+01  0.50552457615E+01 -0.19840204033E+01  0.79943521501E+01  0.51100000000E-03 0.  1.
        -11    1    3    3    0    0 -0.13595254489E+02 -0.31161420360E+02  0.13522482430E+01  0.34024897341E+02  0.51100000000E-03 0. -1.
        -12    1    3    3    0    0  0.16208091841E+02 -0.54598419822E+01 -0.24858565693E+01  0.17282696505E+02  0.00000000000E+00 0.  1.
</event>
<event>
 7    1  0.5761011E-013  0.5930193E+02  0.7816164E-02  0.1266605E+00
        -11   -1    0    0    0    0  0.00000000000E+00  0.00000000000E+00  0.45593999997E+02  0.45594000000E+02  0.51100000000E-03 0. -1.
         11   -1    0    0    0    0 -0.00000000000E+00 -0.00000000000E+00 -0.45593999997E+02  0.45594000000E+02  0.51100000000E-03 0.  1.
    9900012    2    1    2    0    0  0.93727798490E+01 -0.19008319679E+02  0.23823445332E+02  0.59301925193E+02  0.49999965649E+02 0.  0.
        -12    1    1    2    0    0 -0.93727798490E+01  0.19008319679E+02 -0.23823445332E+02  0.31886074807E+02  0.00000000000E+00 0.  1.
         11    1    3    3    0    0  0.16735535686E+02 -0.19695954526E+02  0.17128401563E+02  0.31006304516E+02  0.51100000000E-03 0. -1.
        -11    1    3    3    0    0 -0.13752208577E+02  0.16747265130E+01  0.13191951126E+02  0.19129964046E+02  0.51100000000E-03 0.  1.
         12    1    3    3    0    0  0.63894527396E+01 -0.98709166653E+00 -0.64969073566E+01  0.91656566306E+01  0.00000000000E+00 0. -1.
</event>
<event>
 7    1  0.5761011E-013  0.5930195E+02  0.7816164E-02  0.1266605E+00
        -11   -1    0    0    0    0  0.00000000000E+00  0.00000000000E+00  0.45593999997E+02  0.45594000000E+02  0.51100000000E-03 0.  1.
         11   -1    0    0    0    0 -0.00000000000E+00 -0.00000000000E+00 -0.45593999997E+02  0.45594000000E+02  0.51100000000E-03 0. -1.
    9900012    2    1    2    0    0  0.15071918367E+02 -0.26875528906E+02 -0.82014397909E+01  0.59301946750E+02  0.50000004965E+02 0.  0.
        -12    1    1    2    0    0 -0.15071918367E+02  0.26875528906E+02  0.82014397909E+01  0.31886053250E+02  0.00000000000E+00 0.  1.
         11    1    3    3    0    0  0.12301925416E+02 -0.13043637165E+02 -0.21212691366E+02  0.27775026817E+02  0.51100000000E-03 0. -1.
        -11    1    3    3    0    0 -0.27120682702E+01 -0.68470426876E+01  0.19292624716E+02  0.20650488531E+02  0.51100000000E-03 0.  1.
         12    1    3    3    0    0  0.54820612212E+01 -0.69848490528E+01 -0.62813731409E+01  0.10876431403E+02  0.00000000000E+00 0. -1.
</event>
<event>
 7    1  0.5761011E-013  0.5930193E+02  0.7816164E-02  0.1266605E+00
        -11   -1    0    0    0    0  0.00000000000E+00  0.00000000000E+00  0.45593999997E+02  0.45594000000E+02  0.51100000000E-03 0.  1.
         11   -1    0    0    0    0 -0.00000000000E+00 -0.00000000000E+00 -0.45593999997E+02  0.45594000000E+02  0.51100000000E-03 0. -1.
    9900012    2    1    2    0    0 -0.17342244743E+01  0.53801272715E+01 -0.31381016844E+02  0.59301929026E+02  0.49999972641E+02 0.  0.
        -12    1    1    2    0    0  0.17342244743E+01 -0.53801272715E+01  0.31381016844E+02  0.31886070974E+02  0.00000000000E+00 0.  1.
         11    1    3    3    0    0 -0.74797089312E+01  0.66570518761E+01 -0.40850718347E+02  0.42059999704E+02  0.51100000000E-03 0. -1.
        -11    1    3    3    0    0  0.44663102285E+01 -0.68594623263E+01  0.33050715516E+01  0.88274372660E+01  0.51100000000E-03 0.  1.
         12    1    3    3    0    0  0.12791742284E+01  0.55825377217E+01  0.61646299518E+01  0.84144920562E+01  0.00000000000E+00 0. -1.
</event>
<event>
 7    1  0.5761011E-013  0.5930194E+02  0.7816164E-02  0.1266605E+00
        -11   -1    0    0    0    0  0.00000000000E+00  0.00000000000E+00  0.45593999997E+02  0.45594000000E+02  0.51100000000E-03 0. -1.
         11   -1    0    0    0    0 -0.00000000000E+00 -0.00000000000E+00 -0.45593999997E+02  0.45594000000E+02  0.51100000000E-03 0.  1.
    9900012    2    1    2    0    0 -0.12883643377E+02 -0.26001072626E+02  0.13216540854E+02  0.59301937269E+02  0.49999987673E+02 0.  0.
        -12    1    1    2    0    0  0.12883643377E+02  0.26001072626E+02 -0.13216540854E+02  0.31886062731E+02  0.00000000000E+00 0.  1.
         11    1    3    3    0    0  0.10897160025E+02 -0.14819743372E+02  0.77437303038E+01  0.19958413001E+02  0.51100000000E-03 0. -1.
        -11    1    3    3    0    0 -0.21270337389E+02  0.47273467506E+01 -0.13968895306E+01  0.21834064225E+02  0.51100000000E-03 0.  1.
        -12    1    3    3    0    0 -0.25104660135E+01 -0.15908676004E+02  0.68697000809E+01  0.17509460043E+02  0.00000000000E+00 0.  1.
</event>
<event>
 7    1  0.5761011E-013  0.5930197E+02  0.7816164E-02  0.1266605E+00
        -11   -1    0    0    0    0  0.00000000000E+00  0.00000000000E+00  0.45593999997E+02  0.45594000000E+02  0.51100000000E-03 0.  1.
         11   -1    0    0    0    0 -0.00000000000E+00 -0.00000000000E+00 -0.45593999997E+02  0.45594000000E+02  0.51100000000E-03 0. -1.
    9900012    2    1    2    0    0  0.14564858184E+02 -0.27676356384E+02 -0.62131445120E+01  0.59301969182E+02  0.50000045875E+02 0.  0.
        -12    1    1    2    0    0 -0.14564858184E+02  0.27676356384E+02  0.62131445120E+01  0.31886030818E+02  0.00000000000E+00 0.  1.
         11    1    3    3    0    0  0.12663971580E+02 -0.11955033319E+02 -0.11229315189E+02  0.20721884994E+02  0.51100000000E-03 0. -1.
        -11    1    3    3    0    0  0.14018444707E+02 -0.86831349303E+01  0.14253450861E+02  0.21796203475E+02  0.51100000000E-03 0.  1.
        -12    1    3    3    0    0 -0.12117558103E+02 -0.70381881346E+01 -0.92372801834E+01  0.16783880713E+02  0.00000000000E+00 0.  1.
</event>
<event>
 7    1  0.5761011E-013  0.5930194E+02  0.7816164E-02  0.1266605E+00
        -11   -1    0    0    0    0  0.00000000000E+00  0.00000000000E+00  0.45593999997E+02  0.45594000000E+02  0.51100000000E-03 0.  1.
         11   -1    0    0    0    0 -0.00000000000E+00 -0.00000000000E+00 -0.45593999997E+02  0.45594000000E+02  0.51100000000E-03 0. -1.
    9900012    2    1    2    0    0  0.27085625666E+02  0.13164324445E+02 -0.10478073858E+02  0.59301943681E+02  0.49999999368E+02 0.  0.
        -12    1    1    2    0    0 -0.27085625666E+02 -0.13164324445E+02  0.10478073858E+02  0.31886056319E+02  0.00000000000E+00 0.  1.
         11    1    3    3    0    0  0.14374379719E+01  0.21947519366E+01 -0.12104414294E+02  0.12385475753E+02  0.51100000000E-03 0. -1.
        -11    1    3    3    0    0  0.21071195262E+02 -0.11212251757E+02 -0.21082630439E+01  0.23961524003E+02  0.51100000000E-03 0.  1.
        -12    1    3    3    0    0  0.45769924318E+01  0.22181824265E+02  0.37346034790E+01  0.22954943925E+02  0.00000000000E+00 0.  1.
</event>
<event>
 7    1  0.5761011E-013  0.5930194E+02  0.7816164E-02  0.1266605E+00
        -11   -1    0    0    0    0  0.00000000000E+00  0.00000000000E+00  0.45593999997E+02  0.45594000000E+02  0.51100000000E-03 0.  1.
         11   -1    0    0    0    0 -0.00000000000E+00 -0.00000000000E+00 -0.45593999997E+02  0.45594000000E+02  0.51100000000E-03 0. -1.
    9900012    2    1    2    0    0  0.25713599989E+02  0.18114817707E+02  0.52330389512E+01  0.59301944401E+02  0.50000000681E+02 0.  0.
        -12    1    1    2    0    0 -0.25713599989E+02 -0.18114817707E+02 -0.52330389512E+01  0.31886055599E+02  0.00000000000E+00 0.  1.
         11    1    3    3    0    0  0.30441072812E+02  0.24725112988E+02  0.10086169787E+01  0.39230185249E+02  0.51100000000E-03 0. -1.
        -11    1    3    3    0    0 -0.58893042998E+01  0.37833944584E+01  0.62906538258E+01  0.94111797656E+01  0.51100000000E-03 0.  1.
        -12    1    3    3    0    0  0.11618314770E+01 -0.10393689740E+02 -0.20662318533E+01  0.10660579386E+02  0.00000000000E+00 0.  1.
</event>
<event>
 7    1  0.5761011E-013  0.5930195E+02  0.7816164E-02  0.1266605E+00
        -11   -1    0    0    0    0  0.00000000000E+00  0.00000000000E+00  0.45593999997E+02  0.45594000000E+02  0.51100000000E-03 0. -1.
         11   -1    0    0    0    0 -0.00000000000E+00 -0.00000000000E+00 -0.45593999997E+02  0.45594000000E+02  0.51100000000E-03 0.  1.
    9900012    2    1    2    0    0 -0.22392638268E+02 -0.18980904183E+02  0.12450506833E+02  0.59301951443E+02  0.50000013523E+02 0.  0.
        -12    1    1    2    0    0  0.22392638268E+02  0.18980904183E+02 -0.12450506833E+02  0.31886048557E+02  0.00000000000E+00 0.  1.
         11    1    3    3    0    0  0.10600493997E+02 -0.27528752825E+01 -0.37762239328E+01  0.11584846255E+02  0.51100000000E-03 0. -1.
        -11    1    3    3    0    0 -0.12613712915E+02 -0.88784141068E+01 -0.61183117919E+01  0.16594147463E+02  0.51100000000E-03 0.  1.
         12    1    3    3    0    0 -0.20379419350E+02 -0.73496147933E+01  0.22345042557E+02  0.31122957725E+02  0.00000000000E+00 0. -1.
</event>
<event>
 7    1  0.5761011E-013  0.5930192E+02  0.7816164E-02  0.1266605E+00
        -11   -1    0    0    0    0  0.00000000000E+00  0.00000000000E+00  0.45593999997E+02  0.45594000000E+02  0.51100000000E-03 0.  1.
         11   -1    0    0    0    0 -0.00000000000E+00 -0.00000000000E+00 -0.45593999997E+02  0.45594000000E+02  0.51100000000E-03 0. -1.
    9900012    2    1    2    0    0  0.12469011867E+02  0.20357280553E+02 -0.21138275820E+02  0.59301924150E+02  0.49999963748E+02 0.  0.
        -12    1    1    2    0    0 -0.12469011867E+02 -0.20357280553E+02  0.21138275820E+02  0.31886075850E+02  0.00000000000E+00 0.  1.
         11    1    3    3    0    0  0.12391034807E+02  0.12003851383E+02 -0.18601047453E+02  0.25369847422E+02  0.51100000000E-03 0. -1.
        -11    1    3    3    0    0 -0.14978599637E+02  0.10901109624E+02 -0.22218470086E+01  0.18658221847E+02  0.51100000000E-03 0.  1.
        -12    1    3    3    0    0  0.15056576696E+02 -0.25476804544E+01 -0.31538135833E+00  0.15273854881E+02  0.00000000000E+00 0.  1.
</event>
<event>
 7    1  0.5761011E-013  0.5930196E+02  0.7816164E-02  0.1266605E+00
        -11   -1    0    0    0    0  0.00000000000E+00  0.00000000000E+00  0.45593999997E+02  0.45594000000E+02  0.51100000000E-03 0.  1.
         11   -1    0    0    0    0 -0.00000000000E+00 -0.00000000000E+00 -0.45593999997E+02  0.45594000000E+02  0.51100000000E-03 0. -1.
    9900012    2    1    2    0    0  0.21885722856E+02  0.10390237045E+02 -0.20731079039E+02  0.59301960282E+02  0.50000029644E+02 0.  0.
        -12    1    1    2    0    0 -0.21885722856E+02 -0.10390237045E+02  0.20731079039E+02  0.31886039718E+02  0.00000000000E+00 0.  1.
         11    1    3    3    0    0  0.50827581136E+01 -0.31635867531E+01 -0.22439826766E+02  0.23224739756E+02  0.51100000000E-03 0. -1.
        -11    1    3    3    0    0  0.10482796904E+02  0.16516526057E+02  0.12507458099E+02  0.23218983016E+02  0.51100000000E-03 0.  1.
        -12    1    3    3    0    0  0.63201678378E+01 -0.29627022590E+01 -0.10798710372E+02  0.12858237511E+02  0.00000000000E+00 0.  1.
</event>
<event>
 7    1  0.5761011E-013  0.5930199E+02  0.7816164E-02  0.1266605E+00
        -11   -1    0    0    0    0  0.00000000000E+00  0.00000000000E+00  0.45593999997E+02  0.45594000000E+02  0.51100000000E-03 0.  1.
         11   -1    0    0    0    0 -0.00000000000E+00 -0.00000000000E+00 -0.45593999997E+02  0.45594000000E+02  0.51100000000E-03 0. -1.
    9900012    2    1    2    0    0  0.22167483274E+02  0.43559465828E+01 -0.22502140154E+02  0.59301985874E+02  0.50000076318E+02 0.  0.
        -12    1    1    2    0    0 -0.22167483274E+02 -0.43559465828E+01  0.22502140154E+02  0.31886014126E+02  0.00000000000E+00 0.  1.
         11    1    3    3    0    0  0.12511737037E+02  0.75634360071E+01 -0.16727435499E+02  0.22216125372E+02  0.51100000000E-03 0. -1.
        -11    1    3    3    0    0  0.15804645776E+02 -0.75039211062E+01  0.96163059779E+01  0.19964192971E+02  0.51100000000E-03 0.  1.
        -12    1    3    3    0    0 -0.61488995396E+01  0.42964316820E+01 -0.15391010632E+02  0.17121667531E+02  0.00000000000E+00 0.  1.
</event>
<event>
 7    1  0.5761011E-013  0.5930179E+02  0.7816164E-02  0.1266605E+00
        -11   -1    0    0    0    0  0.00000000000E+00  0.00000000000E+00  0.45593999997E+02  0.45594000000E+02  0.51100000000E-03 0.  1.
         11   -1    0    0    0    0 -0.00000000000E+00 -0.00000000000E+00 -0.45593999997E+02  0.45594000000E+02  0.51100000000E-03 0. -1.
    9900012    2    1    2    0    0  0.18660979827E+02 -0.18697106751E+02 -0.17858229694E+02  0.59301790806E+02  0.49999720560E+02 0.  0.
        -12    1    1    2    0    0 -0.18660979827E+02  0.18697106751E+02  0.17858229694E+02  0.31886209194E+02  0.00000000000E+00 0.  1.
         11    1    3    3    0    0  0.15880663404E+01 -0.21590918650E+02 -0.26016438564E+02  0.33845897812E+02  0.51100000000E-03 0. -1.
        -11    1    3    3    0    0 -0.67764170735E-01 -0.41142576453E+01  0.53137955517E+01  0.67207240221E+01  0.51100000000E-03 0.  1.
         12    1    3    3    0    0  0.17140677657E+02  0.70080695442E+01  0.28444133187E+01  0.18735168972E+02  0.00000000000E+00 0. -1.
</event>
<event>
 7    1  0.5761011E-013  0.5930195E+02  0.7816164E-02  0.1266605E+00
        -11   -1    0    0    0    0  0.00000000000E+00  0.00000000000E+00  0.45593999997E+02  0.45594000000E+02  0.51100000000E-03 0.  1.
         11   -1    0    0    0    0 -0.00000000000E+00 -0.00000000000E+00 -0.45593999997E+02  0.45594000000E+02  0.51100000000E-03 0. -1.
    9900012    2    1    2    0    0  0.25215256294E+01  0.81490029789E+01 -0.30723869443E+02  0.59301945139E+02  0.50000002027E+02 0.  0.
        -12    1    1    2    0    0 -0.25215256294E+01 -0.81490029789E+01  0.30723869443E+02  0.31886054861E+02  0.00000000000E+00 0.  1.
         11    1    3    3    0    0 -0.21555016394E+02  0.62687573491E-01 -0.24132890765E+02  0.32357674181E+02  0.51100000000E-03 0.  1.
        -11    1    3    3    0    0  0.11154375948E+02  0.22808239627E+01 -0.57453091462E+01  0.12752679647E+02  0.51100000000E-03 0. -1.
        -12    1    3    3    0    0  0.12922166075E+02  0.58054914426E+01 -0.84566953152E+00  0.14191591311E+02  0.00000000000E+00 0.  1.
</event>
<event>
 7    1  0.5761011E-013  0.5930195E+02  0.7816164E-02  0.1266605E+00
        -11   -1    0    0    0    0  0.00000000000E+00  0.00000000000E+00  0.45593999997E+02  0.45594000000E+02  0.51100000000E-03 0.  1.
         11   -1    0    0    0    0 -0.00000000000E+00 -0.00000000000E+00 -0.45593999997E+02  0.45594000000E+02  0.51100000000E-03 0. -1.
    9900012    2    1    2    0    0 -0.31409269315E+02 -0.25165585041E+01  0.48831456292E+01  0.59301946986E+02  0.50000005395E+02 0.  0.
        -12    1    1    2    0    0  0.31409269315E+02  0.25165585041E+01 -0.48831456292E+01  0.31886053014E+02  0.00000000000E+00 0.  1.
         11    1    3    3    0    0  0.11603686295E+02 -0.67823360923E+00 -0.45156531925E+01  0.12469830010E+02  0.51100000000E-03 0. -1.
        -11    1    3    3    0    0 -0.12053749148E+02  0.62875404395E+01  0.47414172742E+00  0.13603339441E+02  0.51100000000E-03 0.  1.
         12    1    3    3    0    0 -0.30959206462E+02 -0.81258653344E+01  0.89246570943E+01  0.33228777535E+02  0.00000000000E+00 0. -1.
</event>
<event>
 7    1  0.5761011E-013  0.5930195E+02  0.7816164E-02  0.1266605E+00
        -11   -1    0    0    0    0  0.00000000000E+00  0.00000000000E+00  0.45593999997E+02  0.45594000000E+02  0.51100000000E-03 0.  1.
         11   -1    0    0    0    0 -0.00000000000E+00 -0.00000000000E+00 -0.45593999997E+02  0.45594000000E+02  0.51100000000E-03 0. -1.
    9900012    2    1    2    0    0  0.12106421709E+02  0.15089447540E+02 -0.25346858336E+02  0.59301951309E+02  0.50000013279E+02 0.  0.
        -12    1    1    2    0    0 -0.12106421709E+02 -0.15089447540E+02  0.25346858336E+02  0.31886048691E+02  0.00000000000E+00 0.  1.
         11    1    3    3    0    0 -0.79351305135E+01  0.79251071964E+01 -0.65783191354E+01  0.13001842302E+02  0.51100000000E-03 0. -1.
        -11    1    3    3    0    0  0.22253038397E+02  0.13078674855E+02 -0.26043146913E+02  0.36667355444E+02  0.51100000000E-03 0.  1.
        -12    1    3    3    0    0 -0.22114861750E+01 -0.59143345116E+01  0.72746077129E+01  0.96327535624E+01  0.00000000000E+00 0.  1.
</event>
<event>
 7    1  0.5761011E-013  0.5930182E+02  0.7816164E-02  0.1266605E+00
        -11   -1    0    0    0    0  0.00000000000E+00  0.00000000000E+00  0.45593999997E+02  0.45594000000E+02  0.51100000000E-03 0.  1.
         11   -1    0    0    0    0 -0.00000000000E+00 -0.00000000000E+00 -0.45593999997E+02  0.45594000000E+02  0.51100000000E-03 0. -1.
    9900012    2    1    2    0    0  0.74225718644E+01 -0.21450096895E+02 -0.22394810963E+02  0.59301815093E+02  0.49999764853E+02 0.  0.
        -12    1    1    2    0    0 -0.74225718644E+01  0.21450096895E+02  0.22394810963E+02  0.31886184907E+02  0.00000000000E+00 0.  1.
         11    1    3    3    0    0  0.15052488642E+02 -0.28977867796E+02 -0.10413270747E+02  0.34274340902E+02  0.51100000000E-03 0. -1.
        -11    1    3    3    0    0 -0.39760523107E+01  0.12327027677E+02 -0.16405843560E+01  0.13055884521E+02  0.51100000000E-03 0.  1.
         12    1    3    3    0    0 -0.36538644669E+01 -0.47992567757E+01 -0.10340955860E+02  0.11971589670E+02  0.00000000000E+00 0. -1.
</event>
<event>
 7    1  0.5761011E-013  0.5930189E+02  0.7816164E-02  0.1266605E+00
        -11   -1    0    0    0    0  0.00000000000E+00  0.00000000000E+00  0.45593999997E+02  0.45594000000E+02  0.51100000000E-03 0.  1.
         11   -1    0    0    0    0 -0.00000000000E+00 -0.00000000000E+00 -0.45593999997E+02  0.45594000000E+02  0.51100000000E-03 0. -1.
    9900012    2    1    2    0    0 -0.50565705473E+00 -0.22367757730E+02 -0.22718972061E+02  0.59301890698E+02  0.49999902739E+02 0.  0.
        -12    1    1    2    0    0  0.50565705473E+00  0.22367757730E+02  0.22718972061E+02  0.31886109302E+02  0.00000000000E+00 0.  1.
         11    1    3    3    0    0  0.31087238477E+01 -0.16943871665E+02 -0.33238253006E+02  0.37437152858E+02  0.51100000000E-03 0. -1.
        -11    1    3    3    0    0  0.71496406347E+01 -0.81982572239E+00  0.22810004535E+01  0.75493336627E+01  0.51100000000E-03 0.  1.
         12    1    3    3    0    0 -0.10764021537E+02 -0.46040603424E+01  0.82382804916E+01  0.14315404177E+02  0.00000000000E+00 0. -1.
</event>
<event>
 7    1  0.5761011E-013  0.5930200E+02  0.7816164E-02  0.1266605E+00
        -11   -1    0    0    0    0  0.00000000000E+00  0.00000000000E+00  0.45593999997E+02  0.45594000000E+02  0.51100000000E-03 0.  1.
         11   -1    0    0    0    0 -0.00000000000E+00 -0.00000000000E+00 -0.45593999997E+02  0.45594000000E+02  0.51100000000E-03 0. -1.
    9900012    2    1    2    0    0 -0.30040001275E+02 -0.79315869760E+01 -0.71697523627E+01  0.59301998408E+02  0.50000099177E+02 0.  0.
        -12    1    1    2    0    0  0.30040001275E+02  0.79315869760E+01  0.71697523627E+01  0.31886001592E+02  0.00000000000E+00 0.  1.
         11    1    3    3    0    0 -0.74683257933E+01  0.32932789777E+01  0.85136101848E+01  0.11794199219E+02  0.51100000000E-03 0. -1.
        -11    1    3    3    0    0 -0.10896668964E+02  0.46433831467E+01 -0.23497608459E+02  0.26314178785E+02  0.51100000000E-03 0.  1.
        -12    1    3    3    0    0 -0.11675006518E+02 -0.15868249100E+02  0.78142459113E+01  0.21193620405E+02  0.00000000000E+00 0.  1.
</event>
<event>
 7    1  0.5761011E-013  0.5930194E+02  0.7816164E-02  0.1266605E+00
        -11   -1    0    0    0    0  0.00000000000E+00  0.00000000000E+00  0.45593999997E+02  0.45594000000E+02  0.51100000000E-03 0. -1.
         11   -1    0    0    0    0 -0.00000000000E+00 -0.00000000000E+00 -0.45593999997E+02  0.45594000000E+02  0.51100000000E-03 0.  1.
    9900012    2    1    2    0    0  0.24088933914E+02  0.20884910403E+02 -0.51453750232E+00  0.59301937707E+02  0.49999988473E+02 0.  0.
        -12    1    1    2    0    0 -0.24088933914E+02 -0.20884910403E+02  0.51453750232E+00  0.31886062293E+02  0.00000000000E+00 0.  1.
         11    1    3    3    0    0  0.14809046324E+02 -0.19769271910E+01  0.98892039192E+00  0.14973111165E+02  0.51100000000E-03 0. -1.
        -11    1    3    3    0    0 -0.10816917128E+02  0.38345233062E+00  0.71346240011E+01  0.12963625718E+02  0.51100000000E-03 0.  1.
        -12    1    3    3    0    0  0.20096804718E+02  0.22478385264E+02 -0.86380818954E+01  0.31365200825E+02  0.00000000000E+00 0.  1.
</event>
<event>
 7    1  0.5761011E-013  0.5930190E+02  0.7816164E-02  0.1266605E+00
        -11   -1    0    0    0    0  0.00000000000E+00  0.00000000000E+00  0.45593999997E+02  0.45594000000E+02  0.51100000000E-03 0.  1.
         11   -1    0    0    0    0 -0.00000000000E+00 -0.00000000000E+00 -0.45593999997E+02  0.45594000000E+02  0.51100000000E-03 0. -1.
    9900012    2    1    2    0    0  0.55969519286E+00 -0.44158669543E+01 -0.31573884249E+02  0.59301901050E+02  0.49999921619E+02 0.  0.
        -12    1    1    2    0    0 -0.55969519286E+00  0.44158669543E+01  0.31573884249E+02  0.31886098950E+02  0.00000000000E+00 0.  1.
         11    1    3    3    0    0 -0.88918387362E+01  0.96372690069E+01 -0.29284695851E+02  0.32086370336E+02  0.51100000000E-03 0. -1.
        -11    1    3    3    0    0  0.24390228047E+01 -0.29825027547E+01  0.90817721241E+01  0.98652288417E+01  0.51100000000E-03 0.  1.
        -12    1    3    3    0    0  0.70125111243E+01 -0.11070633206E+02 -0.11370960522E+02  0.17350301872E+02  0.00000000000E+00 0.  1.
</event>
<event>
 7    1  0.5761011E-013  0.5930194E+02  0.7816164E-02  0.1266605E+00
        -11   -1    0    0    0    0  0.00000000000E+00  0.00000000000E+00  0.45593999997E+02  0.45594000000E+02  0.51100000000E-03 0.  1.
         11   -1    0    0    0    0 -0.00000000000E+00 -0.00000000000E+00 -0.45593999997E+02  0.45594000000E+02  0.51100000000E-03 0. -1.
    9900012    2    1    2    0    0  0.21164896727E+02 -0.73825996945E+01 -0.22677412166E+02  0.59301942636E+02  0.49999997461E+02 0.  0.
        -12    1    1    2    0    0 -0.21164896727E+02  0.73825996945E+01  0.22677412166E+02  0.31886057364E+02  0.00000000000E+00 0.  1.
         11    1    3    3    0    0 -0.69791143413E+01 -0.76496484516E+01 -0.99758895544E+01  0.14378578897E+02  0.51100000000E-03 0.  1.
        -11    1    3    3    0    0  0.31920656647E+02 -0.88058541320E+01 -0.11345331498E+02  0.35002684680E+02  0.51100000000E-03 0. -1.
        -12    1    3    3    0    0 -0.37766455785E+01  0.90729028891E+01 -0.13561911136E+01  0.99206790593E+01  0.00000000000E+00 0.  1.
</event>
<event>
 7    1  0.5761011E-013  0.5930194E+02  0.7816164E-02  0.1266605E+00
        -11   -1    0    0    0    0  0.00000000000E+00  0.00000000000E+00  0.45593999997E+02  0.45594000000E+02  0.51100000000E-03 0.  1.
         11   -1    0    0    0    0 -0.00000000000E+00 -0.00000000000E+00 -0.45593999997E+02  0.45594000000E+02  0.51100000000E-03 0. -1.
    9900012    2    1    2    0    0 -0.79904033236E+01 -0.29302065432E+02 -0.97089284725E+01  0.59301939160E+02  0.49999991122E+02 0.  0.
        -12    1    1    2    0    0  0.79904033236E+01  0.29302065432E+02  0.97089284725E+01  0.31886060840E+02  0.00000000000E+00 0.  1.
         11    1    3    3    0    0 -0.76581741989E+01 -0.77049192382E+01 -0.10410734731E+02  0.15046488309E+02  0.51100000000E-03 0.  1.
        -11    1    3    3    0    0  0.72873964947E+01  0.88297898763E+01  0.51888725520E+01  0.12569635458E+02  0.51100000000E-03 0. -1.
        -12    1    3    3    0    0 -0.76196256195E+01 -0.30426936070E+02 -0.44870662937E+01  0.31685815393E+02  0.00000000000E+00 0.  1.
</event>
<event>
 7    1  0.5761011E-013  0.5930195E+02  0.7816164E-02  0.1266605E+00
        -11   -1    0    0    0    0  0.00000000000E+00  0.00000000000E+00  0.45593999997E+02  0.45594000000E+02  0.51100000000E-03 0. -1.
         11   -1    0    0    0    0 -0.00000000000E+00 -0.00000000000E+00 -0.45593999997E+02  0.45594000000E+02  0.51100000000E-03 0.  1.
    9900012    2    1    2    0    0 -0.21780683824E+02 -0.18201383806E+02  0.14526924902E+02  0.59301951210E+02  0.50000013100E+02 0.  0.
        -12    1    1    2    0    0  0.21780683824E+02  0.18201383806E+02 -0.14526924902E+02  0.31886048790E+02  0.00000000000E+00 0.  1.
         11    1    3    3    0    0 -0.10608260064E+02 -0.16606976588E+02  0.18438324292E+02  0.26987009021E+02  0.51100000000E-03 0. -1.
        -11    1    3    3    0    0 -0.75214334742E+01  0.13762385256E+02 -0.50829180875E+01  0.16486699670E+02  0.51100000000E-03 0.  1.
        -12    1    3    3    0    0 -0.36509902854E+01 -0.15356792475E+02  0.11715186976E+01  0.15828242519E+02  0.00000000000E+00 0.  1.
</event>
<event>
 7    1  0.5761011E-013  0.5930194E+02  0.7816164E-02  0.1266605E+00
        -11   -1    0    0    0    0  0.00000000000E+00  0.00000000000E+00  0.45593999997E+02  0.45594000000E+02  0.51100000000E-03 0.  1.
         11   -1    0    0    0    0 -0.00000000000E+00 -0.00000000000E+00 -0.45593999997E+02  0.45594000000E+02  0.51100000000E-03 0. -1.
    9900012    2    1    2    0    0  0.18559034457E+02 -0.11422177300E+02 -0.23276967821E+02  0.59301935251E+02  0.49999983993E+02 0.  0.
        -12    1    1    2    0    0 -0.18559034457E+02  0.11422177300E+02  0.23276967821E+02  0.31886064749E+02  0.00000000000E+00 0.  1.
         11    1    3    3    0    0  0.87300290856E+01 -0.45037805851E+01 -0.29461367293E+02  0.31055911039E+02  0.51100000000E-03 0. -1.
        -11    1    3    3    0    0  0.13147549021E+02 -0.13362693682E+02  0.44026659051E-01  0.18746241391E+02  0.51100000000E-03 0.  1.
        -12    1    3    3    0    0 -0.33185436500E+01  0.64442969666E+01  0.61403728135E+01  0.94997828206E+01  0.00000000000E+00 0.  1.
</event>
<event>
 7    1  0.5761011E-013  0.5930195E+02  0.7816164E-02  0.1266605E+00
        -11   -1    0    0    0    0  0.00000000000E+00  0.00000000000E+00  0.45593999997E+02  0.45594000000E+02  0.51100000000E-03 0.  1.
         11   -1    0    0    0    0 -0.00000000000E+00 -0.00000000000E+00 -0.45593999997E+02  0.45594000000E+02  0.51100000000E-03 0. -1.
    9900012    2    1    2    0    0 -0.96643605431E+00 -0.31864678164E+02  0.65481337021E+00  0.59301945153E+02  0.50000002053E+02 0.  0.
        -12    1    1    2    0    0  0.96643605431E+00  0.31864678164E+02 -0.65481337021E+00  0.31886054847E+02  0.00000000000E+00 0.  1.
         11    1    3    3    0    0 -0.88855712828E+01 -0.16795132827E+02  0.31610479901E+01  0.19261933661E+02  0.51100000000E-03 0. -1.
        -11    1    3    3    0    0  0.22001141056E+01 -0.50073907288E+01 -0.19066874259E+02  0.19835830163E+02  0.51100000000E-03 0.  1.
        -12    1    3    3    0    0  0.57190211229E+01 -0.10062154608E+02  0.16560639639E+02  0.20204181330E+02  0.00000000000E+00 0.  1.
</event>
<event>
 7    1  0.5761011E-013  0.5930195E+02  0.7816164E-02  0.1266605E+00
        -11   -1    0    0    0    0  0.00000000000E+00  0.00000000000E+00  0.45593999997E+02  0.45594000000E+02  0.51100000000E-03 0. -1.
         11   -1    0    0    0    0 -0.00000000000E+00 -0.00000000000E+00 -0.45593999997E+02  0.45594000000E+02  0.51100000000E-03 0.  1.
    9900012    2    1    2    0    0 -0.31455658869E+02  0.43391624484E+01  0.29039760548E+01  0.59301954737E+02  0.50000019531E+02 0.  0.
        -12    1    1    2    0    0  0.31455658869E+02 -0.43391624484E+01 -0.29039760548E+01  0.31886045263E+02  0.00000000000E+00 0.  1.
         11    1    3    3    0    0 -0.24957382206E+00  0.69609520865E+01  0.12526931994E+02  0.14333218986E+02  0.51100000000E-03 0. -1.
        -11    1    3    3    0    0 -0.34672241513E+02 -0.73604136523E+01 -0.22117103572E+01  0.35513823839E+02  0.51100000000E-03 0.  1.
        -12    1    3    3    0    0  0.34661564666E+01  0.47386240141E+01 -0.74112455820E+01  0.94549119126E+01  0.00000000000E+00 0.  1.
</event>
<event>
 7    1  0.5761011E-013  0.5930196E+02  0.7816164E-02  0.1266605E+00
        -11   -1    0    0    0    0  0.00000000000E+00  0.00000000000E+00  0.45593999997E+02  0.45594000000E+02  0.51100000000E-03 0.  1.
         11   -1    0    0    0    0 -0.00000000000E+00 -0.00000000000E+00 -0.45593999997E+02  0.45594000000E+02  0.51100000000E-03 0. -1.
    9900012    2    1    2    0    0  0.32118671143E+01 -0.15210398341E+02 -0.27839669021E+02  0.59301961061E+02  0.50000031064E+02 0.  0.
        -12    1    1    2    0    0 -0.32118671143E+01  0.15210398341E+02  0.27839669021E+02  0.31886038939E+02  0.00000000000E+00 0.  1.
         11    1    3    3    0    0 -0.19799793931E+02 -0.18483056957E+02 -0.12628550724E+02  0.29885373143E+02  0.51100000000E-03 0.  1.
        -11    1    3    3    0    0  0.20406303316E+02  0.54769665853E+01 -0.15157957529E+02  0.26003423904E+02  0.51100000000E-03 0. -1.
         12    1    3    3    0    0  0.26053577295E+01 -0.22043079693E+01 -0.53160767622E-01  0.34131640144E+01  0.00000000000E+00 0. -1.
</event>
<event>
 7    1  0.5761011E-013  0.5930197E+02  0.7816164E-02  0.1266605E+00
        -11   -1    0    0    0    0  0.00000000000E+00  0.00000000000E+00  0.45593999997E+02  0.45594000000E+02  0.51100000000E-03 0. -1.
         11   -1    0    0    0    0 -0.00000000000E+00 -0.00000000000E+00 -0.45593999997E+02  0.45594000000E+02  0.51100000000E-03 0.  1.
    9900012    2    1    2    0    0 -0.74162164364E+01 -0.29009254098E+02 -0.10962736431E+02  0.59301973600E+02  0.50000053932E+02 0.  0.
        -12    1    1    2    0    0  0.74162164364E+01  0.29009254098E+02  0.10962736431E+02  0.31886026400E+02  0.00000000000E+00 0.  1.
         11    1    3    3    0    0 -0.10970738717E+02 -0.52404380565E+01  0.12696541262E+02  0.17579006209E+02  0.51100000000E-03 0. -1.
        -11    1    3    3    0    0 -0.55562625818E+01 -0.11089262718E+02 -0.22957438183E+02  0.26093826275E+02  0.51100000000E-03 0.  1.
         12    1    3    3    0    0  0.91107848627E+01 -0.12679553323E+02 -0.70183950989E+00  0.15629141115E+02  0.00000000000E+00 0. -1.
</event>
<event>
 7    1  0.5761011E-013  0.5930178E+02  0.7816164E-02  0.1266605E+00
        -11   -1    0    0    0    0  0.00000000000E+00  0.00000000000E+00  0.45593999997E+02  0.45594000000E+02  0.51100000000E-03 0. -1.
         11   -1    0    0    0    0 -0.00000000000E+00 -0.00000000000E+00 -0.45593999997E+02  0.45594000000E+02  0.51100000000E-03 0.  1.
    9900012    2    1    2    0    0  0.17899713527E+01  0.25529167155E+02  0.19020746849E+02  0.59301777525E+02  0.49999696338E+02 0.  0.
        -12    1    1    2    0    0 -0.17899713527E+01 -0.25529167155E+02 -0.19020746849E+02  0.31886222475E+02  0.00000000000E+00 0.  1.
         11    1    3    3    0    0 -0.16310237752E+02  0.84682544294E+01  0.67697235012E+01  0.19584798829E+02  0.51100000000E-03 0. -1.
        -11    1    3    3    0    0  0.22341698921E+02  0.23992580069E+01  0.63174782620E+01  0.23341347037E+02  0.51100000000E-03 0.  1.
        -12    1    3    3    0    0 -0.42414898162E+01  0.14661654718E+02  0.59335450855E+01  0.16375631659E+02  0.00000000000E+00 0.  1.
</event>
<event>
 7    1  0.5761011E-013  0.5930191E+02  0.7816164E-02  0.1266605E+00
        -11   -1    0    0    0    0  0.00000000000E+00  0.00000000000E+00  0.45593999997E+02  0.45594000000E+02  0.51100000000E-03 0.  1.
         11   -1    0    0    0    0 -0.00000000000E+00 -0.00000000000E+00 -0.45593999997E+02  0.45594000000E+02  0.51100000000E-03 0. -1.
    9900012    2    1    2    0    0 -0.18910869823E+02  0.24666318717E+02 -0.71185771727E+01  0.59301914986E+02  0.49999947035E+02 0.  0.
        -12    1    1    2    0    0  0.18910869823E+02 -0.24666318717E+02  0.71185771727E+01  0.31886085014E+02  0.00000000000E+00 0.  1.
         11    1    3    3    0    0  0.32780644089E+01 -0.44452021083E+01 -0.52791414717E+01  0.76403444289E+01  0.51100000000E-03 0. -1.
        -11    1    3    3    0    0 -0.14086939487E+02  0.36437518752E+02  0.40097706263E+01  0.39271018547E+02  0.51100000000E-03 0.  1.
        -12    1    3    3    0    0 -0.81019947449E+01 -0.73259979269E+01 -0.58492063273E+01  0.12390552011E+02  0.00000000000E+00 0.  1.
</event>
<event>
 7    1  0.5761011E-013  0.5930190E+02  0.7816164E-02  0.1266605E+00
        -11   -1    0    0    0    0  0.00000000000E+00  0.00000000000E+00  0.45593999997E+02  0.45594000000E+02  0.51100000000E-03 0.  1.
         11   -1    0    0    0    0 -0.00000000000E+00 -0.00000000000E+00 -0.45593999997E+02  0.45594000000E+02  0.51100000000E-03 0. -1.
    9900012    2    1    2    0    0 -0.24555603813E+02 -0.39027129458E+01 -0.19962823568E+02  0.59301903159E+02  0.49999925465E+02 0.  0.
        -12    1    1    2    0    0  0.24555603813E+02  0.39027129458E+01  0.19962823568E+02  0.31886096841E+02  0.00000000000E+00 0.  1.
         11    1    3    3    0    0  0.13222693499E+01 -0.18682071178E+02 -0.75572979621E+01  0.20196062302E+02  0.51100000000E-03 0. -1.
        -11    1    3    3    0    0 -0.19602135904E+02  0.52999716079E+00 -0.69184319455E+00  0.19621500357E+02  0.51100000000E-03 0.  1.
         12    1    3    3    0    0 -0.62757372586E+01  0.14249361072E+02 -0.11713682411E+02  0.19484340500E+02  0.00000000000E+00 0. -1.
</event>
<event>
 7    1  0.5761011E-013  0.5930194E+02  0.7816164E-02  0.1266605E+00
        -11   -1    0    0    0    0  0.00000000000E+00  0.00000000000E+00  0.45593999997E+02  0.45594000000E+02  0.51100000000E-03 0. -1.
         11   -1    0    0    0    0 -0.00000000000E+00 -0.00000000000E+00 -0.45593999997E+02  0.45594000000E+02  0.51100000000E-03 0.  1.
    9900012    2    1    2    0    0 -0.30168031224E+02 -0.92231140122E+01  0.46416189383E+01  0.59301944014E+02  0.49999999974E+02 0.  0.
        -12    1    1    2    0    0  0.30168031224E+02  0.92231140122E+01 -0.46416189383E+01  0.31886055986E+02  0.00000000000E+00 0.  1.
         11    1    3    3    0    0 -0.18366667223E+02 -0.47890853045E+01 -0.19532705798E+02  0.27235939473E+02  0.51100000000E-03 0. -1.
        -11    1    3    3    0    0  0.12873906959E+01 -0.64967811608E+01  0.34498092264E+01  0.74677121138E+01  0.51100000000E-03 0.  1.
         12    1    3    3    0    0 -0.13088754696E+02  0.20627524531E+01  0.20724515510E+02  0.24598292427E+02  0.00000000000E+00 0. -1.
</event>
<event>
 7    1  0.5761011E-013  0.5930195E+02  0.7816164E-02  0.1266605E+00
        -11   -1    0    0    0    0  0.00000000000E+00  0.00000000000E+00  0.45593999997E+02  0.45594000000E+02  0.51100000000E-03 0.  1.
         11   -1    0    0    0    0 -0.00000000000E+00 -0.00000000000E+00 -0.45593999997E+02  0.45594000000E+02  0.51100000000E-03 0. -1.
    9900012    2    1    2    0    0 -0.12732425965E+02  0.12799788554E+02 -0.26282518109E+02  0.59301952642E+02  0.50000015710E+02 0.  0.
        -12    1    1    2    0    0  0.12732425965E+02 -0.12799788554E+02  0.26282518109E+02  0.31886047358E+02  0.00000000000E+00 0.  1.
         11    1    3    3    0    0 -0.37085167631E+00  0.89876611954E+01 -0.10973514728E+02  0.14189207535E+02  0.51100000000E-03 0. -1.
        -11    1    3    3    0    0  0.10983132807E+02 -0.91572594558E+01  0.61371419909E-01  0.14299943137E+02  0.51100000000E-03 0.  1.
        -12    1    3    3    0    0 -0.23344707095E+02  0.12969386815E+02 -0.15370374801E+02  0.30812801970E+02  0.00000000000E+00 0.  1.
</event>
<event>
 7    1  0.5761011E-013  0.5930194E+02  0.7816164E-02  0.1266605E+00
        -11   -1    0    0    0    0  0.00000000000E+00  0.00000000000E+00  0.45593999997E+02  0.45594000000E+02  0.51100000000E-03 0.  1.
         11   -1    0    0    0    0 -0.00000000000E+00 -0.00000000000E+00 -0.45593999997E+02  0.45594000000E+02  0.51100000000E-03 0. -1.
    9900012    2    1    2    0    0  0.19653814668E+02 -0.20465399896E+02 -0.14547018097E+02  0.59301940986E+02  0.49999994453E+02 0.  0.
        -12    1    1    2    0    0 -0.19653814668E+02  0.20465399896E+02  0.14547018097E+02  0.31886059014E+02  0.00000000000E+00 0.  1.
         11    1    3    3    0    0  0.15218328717E+02 -0.60496129314E+01 -0.35346553133E+01  0.16753779693E+02  0.51100000000E-03 0. -1.
        -11    1    3    3    0    0 -0.78947032314E+01  0.72010325642E+01 -0.13858606878E+02  0.17499776969E+02  0.51100000000E-03 0.  1.
        -12    1    3    3    0    0  0.12330189183E+02 -0.21616819529E+02  0.28462440937E+01  0.25048384325E+02  0.00000000000E+00 0.  1.
</event>
<event>
 7    1  0.5761011E-013  0.5930203E+02  0.7816164E-02  0.1266604E+00
        -11   -1    0    0    0    0  0.00000000000E+00  0.00000000000E+00  0.45593999997E+02  0.45594000000E+02  0.51100000000E-03 0.  1.
         11   -1    0    0    0    0 -0.00000000000E+00 -0.00000000000E+00 -0.45593999997E+02  0.45594000000E+02  0.51100000000E-03 0. -1.
    9900012    2    1    2    0    0 -0.28608466012E+02 -0.11529098893E+02 -0.80839890822E+01  0.59302026151E+02  0.50000149772E+02 0.  0.
        -12    1    1    2    0    0  0.28608466012E+02  0.11529098893E+02  0.80839890822E+01  0.31885973849E+02  0.00000000000E+00 0.  1.
         11    1    3    3    0    0  0.24921222407E+01  0.60513840602E+00 -0.11263991289E+02  0.11552245054E+02  0.51100000000E-03 0. -1.
        -11    1    3    3    0    0 -0.15990656442E+02 -0.16495617027E+02  0.15549357683E+02  0.27741467141E+02  0.51100000000E-03 0.  1.
        -12    1    3    3    0    0 -0.15109931811E+02  0.43613797283E+01 -0.12369355475E+02  0.20008313956E+02  0.00000000000E+00 0.  1.
</event>
<event>
 7    1  0.5761011E-013  0.5930196E+02  0.7816164E-02  0.1266605E+00
        -11   -1    0    0    0    0  0.00000000000E+00  0.00000000000E+00  0.45593999997E+02  0.45594000000E+02  0.51100000000E-03 0.  1.
         11   -1    0    0    0    0 -0.00000000000E+00 -0.00000000000E+00 -0.45593999997E+02  0.45594000000E+02  0.51100000000E-03 0. -1.
    9900012    2    1    2    0    0 -0.13960115425E+02  0.23840911212E+02 -0.15919982846E+02  0.59301957224E+02  0.50000024067E+02 0.  0.
        -12    1    1    2    0    0  0.13960115425E+02 -0.23840911212E+02  0.15919982846E+02  0.31886042776E+02  0.00000000000E+00 0.  1.
         11    1    3    3    0    0  0.71943629163E+01  0.28367535407E+01 -0.17994993097E+02  0.19586367842E+02  0.51100000000E-03 0. -1.
        -11    1    3    3    0    0 -0.18986033762E+02  0.11329940944E+01  0.45984687792E+01  0.19567806955E+02  0.51100000000E-03 0.  1.
         12    1    3    3    0    0 -0.21684445792E+01  0.19871163577E+02 -0.25234585285E+01  0.20147782427E+02  0.00000000000E+00 0. -1.
</event>
<event>
 7    1  0.5761011E-013  0.5930192E+02  0.7816164E-02  0.1266605E+00
        -11   -1    0    0    0    0  0.00000000000E+00  0.00000000000E+00  0.45593999997E+02  0.45594000000E+02  0.51100000000E-03 0. -1.
         11   -1    0    0    0    0 -0.00000000000E+00 -0.00000000000E+00 -0.45593999997E+02  0.45594000000E+02  0.51100000000E-03 0.  1.
    9900012    2    1    2    0    0  0.15740536440E+02  0.15928184216E+01 -0.27684299037E+02  0.59301921986E+02  0.49999959802E+02 0.  0.
        -12    1    1    2    0    0 -0.15740536440E+02 -0.15928184216E+01  0.27684299037E+02  0.31886078014E+02  0.00000000000E+00 0.  1.
         11    1    3    3    0    0  0.43830606554E+01  0.12282127417E+02  0.81968319356E+00  0.13066512748E+02  0.51100000000E-03 0. -1.
        -11    1    3    3    0    0  0.45893221633E+01 -0.12685080822E+02 -0.34456964634E+02  0.37003453426E+02  0.51100000000E-03 0.  1.
        -12    1    3    3    0    0  0.67681536214E+01  0.19957718275E+01  0.59529824038E+01  0.92319558128E+01  0.00000000000E+00 0.  1.
</event>
<event>
 7    1  0.5761011E-013  0.5930194E+02  0.7816164E-02  0.1266605E+00
        -11   -1    0    0    0    0  0.00000000000E+00  0.00000000000E+00  0.45593999997E+02  0.45594000000E+02  0.51100000000E-03 0. -1.
         11   -1    0    0    0    0 -0.00000000000E+00 -0.00000000000E+00 -0.45593999997E+02  0.45594000000E+02  0.51100000000E-03 0.  1.
    9900012    2    1    2    0    0  0.32971396944E+01  0.73293496323E+00  0.31706665702E+02  0.59301937625E+02  0.49999988323E+02 0.  0.
        -12    1    1    2    0    0 -0.32971396944E+01 -0.73293496323E+00 -0.31706665702E+02  0.31886062375E+02  0.00000000000E+00 0.  1.
         11    1    3    3    0    0  0.61179223563E+01 -0.19111802639E+02  0.17035631422E+02  0.26323045270E+02  0.51100000000E-03 0. -1.
        -11    1    3    3    0    0 -0.11983487544E+02  0.91798183017E+01  0.49543890774E+01  0.15887699933E+02  0.51100000000E-03 0.  1.
         12    1    3    3    0    0  0.91627048816E+01  0.10664919300E+02  0.97166452027E+01  0.17091192423E+02  0.00000000000E+00 0. -1.
</event>
<event>
 7    1  0.5761011E-013  0.5930196E+02  0.7816164E-02  0.1266605E+00
        -11   -1    0    0    0    0  0.00000000000E+00  0.00000000000E+00  0.45593999997E+02  0.45594000000E+02  0.51100000000E-03 0.  1.
         11   -1    0    0    0    0 -0.00000000000E+00 -0.00000000000E+00 -0.45593999997E+02  0.45594000000E+02  0.51100000000E-03 0. -1.
    9900012    2    1    2    0    0  0.22269657614E+02  0.44053000630E+01 -0.22391416021E+02  0.59301955555E+02  0.50000021024E+02 0.  0.
        -12    1    1    2    0    0 -0.22269657614E+02 -0.44053000630E+01  0.22391416021E+02  0.31886044445E+02  0.00000000000E+00 0.  1.
         11    1    3    3    0    0  0.23064822594E+02 -0.89230054527E+01 -0.15111751584E+02  0.28982254982E+02  0.51100000000E-03 0. -1.
        -11    1    3    3    0    0 -0.90073832942E+01  0.13356300698E+02 -0.12671049722E+02  0.20495834295E+02  0.51100000000E-03 0.  1.
         12    1    3    3    0    0  0.82122183141E+01 -0.27995182120E-01  0.53913852851E+01  0.98238662786E+01  0.00000000000E+00 0. -1.
</event>
<event>
 7    1  0.5761011E-013  0.5930195E+02  0.7816164E-02  0.1266605E+00
        -11   -1    0    0    0    0  0.00000000000E+00  0.00000000000E+00  0.45593999997E+02  0.45594000000E+02  0.51100000000E-03 0.  1.
         11   -1    0    0    0    0 -0.00000000000E+00 -0.00000000000E+00 -0.45593999997E+02  0.45594000000E+02  0.51100000000E-03 0. -1.
    9900012    2    1    2    0    0 -0.17090345760E+02 -0.23504079433E+02  0.13122434134E+02  0.59301953745E+02  0.50000017721E+02 0.  0.
        -12    1    1    2    0    0  0.17090345760E+02  0.23504079433E+02 -0.13122434134E+02  0.31886046255E+02  0.00000000000E+00 0.  1.
         11    1    3    3    0    0 -0.24088681532E+01 -0.81312957347E+01 -0.64546969859E+01  0.10657566774E+02  0.51100000000E-03 0. -1.
        -11    1    3    3    0    0 -0.68452854540E+01 -0.86710051898E+01  0.31205255259E+02  0.33103054542E+02  0.51100000000E-03 0.  1.
        -12    1    3    3    0    0 -0.78361921529E+01 -0.67017785089E+01 -0.11628124140E+02  0.15541332428E+02  0.00000000000E+00 0.  1.
</event>
<event>
 7    1  0.5761011E-013  0.5930197E+02  0.7816164E-02  0.1266605E+00
        -11   -1    0    0    0    0  0.00000000000E+00  0.00000000000E+00  0.45593999997E+02  0.45594000000E+02  0.51100000000E-03 0.  1.
         11   -1    0    0    0    0 -0.00000000000E+00 -0.00000000000E+00 -0.45593999997E+02  0.45594000000E+02  0.51100000000E-03 0. -1.
    9900012    2    1    2    0    0  0.23541692892E+02 -0.19056298660E+02 -0.99681985356E+01  0.59301971635E+02  0.50000050349E+02 0.  0.
        -12    1    1    2    0    0 -0.23541692892E+02  0.19056298660E+02  0.99681985356E+01  0.31886028365E+02  0.00000000000E+00 0.  1.
         11    1    3    3    0    0  0.26677721320E+02 -0.74278692012E+00 -0.77802518554E+01  0.27799008371E+02  0.51100000000E-03 0. -1.
        -11    1    3    3    0    0 -0.93426107910E+01 -0.93634822690E+00  0.61812549362E+01  0.11241398367E+02  0.51100000000E-03 0.  1.
         12    1    3    3    0    0  0.62065823630E+01 -0.17377163513E+02 -0.83692016164E+01  0.20261564897E+02  0.00000000000E+00 0. -1.
</event>
<event>
 7    1  0.5761011E-013  0.5930194E+02  0.7816164E-02  0.1266605E+00
        -11   -1    0    0    0    0  0.00000000000E+00  0.00000000000E+00  0.45593999997E+02  0.45594000000E+02  0.51100000000E-03 0.  1.
         11   -1    0    0    0    0 -0.00000000000E+00 -0.00000000000E+00 -0.45593999997E+02  0.45594000000E+02  0.51100000000E-03 0. -1.
    9900012    2    1    2    0    0 -0.31325473355E+01 -0.24258482294E+02 -0.20455657998E+02  0.59301940975E+02  0.49999994433E+02 0.  0.
        -12    1    1    2    0    0  0.31325473355E+01  0.24258482294E+02  0.20455657998E+02  0.31886059025E+02  0.00000000000E+00 0.  1.
         11    1    3    3    0    0  0.88813854460E+01 -0.20185852299E+02 -0.13419920097E+02  0.25815535945E+02  0.51100000000E-03 0. -1.
        -11    1    3    3    0    0 -0.14195496240E+02  0.10590619304E+02 -0.19695745258E+01  0.17820004343E+02  0.51100000000E-03 0.  1.
        -12    1    3    3    0    0  0.21815634582E+01 -0.14663249299E+02 -0.50661633754E+01  0.15666400687E+02  0.00000000000E+00 0.  1.
</event>
<event>
 7    1  0.5761011E-013  0.5930188E+02  0.7816164E-02  0.1266605E+00
        -11   -1    0    0    0    0  0.00000000000E+00  0.00000000000E+00  0.45593999997E+02  0.45594000000E+02  0.51100000000E-03 0. -1.
         11   -1    0    0    0    0 -0.00000000000E+00 -0.00000000000E+00 -0.45593999997E+02  0.45594000000E+02  0.51100000000E-03 0.  1.
    9900012    2    1    2    0    0  0.26399902908E+02 -0.17055168298E+02  0.53750227876E+01  0.59301882187E+02  0.49999887217E+02 0.  0.
        -12    1    1    2    0    0 -0.26399902908E+02  0.17055168298E+02 -0.53750227876E+01  0.31886117813E+02  0.00000000000E+00 0.  1.
         11    1    3    3    0    0  0.33438679244E+02 -0.27635579072E+01 -0.24313331069E+01  0.33640658478E+02  0.51100000000E-03 0. -1.
        -11    1    3    3    0    0 -0.16868069381E+01 -0.66999275141E+01 -0.59125972131E+01  0.90935775361E+01  0.51100000000E-03 0.  1.
         12    1    3    3    0    0 -0.53519693978E+01 -0.75916828770E+01  0.13718953108E+02  0.16567646173E+02  0.00000000000E+00 0. -1.
</event>
<event>
 7    1  0.5761011E-013  0.5930194E+02  0.7816164E-02  0.1266605E+00
        -11   -1    0    0    0    0  0.00000000000E+00  0.00000000000E+00  0.45593999997E+02  0.45594000000E+02  0.51100000000E-03 0.  1.
         11   -1    0    0    0    0 -0.00000000000E+00 -0.00000000000E+00 -0.45593999997E+02  0.45594000000E+02  0.51100000000E-03 0. -1.
    9900012    2    1    2    0    0  0.28474718009E+02 -0.67399819785E+01 -0.12668228207E+02  0.59301938332E+02  0.49999989613E+02 0.  0.
        -12    1    1    2    0    0 -0.28474718009E+02  0.67399819785E+01  0.12668228207E+02  0.31886061668E+02  0.00000000000E+00 0.  1.
         11    1    3    3    0    0  0.19001084274E+02  0.32258540240E+01 -0.28260993841E+02  0.34207179231E+02  0.51100000000E-03 0. -1.
        -11    1    3    3    0    0  0.10764337272E+01 -0.11069870498E+02  0.77894041160E+01  0.13578496204E+02  0.51100000000E-03 0.  1.
         12    1    3    3    0    0  0.83972000080E+01  0.11040344960E+01  0.78033615180E+01  0.11516262898E+02  0.00000000000E+00 0. -1.
</event>
<event>
 7    1  0.5761011E-013  0.5930194E+02  0.7816164E-02  0.1266605E+00
        -11   -1    0    0    0    0  0.00000000000E+00  0.00000000000E+00  0.45593999997E+02  0.45594000000E+02  0.51100000000E-03 0. -1.
         11   -1    0    0    0    0 -0.00000000000E+00 -0.00000000000E+00 -0.45593999997E+02  0.45594000000E+02  0.51100000000E-03 0.  1.
    9900012    2    1    2    0    0  0.22459599805E+02 -0.20038294410E+02  0.10523975044E+02  0.59301938516E+02  0.49999989948E+02 0.  0.
        -12    1    1    2    0    0 -0.22459599805E+02  0.20038294410E+02 -0.10523975044E+02  0.31886061484E+02  0.00000000000E+00 0.  1.
         11    1    3    3    0    0  0.14523577611E+00 -0.93302653054E+00  0.85327249074E+01  0.85848137163E+01  0.51100000000E-03 0. -1.
        -11    1    3    3    0    0  0.33158261235E+01 -0.28347510983E+02  0.61214993671E+01  0.29189875583E+02  0.51100000000E-03 0.  1.
        -12    1    3    3    0    0  0.18998537905E+02  0.92422431037E+01 -0.41302492303E+01  0.21527249216E+02  0.00000000000E+00 0.  1.
</event>
<event>
 7    1  0.5761011E-013  0.5930185E+02  0.7816164E-02  0.1266605E+00
        -11   -1    0    0    0    0  0.00000000000E+00  0.00000000000E+00  0.45593999997E+02  0.45594000000E+02  0.51100000000E-03 0.  1.
         11   -1    0    0    0    0 -0.00000000000E+00 -0.00000000000E+00 -0.45593999997E+02  0.45594000000E+02  0.51100000000E-03 0. -1.
    9900012    2    1    2    0    0  0.29335658556E+02  0.12413569225E+02  0.14315068188E+01  0.59301846648E+02  0.49999822402E+02 0.  0.
        -12    1    1    2    0    0 -0.29335658556E+02 -0.12413569225E+02 -0.14315068188E+01  0.31886153352E+02  0.00000000000E+00 0.  1.
         11    1    3    3    0    0  0.27224729504E+02  0.12955735437E+02 -0.45126994688E+01  0.30486085908E+02  0.51100000000E-03 0. -1.
        -11    1    3    3    0    0 -0.17251842054E+01 -0.13897120775E+02  0.50699232536E+01  0.14893298776E+02  0.51100000000E-03 0.  1.
        -12    1    3    3    0    0  0.38361132580E+01  0.13354954563E+02  0.87428303396E+00  0.13922461963E+02  0.00000000000E+00 0.  1.
</event>
<event>
 7    1  0.5761011E-013  0.5930195E+02  0.7816164E-02  0.1266605E+00
        -11   -1    0    0    0    0  0.00000000000E+00  0.00000000000E+00  0.45593999997E+02  0.45594000000E+02  0.51100000000E-03 0.  1.
         11   -1    0    0    0    0 -0.00000000000E+00 -0.00000000000E+00 -0.45593999997E+02  0.45594000000E+02  0.51100000000E-03 0. -1.
    9900012    2    1    2    0    0  0.87953506855E+00 -0.14135026889E+02 -0.28568302738E+02  0.59301945236E+02  0.50000002203E+02 0.  0.
        -12    1    1    2    0    0 -0.87953506855E+00  0.14135026889E+02  0.28568302738E+02  0.31886054764E+02  0.00000000000E+00 0.  1.
         11    1    3    3    0    0 -0.28593247164E+01  0.55005710244E+01  0.24916582891E+01  0.66813457267E+01  0.51100000000E-03 0. -1.
        -11    1    3    3    0    0  0.13630779327E+02 -0.22174431968E+02 -0.77286652280E+01  0.27152087298E+02  0.51100000000E-03 0.  1.
        -12    1    3    3    0    0 -0.98919195425E+01  0.25388340545E+01 -0.23331295799E+02  0.25468512211E+02  0.00000000000E+00 0.  1.
</event>
<event>
 7    1  0.5761011E-013  0.5930196E+02  0.7816164E-02  0.1266605E+00
        -11   -1    0    0    0    0  0.00000000000E+00  0.00000000000E+00  0.45593999997E+02  0.45594000000E+02  0.51100000000E-03 0.  1.
         11   -1    0    0    0    0 -0.00000000000E+00 -0.00000000000E+00 -0.45593999997E+02  0.45594000000E+02  0.51100000000E-03 0. -1.
    9900012    2    1    2    0    0 -0.10139975990E+02 -0.34796697849E+01 -0.30029861268E+02  0.59301956302E+02  0.50000022386E+02 0.  0.
        -12    1    1    2    0    0  0.10139975990E+02  0.34796697849E+01  0.30029861268E+02  0.31886043698E+02  0.00000000000E+00 0.  1.
         11    1    3    3    0    0  0.41212169209E+01 -0.31299114482E+01 -0.61848826781E+01  0.80643380749E+01  0.51100000000E-03 0. -1.
        -11    1    3    3    0    0 -0.15730759714E+02  0.14995262382E+02 -0.27835046612E+02  0.35314366981E+02  0.51100000000E-03 0.  1.
        -12    1    3    3    0    0  0.14695668023E+01 -0.15345020719E+02  0.39900680217E+01  0.15923251247E+02  0.00000000000E+00 0.  1.
</event>
<event>
 7    1  0.5761011E-013  0.5930197E+02  0.7816164E-02  0.1266605E+00
        -11   -1    0    0    0    0  0.00000000000E+00  0.00000000000E+00  0.45593999997E+02  0.45594000000E+02  0.51100000000E-03 0. -1.
         11   -1    0    0    0    0 -0.00000000000E+00 -0.00000000000E+00 -0.45593999997E+02  0.45594000000E+02  0.51100000000E-03 0.  1.
    9900012    2    1    2    0    0 -0.29295547981E+02 -0.25394191550E+01  0.12330484439E+02  0.59301974414E+02  0.50000055417E+02 0.  0.
        -12    1    1    2    0    0  0.29295547981E+02  0.25394191550E+01 -0.12330484439E+02  0.31886025586E+02  0.00000000000E+00 0.  1.
         11    1    3    3    0    0  0.10148545004E+01 -0.29461926373E+00  0.15896509305E+02  0.15931595605E+02  0.51100000000E-03 0. -1.
        -11    1    3    3    0    0 -0.95691510299E+01 -0.61037568462E+01 -0.15438692752E+02  0.19161882299E+02  0.51100000000E-03 0.  1.
        -12    1    3    3    0    0 -0.20741251452E+02  0.38589569549E+01  0.11872667886E+02  0.24208496511E+02  0.00000000000E+00 0.  1.
</event>
<event>
 7    1  0.5761011E-013  0.5930193E+02  0.7816164E-02  0.1266605E+00
        -11   -1    0    0    0    0  0.00000000000E+00  0.00000000000E+00  0.45593999997E+02  0.45594000000E+02  0.51100000000E-03 0.  1.
         11   -1    0    0    0    0 -0.00000000000E+00 -0.00000000000E+00 -0.45593999997E+02  0.45594000000E+02  0.51100000000E-03 0. -1.
    9900012    2    1    2    0    0  0.11134151678E+02 -0.97308644769E+01 -0.28249998282E+02  0.59301930001E+02  0.49999974418E+02 0.  0.
        -12    1    1    2    0    0 -0.11134151678E+02  0.97308644769E+01  0.28249998282E+02  0.31886069999E+02  0.00000000000E+00 0.  1.
         11    1    3    3    0    0  0.17077980907E+02 -0.66103438208E+01 -0.17834966768E+02  0.25562474785E+02  0.51100000000E-03 0. -1.
        -11    1    3    3    0    0 -0.15675002175E+02 -0.10119280314E+02 -0.11141185241E+02  0.21730888986E+02  0.51100000000E-03 0.  1.
        -12    1    3    3    0    0  0.97311729461E+01  0.69987596581E+01  0.72615372631E+00  0.12008566230E+02  0.00000000000E+00 0.  1.
</event>
<event>
 7    1  0.5761011E-013  0.5930194E+02  0.7816164E-02  0.1266605E+00
        -11   -1    0    0    0    0  0.00000000000E+00  0.00000000000E+00  0.45593999997E+02  0.45594000000E+02  0.51100000000E-03 0. -1.
         11   -1    0    0    0    0 -0.00000000000E+00 -0.00000000000E+00 -0.45593999997E+02  0.45594000000E+02  0.51100000000E-03 0.  1.
    9900012    2    1    2    0    0  0.15848052257E+02  0.27314135068E+02  0.44156653219E+01  0.59301939800E+02  0.49999992289E+02 0.  0.
        -12    1    1    2    0    0 -0.15848052257E+02 -0.27314135068E+02 -0.44156653219E+01  0.31886060200E+02  0.00000000000E+00 0.  1.
         11    1    3    3    0    0  0.14056627131E+02  0.80776219928E+01  0.13829718849E+02  0.21309572193E+02  0.51100000000E-03 0. -1.
        -11    1    3    3    0    0 -0.10855389824E+02  0.78549531242E+01 -0.14973052526E+02  0.20093085354E+02  0.51100000000E-03 0.  1.
        -12    1    3    3    0    0  0.12646814950E+02  0.11381559951E+02  0.55589989995E+01  0.17899282253E+02  0.00000000000E+00 0.  1.
</event>
<event>
 7    1  0.5761011E-013  0.5930195E+02  0.7816164E-02  0.1266605E+00
        -11   -1    0    0    0    0  0.00000000000E+00  0.00000000000E+00  0.45593999997E+02  0.45594000000E+02  0.51100000000E-03 0.  1.
         11   -1    0    0    0    0 -0.00000000000E+00 -0.00000000000E+00 -0.45593999997E+02  0.45594000000E+02  0.51100000000E-03 0. -1.
    9900012    2    1    2    0    0 -0.30077493634E+02 -0.50095311678E+01 -0.93257118697E+01  0.59301954028E+02  0.50000018238E+02 0.  0.
        -12    1    1    2    0    0  0.30077493634E+02  0.50095311678E+01  0.93257118697E+01  0.31886045972E+02  0.00000000000E+00 0.  1.
         11    1    3    3    0    0 -0.26500263335E+01 -0.12576759581E+02 -0.20739910407E+02  0.24399618953E+02  0.51100000000E-03 0. -1.
        -11    1    3    3    0    0 -0.27140818620E+02  0.17963815591E+01  0.96442612911E+01  0.28859362401E+02  0.51100000000E-03 0.  1.
        -12    1    3    3    0    0 -0.28664868061E+00  0.57708468544E+01  0.17699372458E+01  0.60429726739E+01  0.00000000000E+00 0.  1.
</event>
<event>
 7    1  0.5761011E-013  0.5930196E+02  0.7816164E-02  0.1266605E+00
        -11   -1    0    0    0    0  0.00000000000E+00  0.00000000000E+00  0.45593999997E+02  0.45594000000E+02  0.51100000000E-03 0. -1.
         11   -1    0    0    0    0 -0.00000000000E+00 -0.00000000000E+00 -0.45593999997E+02  0.45594000000E+02  0.51100000000E-03 0.  1.
    9900012    2    1    2    0    0  0.29394858583E+02 -0.45195418983E+01  0.11499363566E+02  0.59301963362E+02  0.50000035260E+02 0.  0.
        -12    1    1    2    0    0 -0.29394858583E+02  0.45195418983E+01 -0.11499363566E+02  0.31886036638E+02  0.00000000000E+00 0.  1.
         11    1    3    3    0    0  0.33826019767E+02 -0.14494902794E+02  0.22690321397E+02  0.43233696414E+02  0.51100000000E-03 0. -1.
        -11    1    3    3    0    0 -0.14663708073E+01  0.28367843621E+01 -0.58755757129E+01  0.66872998348E+01  0.51100000000E-03 0.  1.
         12    1    3    3    0    0 -0.29647903768E+01  0.71385765337E+01 -0.53153821178E+01  0.93809671124E+01  0.00000000000E+00 0. -1.
</event>
<event>
 7    1  0.5761011E-013  0.5930193E+02  0.7816164E-02  0.1266605E+00
        -11   -1    0    0    0    0  0.00000000000E+00  0.00000000000E+00  0.45593999997E+02  0.45594000000E+02  0.51100000000E-03 0. -1.
         11   -1    0    0    0    0 -0.00000000000E+00 -0.00000000000E+00 -0.45593999997E+02  0.45594000000E+02  0.51100000000E-03 0.  1.
    9900012    2    1    2    0    0  0.10698068263E+02 -0.23299468601E+02  0.18958041071E+02  0.59301933719E+02  0.49999981199E+02 0.  0.
        -12    1    1    2    0    0 -0.10698068263E+02  0.23299468601E+02 -0.18958041071E+02  0.31886066281E+02  0.00000000000E+00 0.  1.
         11    1    3    3    0    0  0.73794913751E+01 -0.96894220128E+01  0.94957796010E+01  0.15443821496E+02  0.51100000000E-03 0. -1.
        -11    1    3    3    0    0 -0.15753271280E+02 -0.44418374408E+01 -0.62304307271E+01  0.17513244793E+02  0.51100000000E-03 0.  1.
        -12    1    3    3    0    0  0.19071848168E+02 -0.91682091471E+01  0.15692692197E+02  0.26344867430E+02  0.00000000000E+00 0.  1.
</event>
<event>
 7    1  0.5761011E-013  0.5930201E+02  0.7816164E-02  0.1266605E+00
        -11   -1    0    0    0    0  0.00000000000E+00  0.00000000000E+00  0.45593999997E+02  0.45594000000E+02  0.51100000000E-03 0. -1.
         11   -1    0    0    0    0 -0.00000000000E+00 -0.00000000000E+00 -0.45593999997E+02  0.45594000000E+02  0.51100000000E-03 0.  1.
    9900012    2    1    2    0    0 -0.16513005493E+02 -0.19677474575E+02  0.18890052238E+02  0.59302008882E+02  0.50000118278E+02 0.  0.
        -12    1    1    2    0    0  0.16513005493E+02  0.19677474575E+02 -0.18890052238E+02  0.31885991118E+02  0.00000000000E+00 0.  1.
         11    1    3    3    0    0 -0.12108820211E+02 -0.15645905938E+02  0.29225721251E+01  0.19998983164E+02  0.51100000000E-03 0. -1.
        -11    1    3    3    0    0 -0.13584434636E+02  0.98693430651E+01  0.15164038478E+02  0.22624960997E+02  0.51100000000E-03 0.  1.
        -12    1    3    3    0    0  0.91802493540E+01 -0.13900911702E+02  0.80344163485E+00  0.16678064720E+02  0.00000000000E+00 0.  1.
</event>
<event>
 7    1  0.5761011E-013  0.5930196E+02  0.7816164E-02  0.1266605E+00
        -11   -1    0    0    0    0  0.00000000000E+00  0.00000000000E+00  0.45593999997E+02  0.45594000000E+02  0.51100000000E-03 0.  1.
         11   -1    0    0    0    0 -0.00000000000E+00 -0.00000000000E+00 -0.45593999997E+02  0.45594000000E+02  0.51100000000E-03 0. -1.
    9900012    2    1    2    0    0 -0.12874378700E+01  0.21765895564E+02 -0.23266022406E+02  0.59301960663E+02  0.50000030339E+02 0.  0.
        -12    1    1    2    0    0  0.12874378700E+01 -0.21765895564E+02  0.23266022406E+02  0.31886039337E+02  0.00000000000E+00 0.  1.
         11    1    3    3    0    0  0.21714690579E+02  0.35518433622E+01 -0.44783172968E+01  0.22454369381E+02  0.51100000000E-03 0. -1.
        -11    1    3    3    0    0 -0.78852535994E+01  0.51863392421E+01  0.18116548446E-02  0.94379734374E+01  0.51100000000E-03 0.  1.
         12    1    3    3    0    0 -0.15116874850E+02  0.13027712959E+02 -0.18789516764E+02  0.27409617845E+02  0.00000000000E+00 0. -1.
</event>
<event>
 7    1  0.5761011E-013  0.5930194E+02  0.7816164E-02  0.1266605E+00
        -11   -1    0    0    0    0  0.00000000000E+00  0.00000000000E+00  0.45593999997E+02  0.45594000000E+02  0.51100000000E-03 0. -1.
         11   -1    0    0    0    0 -0.00000000000E+00 -0.00000000000E+00 -0.45593999997E+02  0.45594000000E+02  0.51100000000E-03 0.  1.
    9900012    2    1    2    0    0 -0.75129708144E+01  0.83855550834E+00  0.30976973612E+02  0.59301940351E+02  0.49999993294E+02 0.  0.
        -12    1    1    2    0    0  0.75129708144E+01 -0.83855550834E+00 -0.30976973612E+02  0.31886059649E+02  0.00000000000E+00 0.  1.
         11    1    3    3    0    0  0.15446409274E+02  0.92020513136E+01  0.25689160159E+02  0.31356056157E+02  0.51100000000E-03 0.  1.
        -11    1    3    3    0    0 -0.21919295898E+02 -0.60400533686E+01  0.81154271488E+01  0.24141208243E+02  0.51100000000E-03 0. -1.
        -12    1    3    3    0    0 -0.10400841902E+01 -0.23234424366E+01 -0.28276136956E+01  0.38046759508E+01  0.00000000000E+00 0.  1.
</event>
<event>
 7    1  0.5761011E-013  0.5930194E+02  0.7816164E-02  0.1266605E+00
        -11   -1    0    0    0    0  0.00000000000E+00  0.00000000000E+00  0.45593999997E+02  0.45594000000E+02  0.51100000000E-03 0.  1.
         11   -1    0    0    0    0 -0.00000000000E+00 -0.00000000000E+00 -0.45593999997E+02  0.45594000000E+02  0.51100000000E-03 0. -1.
    9900012    2    1    2    0    0  0.19419066826E+02 -0.20026072436E+02 -0.15445950419E+02  0.59301935364E+02  0.49999984200E+02 0.  0.
        -12    1    1    2    0    0 -0.19419066826E+02  0.20026072436E+02  0.15445950419E+02  0.31886064636E+02  0.00000000000E+00 0.  1.
         11    1    3    3    0    0  0.31977988350E-01 -0.13558773076E+00 -0.23919728066E+02  0.23920133730E+02  0.51100000000E-03 0. -1.
        -11    1    3    3    0    0  0.16694880931E+02 -0.55647768607E+01 -0.15886896699E+01  0.17669457432E+02  0.51100000000E-03 0.  1.
         12    1    3    3    0    0  0.26922079072E+01 -0.14325707844E+02  0.10062467317E+02  0.17712344203E+02  0.00000000000E+00 0. -1.
</event>
<event>
 7    1  0.5761011E-013  0.5930205E+02  0.7816164E-02  0.1266604E+00
        -11   -1    0    0    0    0  0.00000000000E+00  0.00000000000E+00  0.45593999997E+02  0.45594000000E+02  0.51100000000E-03 0. -1.
         11   -1    0    0    0    0 -0.00000000000E+00 -0.00000000000E+00 -0.45593999997E+02  0.45594000000E+02  0.51100000000E-03 0.  1.
    9900012    2    1    2    0    0 -0.18082208668E+02  0.23373814562E+02 -0.11975490632E+02  0.59302049279E+02  0.50000191952E+02 0.  0.
        -12    1    1    2    0    0  0.18082208668E+02 -0.23373814562E+02  0.11975490632E+02  0.31885950721E+02  0.00000000000E+00 0.  1.
         11    1    3    3    0    0 -0.39171420201E+01 -0.62720790449E+01  0.10054188453E+02  0.12480772527E+02  0.51100000000E-03 0. -1.
        -11    1    3    3    0    0 -0.17374852020E+02  0.17246770124E+02 -0.23492898611E+02  0.33930117121E+02  0.51100000000E-03 0.  1.
         12    1    3    3    0    0  0.32097853714E+01  0.12399123483E+02  0.14632195253E+01  0.12891159632E+02  0.00000000000E+00 0. -1.
</event>
<event>
 7    1  0.5761011E-013  0.5930194E+02  0.7816164E-02  0.1266605E+00
        -11   -1    0    0    0    0  0.00000000000E+00  0.00000000000E+00  0.45593999997E+02  0.45594000000E+02  0.51100000000E-03 0. -1.
         11   -1    0    0    0    0 -0.00000000000E+00 -0.00000000000E+00 -0.45593999997E+02  0.45594000000E+02  0.51100000000E-03 0.  1.
    9900012    2    1    2    0    0  0.20392374583E+01 -0.25782539490E+02  0.18650005721E+02  0.59301944343E+02  0.50000000575E+02 0.  0.
        -12    1    1    2    0    0 -0.20392374583E+01  0.25782539490E+02 -0.18650005721E+02  0.31886055657E+02  0.00000000000E+00 0.  1.
         11    1    3    3    0    0 -0.12515981563E+02 -0.17511493786E+02  0.12466890683E+02  0.24874194915E+02  0.51100000000E-03 0. -1.
        -11    1    3    3    0    0  0.17967199216E+02  0.60447552078E+01  0.16491239951E+01  0.19028371539E+02  0.51100000000E-03 0.  1.
        -12    1    3    3    0    0 -0.34119801948E+01 -0.14315800912E+02  0.45339910425E+01  0.15399377890E+02  0.00000000000E+00 0.  1.
</event>
<event>
 7    1  0.5761011E-013  0.5930192E+02  0.7816164E-02  0.1266605E+00
        -11   -1    0    0    0    0  0.00000000000E+00  0.00000000000E+00  0.45593999997E+02  0.45594000000E+02  0.51100000000E-03 0. -1.
         11   -1    0    0    0    0 -0.00000000000E+00 -0.00000000000E+00 -0.45593999997E+02  0.45594000000E+02  0.51100000000E-03 0.  1.
    9900012    2    1    2    0    0  0.24063601304E+02  0.20770453573E+02  0.25007347377E+01  0.59301916459E+02  0.49999949721E+02 0.  0.
        -12    1    1    2    0    0 -0.24063601304E+02 -0.20770453573E+02 -0.25007347377E+01  0.31886083541E+02  0.00000000000E+00 0.  1.
         11    1    3    3    0    0  0.13509259086E+02 -0.11203880735E+02  0.26485350871E+01  0.17749415848E+02  0.51100000000E-03 0. -1.
        -11    1    3    3    0    0  0.15813093048E+02  0.19715945883E+02 -0.74456371538E+01  0.26347864177E+02  0.51100000000E-03 0.  1.
        -12    1    3    3    0    0 -0.52587508295E+01  0.12258388426E+02  0.72978368044E+01  0.15204636434E+02  0.00000000000E+00 0.  1.
</event>
<event>
 7    1  0.5761011E-013  0.5930187E+02  0.7816164E-02  0.1266605E+00
        -11   -1    0    0    0    0  0.00000000000E+00  0.00000000000E+00  0.45593999997E+02  0.45594000000E+02  0.51100000000E-03 0.  1.
         11   -1    0    0    0    0 -0.00000000000E+00 -0.00000000000E+00 -0.45593999997E+02  0.45594000000E+02  0.51100000000E-03 0. -1.
    9900012    2    1    2    0    0  0.25458950456E+02  0.15565082630E+02 -0.11238118438E+02  0.59301870388E+02  0.49999865699E+02 0.  0.
        -12    1    1    2    0    0 -0.25458950456E+02 -0.15565082630E+02  0.11238118438E+02  0.31886129612E+02  0.00000000000E+00 0.  1.
         11    1    3    3    0    0 -0.20618487386E+01  0.33324261171E+01 -0.36433944163E+01  0.53507576268E+01  0.51100000000E-03 0. -1.
        -11    1    3    3    0    0  0.25643327904E+02  0.20040146975E+01 -0.23571038262E+02  0.34888252836E+02  0.51100000000E-03 0.  1.
        -12    1    3    3    0    0  0.18774712902E+01  0.10228641815E+02  0.15976314240E+02  0.19062859925E+02  0.00000000000E+00 0.  1.
</event>
<event>
 7    1  0.5761011E-013  0.5930195E+02  0.7816164E-02  0.1266605E+00
        -11   -1    0    0    0    0  0.00000000000E+00  0.00000000000E+00  0.45593999997E+02  0.45594000000E+02  0.51100000000E-03 0. -1.
         11   -1    0    0    0    0 -0.00000000000E+00 -0.00000000000E+00 -0.45593999997E+02  0.45594000000E+02  0.51100000000E-03 0.  1.
    9900012    2    1    2    0    0 -0.23345309473E+02 -0.93704991127E+01  0.19593636877E+02  0.59301947656E+02  0.50000006618E+02 0.  0.
        -12    1    1    2    0    0  0.23345309473E+02  0.93704991127E+01 -0.19593636877E+02  0.31886052344E+02  0.00000000000E+00 0.  1.
         11    1    3    3    0    0 -0.32910911553E+02 -0.52901726446E+01  0.25840977236E+02  0.42176653858E+02  0.51100000000E-03 0. -1.
        -11    1    3    3    0    0 -0.87196910456E+00  0.25985378101E+01 -0.34777282456E+01  0.44280156822E+01  0.51100000000E-03 0.  1.
         12    1    3    3    0    0  0.10437571185E+02 -0.66788642783E+01 -0.27696121138E+01  0.12697278116E+02  0.00000000000E+00 0. -1.
</event>
<event>
 7    1  0.5761011E-013  0.5930195E+02  0.7816164E-02  0.1266605E+00
        -11   -1    0    0    0    0  0.00000000000E+00  0.00000000000E+00  0.45593999997E+02  0.45594000000E+02  0.51100000000E-03 0.  1.
         11   -1    0    0    0    0 -0.00000000000E+00 -0.00000000000E+00 -0.45593999997E+02  0.45594000000E+02  0.51100000000E-03 0. -1.
    9900012    2    1    2    0    0 -0.15848483158E+02  0.19584403987E+01 -0.27599099453E+02  0.59301949792E+02  0.50000010513E+02 0.  0.
        -12    1    1    2    0    0  0.15848483158E+02 -0.19584403987E+01  0.27599099453E+02  0.31886050208E+02  0.00000000000E+00 0.  1.
         11    1    3    3    0    0 -0.20594789993E+02  0.19997726434E+02 -0.26269745411E+02  0.38912131291E+02  0.51100000000E-03 0. -1.
        -11    1    3    3    0    0 -0.41154500194E+00 -0.10569981347E+02 -0.33398466813E+01  0.11092720635E+02  0.51100000000E-03 0.  1.
         12    1    3    3    0    0  0.51578518366E+01 -0.74693046881E+01  0.20104926388E+01  0.92970978667E+01  0.00000000000E+00 0. -1.
</event>
<event>
 7    1  0.5761011E-013  0.5930193E+02  0.7816164E-02  0.1266605E+00
        -11   -1    0    0    0    0  0.00000000000E+00  0.00000000000E+00  0.45593999997E+02  0.45594000000E+02  0.51100000000E-03 0.  1.
         11   -1    0    0    0    0 -0.00000000000E+00 -0.00000000000E+00 -0.45593999997E+02  0.45594000000E+02  0.51100000000E-03 0. -1.
    9900012    2    1    2    0    0  0.91609335207E+01  0.30384610832E+02 -0.30942325067E+01  0.59301928540E+02  0.49999971753E+02 0.  0.
        -12    1    1    2    0    0 -0.91609335207E+01 -0.30384610832E+02  0.30942325067E+01  0.31886071460E+02  0.00000000000E+00 0.  1.
         11    1    3    3    0    0  0.22186543576E+01  0.92373026630E+01 -0.23476802544E+00  0.95029102875E+01  0.51100000000E-03 0. -1.
        -11    1    3    3    0    0 -0.26153690178E+01 -0.94392733270E+01 -0.12918752761E+02  0.16212162385E+02  0.51100000000E-03 0.  1.
        -12    1    3    3    0    0  0.95576481809E+01  0.30586581496E+02  0.10059288279E+02  0.33586855867E+02  0.00000000000E+00 0.  1.
</event>
<event>
 7    1  0.5761011E-013  0.5930201E+02  0.7816164E-02  0.1266605E+00
        -11   -1    0    0    0    0  0.00000000000E+00  0.00000000000E+00  0.45593999997E+02  0.45594000000E+02  0.51100000000E-03 0.  1.
         11   -1    0    0    0    0 -0.00000000000E+00 -0.00000000000E+00 -0.45593999997E+02  0.45594000000E+02  0.51100000000E-03 0. -1.
    9900012    2    1    2    0    0  0.20120014151E+02  0.11184585274E+02 -0.22063696039E+02  0.59302006209E+02  0.50000113403E+02 0.  0.
        -12    1    1    2    0    0 -0.20120014151E+02 -0.11184585274E+02  0.22063696039E+02  0.31885993791E+02  0.00000000000E+00 0.  1.
         11    1    3    3    0    0 -0.33378530905E+01  0.44554444829E+01 -0.43622880340E+01  0.70726095571E+01  0.51100000000E-03 0. -1.
        -11    1    3    3    0    0  0.35967942484E+02  0.35292722493E+01 -0.14378394077E+02  0.38895846380E+02  0.51100000000E-03 0.  1.
        -12    1    3    3    0    0 -0.12510075243E+02  0.31998685418E+01 -0.33230139273E+01  0.13333550271E+02  0.00000000000E+00 0.  1.
</event>
<event>
 7    1  0.5761011E-013  0.5930200E+02  0.7816164E-02  0.1266605E+00
        -11   -1    0    0    0    0  0.00000000000E+00  0.00000000000E+00  0.45593999997E+02  0.45594000000E+02  0.51100000000E-03 0. -1.
         11   -1    0    0    0    0 -0.00000000000E+00 -0.00000000000E+00 -0.45593999997E+02  0.45594000000E+02  0.51100000000E-03 0.  1.
    9900012    2    1    2    0    0  0.21327656100E+02 -0.22321449818E+02  0.79750326994E+01  0.59301997064E+02  0.50000096725E+02 0.  0.
        -12    1    1    2    0    0 -0.21327656100E+02  0.22321449818E+02 -0.79750326994E+01  0.31886002936E+02  0.00000000000E+00 0.  1.
         11    1    3    3    0    0  0.19256675624E+02 -0.14009859101E+02  0.90471558652E+01  0.25474433019E+02  0.51100000000E-03 0. -1.
        -11    1    3    3    0    0 -0.12455657555E+02 -0.11632393372E+02  0.49626155479E+01  0.17750592498E+02  0.51100000000E-03 0.  1.
        -12    1    3    3    0    0  0.14526638031E+02  0.33208026553E+01 -0.60347387137E+01  0.16076971547E+02  0.00000000000E+00 0.  1.
</event>
<event>
 7    1  0.5761011E-013  0.5930192E+02  0.7816164E-02  0.1266605E+00
        -11   -1    0    0    0    0  0.00000000000E+00  0.00000000000E+00  0.45593999997E+02  0.45594000000E+02  0.51100000000E-03 0. -1.
         11   -1    0    0    0    0 -0.00000000000E+00 -0.00000000000E+00 -0.45593999997E+02  0.45594000000E+02  0.51100000000E-03 0.  1.
    9900012    2    1    2    0    0  0.89395305634E+01  0.22354413739E+02  0.20906627365E+02  0.59301920152E+02  0.49999956457E+02 0.  0.
        -12    1    1    2    0    0 -0.89395305634E+01 -0.22354413739E+02 -0.20906627365E+02  0.31886079848E+02  0.00000000000E+00 0.  1.
         11    1    3    3    0    0  0.94603843924E+01  0.14812371916E+02  0.85402306135E+01  0.19540746502E+02  0.51100000000E-03 0. -1.
        -11    1    3    3    0    0  0.44583560004E+01 -0.94628481151E+01  0.18297012036E+02  0.21076125886E+02  0.51100000000E-03 0.  1.
        -12    1    3    3    0    0 -0.49792098294E+01  0.17004889937E+02 -0.59306152847E+01  0.18685047764E+02  0.00000000000E+00 0.  1.
</event>
<event>
 7    1  0.5761011E-013  0.5930195E+02  0.7816164E-02  0.1266605E+00
        -11   -1    0    0    0    0  0.00000000000E+00  0.00000000000E+00  0.45593999997E+02  0.45594000000E+02  0.51100000000E-03 0.  1.
         11   -1    0    0    0    0 -0.00000000000E+00 -0.00000000000E+00 -0.45593999997E+02  0.45594000000E+02  0.51100000000E-03 0. -1.
    9900012    2    1    2    0    0 -0.17676569812E+01  0.12989324038E+01 -0.31810503204E+02  0.59301953668E+02  0.50000017582E+02 0.  0.
        -12    1    1    2    0    0  0.17676569812E+01 -0.12989324038E+01  0.31810503204E+02  0.31886046332E+02  0.00000000000E+00 0.  1.
         11    1    3    3    0    0 -0.64499516998E+01 -0.16091017480E+02 -0.87037509611E+01  0.19397886522E+02  0.51100000000E-03 0.  1.
        -11    1    3    3    0    0 -0.13327004957E+01  0.22222077580E+02 -0.93797793132E+01  0.24157340143E+02  0.51100000000E-03 0. -1.
         12    1    3    3    0    0  0.60149952143E+01 -0.48321276955E+01 -0.13726972929E+02  0.15746727003E+02  0.00000000000E+00 0. -1.
</event>
<event>
 7    1  0.5761011E-013  0.5930190E+02  0.7816164E-02  0.1266605E+00
        -11   -1    0    0    0    0  0.00000000000E+00  0.00000000000E+00  0.45593999997E+02  0.45594000000E+02  0.51100000000E-03 0.  1.
         11   -1    0    0    0    0 -0.00000000000E+00 -0.00000000000E+00 -0.45593999997E+02  0.45594000000E+02  0.51100000000E-03 0. -1.
    9900012    2    1    2    0    0  0.96726603838E+01 -0.12085754220E+02 -0.27876471854E+02  0.59301898059E+02  0.49999916163E+02 0.  0.
        -12    1    1    2    0    0 -0.96726603838E+01  0.12085754220E+02  0.27876471854E+02  0.31886101941E+02  0.00000000000E+00 0.  1.
         11    1    3    3    0    0  0.12916783583E+02 -0.25458980995E+02 -0.28894772174E+02  0.40619094902E+02  0.51100000000E-03 0. -1.
        -11    1    3    3    0    0  0.35480427665E+01  0.90689071959E+01 -0.22632536327E+01  0.99977998814E+01  0.51100000000E-03 0.  1.
         12    1    3    3    0    0 -0.67921659658E+01  0.43043195792E+01  0.32815539521E+01  0.86850032750E+01  0.00000000000E+00 0. -1.
</event>
<event>
 7    1  0.5761011E-013  0.5930194E+02  0.7816164E-02  0.1266605E+00
        -11   -1    0    0    0    0  0.00000000000E+00  0.00000000000E+00  0.45593999997E+02  0.45594000000E+02  0.51100000000E-03 0.  1.
         11   -1    0    0    0    0 -0.00000000000E+00 -0.00000000000E+00 -0.45593999997E+02  0.45594000000E+02  0.51100000000E-03 0. -1.
    9900012    2    1    2    0    0 -0.29984129602E+01 -0.24806045757E+02 -0.19808844991E+02  0.59301941507E+02  0.49999995403E+02 0.  0.
        -12    1    1    2    0    0  0.29984129602E+01  0.24806045757E+02  0.19808844991E+02  0.31886058493E+02  0.00000000000E+00 0.  1.
         11    1    3    3    0    0  0.19622972827E+02 -0.62403574977E+01 -0.20875679472E+02  0.29322297283E+02  0.51100000000E-03 0. -1.
        -11    1    3    3    0    0 -0.80149410796E+01 -0.29024995400E+01 -0.18343497908E+00  0.85262789505E+01  0.51100000000E-03 0.  1.
         12    1    3    3    0    0 -0.14606444707E+02 -0.15663188719E+02  0.12502694608E+01  0.21453365273E+02  0.00000000000E+00 0. -1.
</event>
<event>
 7    1  0.5761011E-013  0.5930193E+02  0.7816164E-02  0.1266605E+00
        -11   -1    0    0    0    0  0.00000000000E+00  0.00000000000E+00  0.45593999997E+02  0.45594000000E+02  0.51100000000E-03 0.  1.
         11   -1    0    0    0    0 -0.00000000000E+00 -0.00000000000E+00 -0.45593999997E+02  0.45594000000E+02  0.51100000000E-03 0. -1.
    9900012    2    1    2    0    0  0.21152215218E+02  0.38124753335E+01 -0.23553558939E+02  0.59301932266E+02  0.49999978550E+02 0.  0.
        -12    1    1    2    0    0 -0.21152215218E+02 -0.38124753335E+01  0.23553558939E+02  0.31886067734E+02  0.00000000000E+00 0.  1.
         11    1    3    3    0    0  0.38856600380E+00  0.10974006015E+02  0.53268580478E+00  0.10993795795E+02  0.51100000000E-03 0. -1.
        -11    1    3    3    0    0 -0.47172792927E+01 -0.10980027153E+02  0.14425729407E+01  0.12037222983E+02  0.51100000000E-03 0.  1.
         12    1    3    3    0    0  0.25480928507E+02  0.38184964710E+01 -0.25528817685E+02  0.36270913488E+02  0.00000000000E+00 0. -1.
</event>
<event>
 7    1  0.5761011E-013  0.5930194E+02  0.7816164E-02  0.1266605E+00
        -11   -1    0    0    0    0  0.00000000000E+00  0.00000000000E+00  0.45593999997E+02  0.45594000000E+02  0.51100000000E-03 0. -1.
         11   -1    0    0    0    0 -0.00000000000E+00 -0.00000000000E+00 -0.45593999997E+02  0.45594000000E+02  0.51100000000E-03 0.  1.
    9900012    2    1    2    0    0  0.23570468539E+02  0.13427687476E+02  0.16758606369E+02  0.59301942459E+02  0.49999997139E+02 0.  0.
        -12    1    1    2    0    0 -0.23570468539E+02 -0.13427687476E+02 -0.16758606369E+02  0.31886057541E+02  0.00000000000E+00 0.  1.
         11    1    3    3    0    0  0.81440193542E+01  0.34174398102E+01  0.26740873513E+02  0.28161645240E+02  0.51100000000E-03 0. -1.
        -11    1    3    3    0    0  0.18334552549E+02  0.14849195902E+02 -0.96318605912E+01  0.25483861066E+02  0.51100000000E-03 0.  1.
        -12    1    3    3    0    0 -0.29081033646E+01 -0.48389482357E+01 -0.35040655346E+00  0.56564361535E+01  0.00000000000E+00 0.  1.
</event>
<event>
 7    1  0.5761011E-013  0.5930194E+02  0.7816164E-02  0.1266605E+00
        -11   -1    0    0    0    0  0.00000000000E+00  0.00000000000E+00  0.45593999997E+02  0.45594000000E+02  0.51100000000E-03 0.  1.
         11   -1    0    0    0    0 -0.00000000000E+00 -0.00000000000E+00 -0.45593999997E+02  0.45594000000E+02  0.51100000000E-03 0. -1.
    9900012    2    1    2    0    0  0.15410241958E+02  0.26920564786E+02 -0.73843403208E+01  0.59301939604E+02  0.49999991933E+02 0.  0.
        -12    1    1    2    0    0 -0.15410241958E+02 -0.26920564786E+02  0.73843403208E+01  0.31886060396E+02  0.00000000000E+00 0.  1.
         11    1    3    3    0    0  0.21779367932E+02  0.17763346333E+02  0.18951120315E+01  0.28168578068E+02  0.51100000000E-03 0. -1.
        -11    1    3    3    0    0 -0.61540804122E+01 -0.71499086722E+01  0.38574507937E+01  0.10191850991E+02  0.51100000000E-03 0.  1.
         12    1    3    3    0    0 -0.21504556253E+00  0.16307127125E+02 -0.13136903146E+02  0.20941510545E+02  0.00000000000E+00 0. -1.
</event>
<event>
 7    1  0.5761011E-013  0.5930206E+02  0.7816164E-02  0.1266604E+00
        -11   -1    0    0    0    0  0.00000000000E+00  0.00000000000E+00  0.45593999997E+02  0.45594000000E+02  0.51100000000E-03 0.  1.
         11   -1    0    0    0    0 -0.00000000000E+00 -0.00000000000E+00 -0.45593999997E+02  0.45594000000E+02  0.51100000000E-03 0. -1.
    9900012    2    1    2    0    0  0.54719102034E+01  0.13792927969E+02 -0.28222803147E+02  0.59302058259E+02  0.50000208330E+02 0.  0.
        -12    1    1    2    0    0 -0.54719102034E+01 -0.13792927969E+02  0.28222803147E+02  0.31885941741E+02  0.00000000000E+00 0.  1.
         11    1    3    3    0    0 -0.54123170083E+01 -0.25439070848E+01 -0.13811438555E+02  0.15050597127E+02  0.51100000000E-03 0. -1.
        -11    1    3    3    0    0  0.51474918223E+01  0.26343053916E+02 -0.17827379288E+02  0.32222175815E+02  0.51100000000E-03 0.  1.
        -12    1    3    3    0    0  0.57367353895E+01 -0.10006218863E+02  0.34160146958E+01  0.12029285318E+02  0.00000000000E+00 0.  1.
</event>
<event>
 7    1  0.5761011E-013  0.5930197E+02  0.7816164E-02  0.1266605E+00
        -11   -1    0    0    0    0  0.00000000000E+00  0.00000000000E+00  0.45593999997E+02  0.45594000000E+02  0.51100000000E-03 0.  1.
         11   -1    0    0    0    0 -0.00000000000E+00 -0.00000000000E+00 -0.45593999997E+02  0.45594000000E+02  0.51100000000E-03 0. -1.
    9900012    2    1    2    0    0  0.18493056686E+02 -0.23811667655E+02  0.10379327349E+02  0.59301967034E+02  0.50000041958E+02 0.  0.
        -12    1    1    2    0    0 -0.18493056686E+02  0.23811667655E+02 -0.10379327349E+02  0.31886032966E+02  0.00000000000E+00 0.  1.
         11    1    3    3    0    0  0.10511040927E+02 -0.31470763289E+02  0.16365869393E+02  0.36996386372E+02  0.51100000000E-03 0.  1.
        -11    1    3    3    0    0 -0.23416950116E+01  0.10293462381E+02 -0.47623063071E+01  0.11580952679E+02  0.51100000000E-03 0. -1.
        -12    1    3    3    0    0  0.10323710771E+02 -0.26343667473E+01 -0.12242357372E+01  0.10724627983E+02  0.00000000000E+00 0.  1.
</event>
<event>
 7    1  0.5761011E-013  0.5930196E+02  0.7816164E-02  0.1266605E+00
        -11   -1    0    0    0    0  0.00000000000E+00  0.00000000000E+00  0.45593999997E+02  0.45594000000E+02  0.51100000000E-03 0. -1.
         11   -1    0    0    0    0 -0.00000000000E+00 -0.00000000000E+00 -0.45593999997E+02  0.45594000000E+02  0.51100000000E-03 0.  1.
    9900012    2    1    2    0    0  0.11114661007E+02  0.15398958309E+01  0.29846482757E+02  0.59301960713E+02  0.50000030430E+02 0.  0.
        -12    1    1    2    0    0 -0.11114661007E+02 -0.15398958309E+01 -0.29846482757E+02  0.31886039287E+02  0.00000000000E+00 0.  1.
         11    1    3    3    0    0  0.10846599242E+02  0.34480538988E+01  0.25719871108E+02  0.28125603299E+02  0.51100000000E-03 0. -1.
        -11    1    3    3    0    0 -0.13410118706E+02  0.46525744329E+01 -0.28519642072E+01  0.14477963692E+02  0.51100000000E-03 0.  1.
        -12    1    3    3    0    0  0.13678180470E+02 -0.65607325008E+01  0.69785758556E+01  0.16698393722E+02  0.00000000000E+00 0.  1.
</event>
<event>
 7    1  0.5761011E-013  0.5930198E+02  0.7816164E-02  0.1266605E+00
        -11   -1    0    0    0    0  0.00000000000E+00  0.00000000000E+00  0.45593999997E+02  0.45594000000E+02  0.51100000000E-03 0.  1.
         11   -1    0    0    0    0 -0.00000000000E+00 -0.00000000000E+00 -0.45593999997E+02  0.45594000000E+02  0.51100000000E-03 0. -1.
    9900012    2    1    2    0    0 -0.16896388901E+02  0.25667086125E+02 -0.85106228512E+01  0.59301984736E+02  0.50000074243E+02 0.  0.
        -12    1    1    2    0    0  0.16896388901E+02 -0.25667086125E+02  0.85106228512E+01  0.31886015264E+02  0.00000000000E+00 0.  1.
         11    1    3    3    0    0 -0.16481425071E+02  0.16949084966E+02 -0.16938273556E+02  0.29082880959E+02  0.51100000000E-03 0. -1.
        -11    1    3    3    0    0  0.13288524961E+02  0.74628222642E+01  0.49688112071E+01  0.16030212003E+02  0.51100000000E-03 0.  1.
        -12    1    3    3    0    0 -0.13703488791E+02  0.12551788955E+01  0.34588394978E+01  0.14188891774E+02  0.00000000000E+00 0.  1.
</event>
<event>
 7    1  0.5761011E-013  0.5930196E+02  0.7816164E-02  0.1266605E+00
        -11   -1    0    0    0    0  0.00000000000E+00  0.00000000000E+00  0.45593999997E+02  0.45594000000E+02  0.51100000000E-03 0. -1.
         11   -1    0    0    0    0 -0.00000000000E+00 -0.00000000000E+00 -0.45593999997E+02  0.45594000000E+02  0.51100000000E-03 0.  1.
    9900012    2    1    2    0    0  0.16665323428E+02  0.19409677386E+02  0.19032899849E+02  0.59301955123E+02  0.50000020236E+02 0.  0.
        -12    1    1    2    0    0 -0.16665323428E+02 -0.19409677386E+02 -0.19032899849E+02  0.31886044877E+02  0.00000000000E+00 0.  1.
         11    1    3    3    0    0 -0.28867656493E+00  0.89523217741E+00  0.27425308530E+02  0.27441434420E+02  0.51100000000E-03 0. -1.
        -11    1    3    3    0    0  0.99161159218E+01  0.43934286470E+01 -0.11469632367E+02  0.15785564201E+02  0.51100000000E-03 0.  1.
         12    1    3    3    0    0  0.70378840715E+01  0.14121016562E+02  0.30772236860E+01  0.16074956502E+02  0.00000000000E+00 0. -1.
</event>
<event>
 7    1  0.5761011E-013  0.5930210E+02  0.7816164E-02  0.1266604E+00
        -11   -1    0    0    0    0  0.00000000000E+00  0.00000000000E+00  0.45593999997E+02  0.45594000000E+02  0.51100000000E-03 0.  1.
         11   -1    0    0    0    0 -0.00000000000E+00 -0.00000000000E+00 -0.45593999997E+02  0.45594000000E+02  0.51100000000E-03 0. -1.
    9900012    2    1    2    0    0 -0.23181359982E+02 -0.11152037085E+02 -0.18840579749E+02  0.59302096735E+02  0.50000278500E+02 0.  0.
        -12    1    1    2    0    0  0.23181359982E+02  0.11152037085E+02  0.18840579749E+02  0.31885903265E+02  0.00000000000E+00 0.  1.
         11    1    3    3    0    0 -0.26060948038E+02 -0.34711228136E+01 -0.30979229500E+02  0.40631691657E+02  0.51100000000E-03 0. -1.
        -11    1    3    3    0    0  0.25942647928E+01  0.86842890331E+00  0.92431868052E+01  0.96395477669E+01  0.51100000000E-03 0.  1.
         12    1    3    3    0    0  0.28532326357E+00 -0.85493431748E+01  0.28954629464E+01  0.90308573104E+01  0.00000000000E+00 0. -1.
</event>
<event>
 7    1  0.5761011E-013  0.5930205E+02  0.7816164E-02  0.1266604E+00
        -11   -1    0    0    0    0  0.00000000000E+00  0.00000000000E+00  0.45593999997E+02  0.45594000000E+02  0.51100000000E-03 0. -1.
         11   -1    0    0    0    0 -0.00000000000E+00 -0.00000000000E+00 -0.45593999997E+02  0.45594000000E+02  0.51100000000E-03 0.  1.
    9900012    2    1    2    0    0 -0.20106912293E+02 -0.16465115478E+02  0.18475004506E+02  0.59302051039E+02  0.50000195162E+02 0.  0.
        -12    1    1    2    0    0  0.20106912293E+02  0.16465115478E+02 -0.18475004506E+02  0.31885948961E+02  0.00000000000E+00 0.  1.
         11    1    3    3    0    0 -0.12815103069E+02 -0.16029228499E+02  0.25709207833E+02  0.32895689697E+02  0.51100000000E-03 0. -1.
        -11    1    3    3    0    0 -0.13914095382E+02 -0.72540988593E+01 -0.28885842087E+01  0.15955184723E+02  0.51100000000E-03 0.  1.
         12    1    3    3    0    0  0.66222861580E+01  0.68182118800E+01 -0.43456191188E+01  0.10451176619E+02  0.00000000000E+00 0. -1.
</event>
<event>
 7    1  0.5761011E-013  0.5930193E+02  0.7816164E-02  0.1266605E+00
        -11   -1    0    0    0    0  0.00000000000E+00  0.00000000000E+00  0.45593999997E+02  0.45594000000E+02  0.51100000000E-03 0. -1.
         11   -1    0    0    0    0 -0.00000000000E+00 -0.00000000000E+00 -0.45593999997E+02  0.45594000000E+02  0.51100000000E-03 0.  1.
    9900012    2    1    2    0    0  0.30001762840E+02 -0.13327220196E+01 -0.10716326466E+02  0.59301928207E+02  0.49999971147E+02 0.  0.
        -12    1    1    2    0    0 -0.30001762840E+02  0.13327220196E+01  0.10716326466E+02  0.31886071793E+02  0.00000000000E+00 0.  1.
         11    1    3    3    0    0 -0.76605484706E+00  0.16615773933E+01  0.11648090705E+02  0.11790915859E+02  0.51100000000E-03 0. -1.
        -11    1    3    3    0    0  0.33363205053E+02  0.11505222355E+01 -0.11015856604E+02  0.35153609342E+02  0.51100000000E-03 0.  1.
        -12    1    3    3    0    0 -0.25953873660E+01 -0.41448216484E+01 -0.11348560568E+02  0.12357403005E+02  0.00000000000E+00 0.  1.
</event>
<event>
 7    1  0.5761011E-013  0.5930193E+02  0.7816164E-02  0.1266605E+00
        -11   -1    0    0    0    0  0.00000000000E+00  0.00000000000E+00  0.45593999997E+02  0.45594000000E+02  0.51100000000E-03 0. -1.
         11   -1    0    0    0    0 -0.00000000000E+00 -0.00000000000E+00 -0.45593999997E+02  0.45594000000E+02  0.51100000000E-03 0.  1.
    9900012    2    1    2    0    0  0.19045228643E+02  0.25503551951E+02  0.18893098687E+01  0.59301931130E+02  0.49999976478E+02 0.  0.
        -12    1    1    2    0    0 -0.19045228643E+02 -0.25503551951E+02 -0.18893098687E+01  0.31886068870E+02  0.00000000000E+00 0.  1.
         11    1    3    3    0    0  0.27284210820E+02  0.88330165651E+01  0.15180212049E+01  0.28718543319E+02  0.51100000000E-03 0. -1.
        -11    1    3    3    0    0 -0.12696222185E+02  0.35842242081E+01  0.73451685000E+01  0.15099411297E+02  0.51100000000E-03 0.  1.
         12    1    3    3    0    0  0.44572400085E+01  0.13086311178E+02 -0.69738798362E+01  0.15483976515E+02  0.00000000000E+00 0. -1.
</event>
<event>
 7    1  0.5761011E-013  0.5930194E+02  0.7816164E-02  0.1266605E+00
        -11   -1    0    0    0    0  0.00000000000E+00  0.00000000000E+00  0.45593999997E+02  0.45594000000E+02  0.51100000000E-03 0. -1.
         11   -1    0    0    0    0 -0.00000000000E+00 -0.00000000000E+00 -0.45593999997E+02  0.45594000000E+02  0.51100000000E-03 0.  1.
    9900012    2    1    2    0    0 -0.30627425722E+01 -0.26422192277E+02  0.17584325501E+02  0.59301935016E+02  0.49999983565E+02 0.  0.
        -12    1    1    2    0    0  0.30627425722E+01  0.26422192277E+02 -0.17584325501E+02  0.31886064984E+02  0.00000000000E+00 0.  1.
         11    1    3    3    0    0 -0.29984903625E+01 -0.12801990273E+02  0.40160372402E+01  0.13748107316E+02  0.51100000000E-03 0. -1.
        -11    1    3    3    0    0  0.46999938116E+01  0.88414845024E+01  0.19427983935E+02  0.21856540212E+02  0.51100000000E-03 0.  1.
        -12    1    3    3    0    0 -0.47642460214E+01 -0.22461686507E+02 -0.58596956737E+01  0.23697287488E+02  0.00000000000E+00 0.  1.
</event>
<event>
 7    1  0.5761011E-013  0.5930193E+02  0.7816164E-02  0.1266605E+00
        -11   -1    0    0    0    0  0.00000000000E+00  0.00000000000E+00  0.45593999997E+02  0.45594000000E+02  0.51100000000E-03 0. -1.
         11   -1    0    0    0    0 -0.00000000000E+00 -0.00000000000E+00 -0.45593999997E+02  0.45594000000E+02  0.51100000000E-03 0.  1.
    9900012    2    1    2    0    0  0.23189903261E+01  0.17562923875E+02  0.26512019391E+02  0.59301934339E+02  0.49999982330E+02 0.  0.
        -12    1    1    2    0    0 -0.23189903261E+01 -0.17562923875E+02 -0.26512019391E+02  0.31886065661E+02  0.00000000000E+00 0.  1.
         11    1    3    3    0    0  0.15909931940E+02  0.65727977260E+00  0.25283325647E+01  0.16122977916E+02  0.51100000000E-03 0. -1.
        -11    1    3    3    0    0 -0.15268918865E+02  0.42269324632E+01 -0.17466282829E+00  0.15844158189E+02  0.51100000000E-03 0.  1.
         12    1    3    3    0    0  0.16779772506E+01  0.12678711639E+02  0.24158349654E+02  0.27334798234E+02  0.00000000000E+00 0. -1.
</event>
<event>
 7    1  0.5761011E-013  0.5930210E+02  0.7816164E-02  0.1266604E+00
        -11   -1    0    0    0    0  0.00000000000E+00  0.00000000000E+00  0.45593999997E+02  0.45594000000E+02  0.51100000000E-03 0.  1.
         11   -1    0    0    0    0 -0.00000000000E+00 -0.00000000000E+00 -0.45593999997E+02  0.45594000000E+02  0.51100000000E-03 0. -1.
    9900012    2    1    2    0    0 -0.28556709341E+01  0.10651036676E+02 -0.29918406933E+02  0.59302101672E+02  0.50000287505E+02 0.  0.
        -12    1    1    2    0    0  0.28556709341E+01 -0.10651036676E+02  0.29918406933E+02  0.31885898328E+02  0.00000000000E+00 0.  1.
         11    1    3    3    0    0  0.62416080921E+01 -0.10135969521E+02 -0.23401363374E+02  0.26254892072E+02  0.51100000000E-03 0. -1.
        -11    1    3    3    0    0 -0.16738476766E+02  0.12215844442E+02 -0.59104831995E+01  0.21548486531E+02  0.51100000000E-03 0.  1.
         12    1    3    3    0    0  0.76411977400E+01  0.85711617552E+01 -0.60656035960E+00  0.11498723068E+02  0.00000000000E+00 0. -1.
</event>
<event>
 7    1  0.5761011E-013  0.5930194E+02  0.7816164E-02  0.1266605E+00
        -11   -1    0    0    0    0  0.00000000000E+00  0.00000000000E+00  0.45593999997E+02  0.45594000000E+02  0.51100000000E-03 0. -1.
         11   -1    0    0    0    0 -0.00000000000E+00 -0.00000000000E+00 -0.45593999997E+02  0.45594000000E+02  0.51100000000E-03 0.  1.
    9900012    2    1    2    0    0  0.28618393830E+01 -0.12158991053E+01  0.31734091176E+02  0.59301935990E+02  0.49999985342E+02 0.  0.
        -12    1    1    2    0    0 -0.28618393830E+01  0.12158991053E+01 -0.31734091176E+02  0.31886064010E+02  0.00000000000E+00 0.  1.
         11    1    3    3    0    0  0.22689012903E+02  0.41758669385E+01  0.97767149591E+01  0.25056203361E+02  0.51100000000E-03 0. -1.
        -11    1    3    3    0    0 -0.17865470509E+01 -0.46466892590E+01 -0.95994569552E+00  0.50700066504E+01  0.51100000000E-03 0.  1.
         12    1    3    3    0    0 -0.18040626469E+02 -0.74507678480E+00  0.22917321912E+02  0.29175725979E+02  0.00000000000E+00 0. -1.
</event>
<event>
 7    1  0.5761011E-013  0.5930195E+02  0.7816164E-02  0.1266605E+00
        -11   -1    0    0    0    0  0.00000000000E+00  0.00000000000E+00  0.45593999997E+02  0.45594000000E+02  0.51100000000E-03 0.  1.
         11   -1    0    0    0    0 -0.00000000000E+00 -0.00000000000E+00 -0.45593999997E+02  0.45594000000E+02  0.51100000000E-03 0. -1.
    9900012    2    1    2    0    0  0.13042047960E+02  0.67417155061E+01 -0.28305030348E+02  0.59301945275E+02  0.50000002275E+02 0.  0.
        -12    1    1    2    0    0 -0.13042047960E+02 -0.67417155061E+01  0.28305030348E+02  0.31886054725E+02  0.00000000000E+00 0.  1.
         11    1    3    3    0    0  0.17686139079E+02 -0.17863064806E+02 -0.14230757327E+02  0.28886035626E+02  0.51100000000E-03 0. -1.
        -11    1    3    3    0    0 -0.27266256333E+01  0.82702953770E+01  0.93020265395E-01  0.87086695883E+01  0.51100000000E-03 0.  1.
         12    1    3    3    0    0 -0.19174654863E+01  0.16334484936E+02 -0.14167293286E+02  0.21707240061E+02  0.00000000000E+00 0. -1.
</event>
<event>
 7    1  0.5761011E-013  0.5930197E+02  0.7816164E-02  0.1266605E+00
        -11   -1    0    0    0    0  0.00000000000E+00  0.00000000000E+00  0.45593999997E+02  0.45594000000E+02  0.51100000000E-03 0.  1.
         11   -1    0    0    0    0 -0.00000000000E+00 -0.00000000000E+00 -0.45593999997E+02  0.45594000000E+02  0.51100000000E-03 0. -1.
    9900012    2    1    2    0    0 -0.29214870542E+02 -0.83444241185E+01 -0.96737224316E+01  0.59301968884E+02  0.50000045332E+02 0.  0.
        -12    1    1    2    0    0  0.29214870542E+02  0.83444241185E+01  0.96737224316E+01  0.31886031116E+02  0.00000000000E+00 0.  1.
         11    1    3    3    0    0  0.22443501779E+01 -0.15608973662E+02  0.14188711913E+01  0.15833204420E+02  0.51100000000E-03 0.  1.
        -11    1    3    3    0    0 -0.48724779624E+01  0.13539060364E+02 -0.64138438268E+01  0.15753875394E+02  0.51100000000E-03 0. -1.
         12    1    3    3    0    0 -0.26586742757E+02 -0.62745108210E+01 -0.46787497961E+01  0.27714889070E+02  0.00000000000E+00 0. -1.
</event>
<event>
 7    1  0.5761011E-013  0.5930190E+02  0.7816164E-02  0.1266605E+00
        -11   -1    0    0    0    0  0.00000000000E+00  0.00000000000E+00  0.45593999997E+02  0.45594000000E+02  0.51100000000E-03 0. -1.
         11   -1    0    0    0    0 -0.00000000000E+00 -0.00000000000E+00 -0.45593999997E+02  0.45594000000E+02  0.51100000000E-03 0.  1.
    9900012    2    1    2    0    0 -0.10747306235E+02  0.27761309559E+02  0.11424898905E+02  0.59301902485E+02  0.49999924236E+02 0.  0.
        -12    1    1    2    0    0  0.10747306235E+02 -0.27761309559E+02 -0.11424898905E+02  0.31886097515E+02  0.00000000000E+00 0.  1.
         11    1    3    3    0    0  0.11158703165E+02  0.10136510220E+02  0.70767930617E+01  0.16653723189E+02  0.51100000000E-03 0. -1.
        -11    1    3    3    0    0 -0.24937354091E+02  0.23962129858E+02  0.67252632305E+01  0.35231867140E+02  0.51100000000E-03 0.  1.
        -12    1    3    3    0    0  0.30313446918E+01 -0.63373305189E+01 -0.23771573873E+01  0.74163121557E+01  0.00000000000E+00 0.  1.
</event>
<event>
 7    1  0.5761011E-013  0.5930189E+02  0.7816164E-02  0.1266605E+00
        -11   -1    0    0    0    0  0.00000000000E+00  0.00000000000E+00  0.45593999997E+02  0.45594000000E+02  0.51100000000E-03 0. -1.
         11   -1    0    0    0    0 -0.00000000000E+00 -0.00000000000E+00 -0.45593999997E+02  0.45594000000E+02  0.51100000000E-03 0.  1.
    9900012    2    1    2    0    0 -0.26225887847E+02 -0.27697194415E+01 -0.17923606488E+02  0.59301886899E+02  0.49999895811E+02 0.  0.
        -12    1    1    2    0    0  0.26225887847E+02  0.27697194415E+01  0.17923606488E+02  0.31886113101E+02  0.00000000000E+00 0.  1.
         11    1    3    3    0    0 -0.10528431510E+02 -0.47627701286E+01  0.15762390189E+02  0.19544431281E+02  0.51100000000E-03 0. -1.
        -11    1    3    3    0    0 -0.81554060726E+01 -0.57790934596E+01 -0.12899525073E+02  0.16318894472E+02  0.51100000000E-03 0.  1.
         12    1    3    3    0    0 -0.75420502640E+01  0.77721441467E+01 -0.20786471605E+02  0.23438561146E+02  0.00000000000E+00 0. -1.
</event>
<event>
 7    1  0.5761011E-013  0.5930195E+02  0.7816164E-02  0.1266605E+00
        -11   -1    0    0    0    0  0.00000000000E+00  0.00000000000E+00  0.45593999997E+02  0.45594000000E+02  0.51100000000E-03 0.  1.
         11   -1    0    0    0    0 -0.00000000000E+00 -0.00000000000E+00 -0.45593999997E+02  0.45594000000E+02  0.51100000000E-03 0. -1.
    9900012    2    1    2    0    0  0.68373298676E+01 -0.24292614685E+02 -0.19489491429E+02  0.59301945303E+02  0.50000002326E+02 0.  0.
        -12    1    1    2    0    0 -0.68373298676E+01  0.24292614685E+02  0.19489491429E+02  0.31886054697E+02  0.00000000000E+00 0.  1.
         11    1    3    3    0    0  0.16308457499E+02 -0.35226640171E+01  0.52521794029E+01  0.17491721943E+02  0.51100000000E-03 0. -1.
        -11    1    3    3    0    0 -0.23075539376E+01 -0.24046458140E+02 -0.12360508516E+02  0.27135569375E+02  0.51100000000E-03 0.  1.
         12    1    3    3    0    0 -0.71635736942E+01  0.32765074722E+01 -0.12381162316E+02  0.14674653985E+02  0.00000000000E+00 0. -1.
</event>
<event>
 7    1  0.5761011E-013  0.5930192E+02  0.7816164E-02  0.1266605E+00
        -11   -1    0    0    0    0  0.00000000000E+00  0.00000000000E+00  0.45593999997E+02  0.45594000000E+02  0.51100000000E-03 0. -1.
         11   -1    0    0    0    0 -0.00000000000E+00 -0.00000000000E+00 -0.45593999997E+02  0.45594000000E+02  0.51100000000E-03 0.  1.
    9900012    2    1    2    0    0  0.10425431012E+02 -0.29505043357E+02  0.61224911348E+01  0.59301920075E+02  0.49999956317E+02 0.  0.
        -12    1    1    2    0    0 -0.10425431012E+02  0.29505043357E+02 -0.61224911348E+01  0.31886079925E+02  0.00000000000E+00 0.  1.
         11    1    3    3    0    0  0.21143323773E+02  0.38331289222E+01  0.10118062565E+02  0.23750962251E+02  0.51100000000E-03 0. -1.
        -11    1    3    3    0    0 -0.47297329946E+01 -0.15533066043E+02  0.46377868150E+00  0.16243817464E+02  0.51100000000E-03 0.  1.
         12    1    3    3    0    0 -0.59881597669E+01 -0.17805106236E+02 -0.44593501114E+01  0.19307140360E+02  0.00000000000E+00 0. -1.
</event>
<event>
 7    1  0.5761011E-013  0.5930194E+02  0.7816164E-02  0.1266605E+00
        -11   -1    0    0    0    0  0.00000000000E+00  0.00000000000E+00  0.45593999997E+02  0.45594000000E+02  0.51100000000E-03 0. -1.
         11   -1    0    0    0    0 -0.00000000000E+00 -0.00000000000E+00 -0.45593999997E+02  0.45594000000E+02  0.51100000000E-03 0.  1.
    9900012    2    1    2    0    0  0.24515990992E+01 -0.27535276766E+02  0.15890847875E+02  0.59301939552E+02  0.49999991837E+02 0.  0.
        -12    1    1    2    0    0 -0.24515990992E+01  0.27535276766E+02 -0.15890847875E+02  0.31886060448E+02  0.00000000000E+00 0.  1.
         11    1    3    3    0    0 -0.21222441631E+01 -0.13796779062E+02  0.13938343370E+02  0.19726440351E+02  0.51100000000E-03 0. -1.
        -11    1    3    3    0    0  0.79438653290E+01 -0.92280641849E+00 -0.15630864680E+02  0.17557918412E+02  0.51100000000E-03 0.  1.
        -12    1    3    3    0    0 -0.33700220668E+01 -0.12815691286E+02  0.17583369186E+02  0.22017580789E+02  0.00000000000E+00 0.  1.
</event>
<event>
 7    1  0.5761011E-013  0.5930192E+02  0.7816164E-02  0.1266605E+00
        -11   -1    0    0    0    0  0.00000000000E+00  0.00000000000E+00  0.45593999997E+02  0.45594000000E+02  0.51100000000E-03 0.  1.
         11   -1    0    0    0    0 -0.00000000000E+00 -0.00000000000E+00 -0.45593999997E+02  0.45594000000E+02  0.51100000000E-03 0. -1.
    9900012    2    1    2    0    0 -0.26045405657E+02 -0.18146506409E+01  0.18304809084E+02  0.59301919206E+02  0.49999954731E+02 0.  0.
        -12    1    1    2    0    0  0.26045405657E+02  0.18146506409E+01 -0.18304809084E+02  0.31886080794E+02  0.00000000000E+00 0.  1.
         11    1    3    3    0    0 -0.31529549995E+02 -0.60913611716E+01  0.49468724996E+01  0.32491364262E+02  0.51100000000E-03 0. -1.
        -11    1    3    3    0    0 -0.29561025269E+01  0.44437813468E-01  0.16574246530E+02  0.16835859502E+02  0.51100000000E-03 0.  1.
         12    1    3    3    0    0  0.84402468648E+01  0.42322727173E+01 -0.32163099452E+01  0.99746954418E+01  0.00000000000E+00 0. -1.
</event>
<event>
 7    1  0.5761011E-013  0.5930193E+02  0.7816164E-02  0.1266605E+00
        -11   -1    0    0    0    0  0.00000000000E+00  0.00000000000E+00  0.45593999997E+02  0.45594000000E+02  0.51100000000E-03 0.  1.
         11   -1    0    0    0    0 -0.00000000000E+00 -0.00000000000E+00 -0.45593999997E+02  0.45594000000E+02  0.51100000000E-03 0. -1.
    9900012    2    1    2    0    0 -0.27619240521E+02 -0.15823270540E+02  0.18769839909E+01  0.59301930840E+02  0.49999975949E+02 0.  0.
        -12    1    1    2    0    0  0.27619240521E+02  0.15823270540E+02 -0.18769839909E+01  0.31886069160E+02  0.00000000000E+00 0.  1.
         11    1    3    3    0    0 -0.25859872185E+02 -0.53517637075E+01 -0.44319862872E+01  0.26777170629E+02  0.51100000000E-03 0. -1.
        -11    1    3    3    0    0  0.93515205379E+01 -0.83963756992E+01  0.14030354256E+02  0.18836159430E+02  0.51100000000E-03 0.  1.
        -12    1    3    3    0    0 -0.11110888875E+02 -0.20751311336E+01 -0.77213839782E+01  0.13688600781E+02  0.00000000000E+00 0.  1.
</event>
<event>
 7    1  0.5761011E-013  0.5930193E+02  0.7816164E-02  0.1266605E+00
        -11   -1    0    0    0    0  0.00000000000E+00  0.00000000000E+00  0.45593999997E+02  0.45594000000E+02  0.51100000000E-03 0.  1.
         11   -1    0    0    0    0 -0.00000000000E+00 -0.00000000000E+00 -0.45593999997E+02  0.45594000000E+02  0.51100000000E-03 0. -1.
    9900012    2    1    2    0    0 -0.16106441801E+02  0.18559262813E+02 -0.20318900489E+02  0.59301930616E+02  0.49999975541E+02 0.  0.
        -12    1    1    2    0    0  0.16106441801E+02 -0.18559262813E+02  0.20318900489E+02  0.31886069384E+02  0.00000000000E+00 0.  1.
         11    1    3    3    0    0  0.77745369401E+01  0.13307335127E+02 -0.15188426432E+02  0.21638319957E+02  0.51100000000E-03 0. -1.
        -11    1    3    3    0    0 -0.18943973002E+02  0.68852901576E+01  0.93927469097E+01  0.22237469020E+02  0.51100000000E-03 0.  1.
        -12    1    3    3    0    0 -0.49370057386E+01 -0.16333624715E+01 -0.14523220966E+02  0.15426141639E+02  0.00000000000E+00 0.  1.
</event>
<event>
 7    1  0.5761011E-013  0.5930180E+02  0.7816164E-02  0.1266605E+00
        -11   -1    0    0    0    0  0.00000000000E+00  0.00000000000E+00  0.45593999997E+02  0.45594000000E+02  0.51100000000E-03 0. -1.
         11   -1    0    0    0    0 -0.00000000000E+00 -0.00000000000E+00 -0.45593999997E+02  0.45594000000E+02  0.51100000000E-03 0.  1.
    9900012    2    1    2    0    0 -0.11810051412E+01  0.24758644000E+02  0.20058520241E+02  0.59301804553E+02  0.49999745631E+02 0.  0.
        -12    1    1    2    0    0  0.11810051412E+01 -0.24758644000E+02 -0.20058520241E+02  0.31886195447E+02  0.00000000000E+00 0.  1.
         11    1    3    3    0    0  0.33472459569E+01  0.28956282148E+02  0.25929330521E+02  0.39012824979E+02  0.51100000000E-03 0. -1.
        -11    1    3    3    0    0  0.36749902971E+01  0.37920045670E+01 -0.70155381441E+01  0.87808102150E+01  0.51100000000E-03 0.  1.
         12    1    3    3    0    0 -0.82032413952E+01 -0.79896427154E+01  0.11447278641E+01  0.11508169359E+02  0.00000000000E+00 0. -1.
</event>
<event>
 7    1  0.5761011E-013  0.5930185E+02  0.7816164E-02  0.1266605E+00
        -11   -1    0    0    0    0  0.00000000000E+00  0.00000000000E+00  0.45593999997E+02  0.45594000000E+02  0.51100000000E-03 0. -1.
         11   -1    0    0    0    0 -0.00000000000E+00 -0.00000000000E+00 -0.45593999997E+02  0.45594000000E+02  0.51100000000E-03 0.  1.
    9900012    2    1    2    0    0 -0.69401966495E+01  0.31013651658E+02  0.25911175361E+01  0.59301846128E+02  0.49999821453E+02 0.  0.
        -12    1    1    2    0    0  0.69401966495E+01 -0.31013651658E+02 -0.25911175361E+01  0.31886153872E+02  0.00000000000E+00 0.  1.
         11    1    3    3    0    0  0.71555278190E+01  0.25562193553E+02 -0.11864072471E+02  0.29075479935E+02  0.51100000000E-03 0. -1.
        -11    1    3    3    0    0 -0.80367312925E+01 -0.34638051863E+01 -0.33844114129E+01  0.93830292075E+01  0.51100000000E-03 0.  1.
         12    1    3    3    0    0 -0.60589931760E+01  0.89152632914E+01  0.17839601420E+02  0.20843336985E+02  0.00000000000E+00 0. -1.
</event>
<event>
 7    1  0.5761011E-013  0.5930206E+02  0.7816164E-02  0.1266604E+00
        -11   -1    0    0    0    0  0.00000000000E+00  0.00000000000E+00  0.45593999997E+02  0.45594000000E+02  0.51100000000E-03 0.  1.
         11   -1    0    0    0    0 -0.00000000000E+00 -0.00000000000E+00 -0.45593999997E+02  0.45594000000E+02  0.51100000000E-03 0. -1.
    9900012    2    1    2    0    0 -0.29923161534E+02  0.10957421233E+02  0.11190192577E+01  0.59302064536E+02  0.50000219778E+02 0.  0.
        -12    1    1    2    0    0  0.29923161534E+02 -0.10957421233E+02 -0.11190192577E+01  0.31885935464E+02  0.00000000000E+00 0.  1.
         11    1    3    3    0    0 -0.25822119138E+02 -0.27553652564E+01  0.14517086178E+02  0.29750960755E+02  0.51100000000E-03 0. -1.
        -11    1    3    3    0    0  0.58582510493E+01  0.39350468468E+01 -0.13896122697E+02  0.15585439529E+02  0.51100000000E-03 0.  1.
         12    1    3    3    0    0 -0.99592934457E+01  0.97777396427E+01  0.49805577672E+00  0.13965664253E+02  0.00000000000E+00 0. -1.
</event>
<event>
 7    1  0.5761011E-013  0.5930196E+02  0.7816164E-02  0.1266605E+00
        -11   -1    0    0    0    0  0.00000000000E+00  0.00000000000E+00  0.45593999997E+02  0.45594000000E+02  0.51100000000E-03 0.  1.
         11   -1    0    0    0    0 -0.00000000000E+00 -0.00000000000E+00 -0.45593999997E+02  0.45594000000E+02  0.51100000000E-03 0. -1.
    9900012    2    1    2    0    0  0.29376610337E+02 -0.11788734840E+02 -0.38419175372E+01  0.59301955492E+02  0.50000020908E+02 0.  0.
        -12    1    1    2    0    0 -0.29376610337E+02  0.11788734840E+02  0.38419175372E+01  0.31886044508E+02  0.00000000000E+00 0.  1.
         11    1    3    3    0    0 -0.97388109190E+01 -0.16891790970E+02 -0.17582677368E+01  0.19577245618E+02  0.51100000000E-03 0. -1.
        -11    1    3    3    0    0  0.72165941838E+01  0.19690184347E+01 -0.16945805059E+01  0.76699327613E+01  0.51100000000E-03 0.  1.
         12    1    3    3    0    0  0.31898827072E+02  0.31340376945E+01 -0.38906929455E+00  0.32054777113E+02  0.00000000000E+00 0. -1.
</event>
<event>
 7    1  0.5761011E-013  0.5930195E+02  0.7816164E-02  0.1266605E+00
        -11   -1    0    0    0    0  0.00000000000E+00  0.00000000000E+00  0.45593999997E+02  0.45594000000E+02  0.51100000000E-03 0. -1.
         11   -1    0    0    0    0 -0.00000000000E+00 -0.00000000000E+00 -0.45593999997E+02  0.45594000000E+02  0.51100000000E-03 0.  1.
    9900012    2    1    2    0    0  0.11123261847E+00 -0.17281201770E+02 -0.26796785244E+02  0.59301952790E+02  0.50000015980E+02 0.  0.
        -12    1    1    2    0    0 -0.11123261847E+00  0.17281201770E+02  0.26796785244E+02  0.31886047210E+02  0.00000000000E+00 0.  1.
         11    1    3    3    0    0  0.17666005361E+02 -0.20961202116E+01 -0.20941232694E+02  0.27477567075E+02  0.51100000000E-03 0. -1.
        -11    1    3    3    0    0 -0.54523436246E+01 -0.16461404348E+02 -0.85893487241E+01  0.19351557970E+02  0.51100000000E-03 0.  1.
         12    1    3    3    0    0 -0.12102429118E+02  0.12763227893E+01  0.27337961748E+01  0.12472827745E+02  0.00000000000E+00 0. -1.
</event>
<event>
 7    1  0.5761011E-013  0.5930196E+02  0.7816164E-02  0.1266605E+00
        -11   -1    0    0    0    0  0.00000000000E+00  0.00000000000E+00  0.45593999997E+02  0.45594000000E+02  0.51100000000E-03 0.  1.
         11   -1    0    0    0    0 -0.00000000000E+00 -0.00000000000E+00 -0.45593999997E+02  0.45594000000E+02  0.51100000000E-03 0. -1.
    9900012    2    1    2    0    0  0.68670457459E+01  0.16647452594E+02 -0.26313979852E+02  0.59301960253E+02  0.50000029590E+02 0.  0.
        -12    1    1    2    0    0 -0.68670457459E+01 -0.16647452594E+02  0.26313979852E+02  0.31886039747E+02  0.00000000000E+00 0.  1.
         11    1    3    3    0    0 -0.33915747370E+01 -0.11157250218E+02 -0.17020364834E+02  0.20632009862E+02  0.51100000000E-03 0. -1.
        -11    1    3    3    0    0 -0.41399481683E+00  0.19541693716E+02  0.37468995875E+01  0.19901970802E+02  0.51100000000E-03 0.  1.
         12    1    3    3    0    0  0.10672615300E+02  0.82630090960E+01 -0.13040514606E+02  0.18767979589E+02  0.00000000000E+00 0. -1.
</event>
<event>
 7    1  0.5761011E-013  0.5930195E+02  0.7816164E-02  0.1266605E+00
        -11   -1    0    0    0    0  0.00000000000E+00  0.00000000000E+00  0.45593999997E+02  0.45594000000E+02  0.51100000000E-03 0. -1.
         11   -1    0    0    0    0 -0.00000000000E+00 -0.00000000000E+00 -0.45593999997E+02  0.45594000000E+02  0.51100000000E-03 0.  1.
    9900012    2    1    2    0    0 -0.23338872508E+02 -0.18955129650E+02  0.10616966637E+02  0.59301954610E+02  0.50000019300E+02 0.  0.
        -12    1    1    2    0    0  0.23338872508E+02  0.18955129650E+02 -0.10616966637E+02  0.31886045390E+02  0.00000000000E+00 0.  1.
         11    1    3    3    0    0 -0.22107162542E+02 -0.24646126085E+02  0.21017034063E+02  0.39215735206E+02  0.51100000000E-03 0. -1.
        -11    1    3    3    0    0 -0.39369705842E+01  0.87703484623E+01 -0.12264505654E+02  0.15583223310E+02  0.51100000000E-03 0.  1.
         12    1    3    3    0    0  0.27052606176E+01 -0.30793520277E+01  0.18644382281E+01  0.45029960944E+01  0.00000000000E+00 0. -1.
</event>
<event>
 7    1  0.5761011E-013  0.5930195E+02  0.7816164E-02  0.1266605E+00
        -11   -1    0    0    0    0  0.00000000000E+00  0.00000000000E+00  0.45593999997E+02  0.45594000000E+02  0.51100000000E-03 0.  1.
         11   -1    0    0    0    0 -0.00000000000E+00 -0.00000000000E+00 -0.45593999997E+02  0.45594000000E+02  0.51100000000E-03 0. -1.
    9900012    2    1    2    0    0 -0.66387071305E+00  0.30877157262E+02 -0.79297285350E+01  0.59301950393E+02  0.50000011609E+02 0.  0.
        -12    1    1    2    0    0  0.66387071305E+00 -0.30877157262E+02  0.79297285350E+01  0.31886049607E+02  0.00000000000E+00 0.  1.
         11    1    3    3    0    0 -0.21754455807E+02  0.13519085766E+02 -0.71221813820E+01  0.26584722969E+02  0.51100000000E-03 0. -1.
        -11    1    3    3    0    0  0.15870682998E+02  0.15847794283E+02  0.67380237530E+01  0.23418627775E+02  0.51100000000E-03 0.  1.
         12    1    3    3    0    0  0.52199020959E+01  0.15102772129E+01 -0.75455709059E+01  0.92985996498E+01  0.00000000000E+00 0. -1.
</event>
<event>
 7    1  0.5761011E-013  0.5930191E+02  0.7816164E-02  0.1266605E+00
        -11   -1    0    0    0    0  0.00000000000E+00  0.00000000000E+00  0.45593999997E+02  0.45594000000E+02  0.51100000000E-03 0.  1.
         11   -1    0    0    0    0 -0.00000000000E+00 -0.00000000000E+00 -0.45593999997E+02  0.45594000000E+02  0.51100000000E-03 0. -1.
    9900012    2    1    2    0    0  0.84753533838E+01 -0.23856539741E+02 -0.19384443400E+02  0.59301909783E+02  0.49999937546E+02 0.  0.
        -12    1    1    2    0    0 -0.84753533838E+01  0.23856539741E+02  0.19384443400E+02  0.31886090217E+02  0.00000000000E+00 0.  1.
         11    1    3    3    0    0  0.11031722261E+02 -0.18835177319E+01 -0.67441880076E+01  0.13066392280E+02  0.51100000000E-03 0. -1.
        -11    1    3    3    0    0 -0.59681934711E+01  0.57752334897E+01  0.79636403268E+01  0.11506181933E+02  0.51100000000E-03 0.  1.
         12    1    3    3    0    0  0.34118245944E+01 -0.27748255499E+02 -0.20603895719E+02  0.34729335569E+02  0.00000000000E+00 0. -1.
</event>
<event>
 7    1  0.5761011E-013  0.5930194E+02  0.7816164E-02  0.1266605E+00
        -11   -1    0    0    0    0  0.00000000000E+00  0.00000000000E+00  0.45593999997E+02  0.45594000000E+02  0.51100000000E-03 0. -1.
         11   -1    0    0    0    0 -0.00000000000E+00 -0.00000000000E+00 -0.45593999997E+02  0.45594000000E+02  0.51100000000E-03 0.  1.
    9900012    2    1    2    0    0 -0.24765224115E+02 -0.15823457539E+02 -0.12370224178E+02  0.59301943798E+02  0.49999999580E+02 0.  0.
        -12    1    1    2    0    0  0.24765224115E+02  0.15823457539E+02  0.12370224178E+02  0.31886056202E+02  0.00000000000E+00 0.  1.
         11    1    3    3    0    0  0.12466883013E+02  0.24198446935E+01  0.45913213253E+01  0.13504038365E+02  0.51100000000E-03 0. -1.
        -11    1    3    3    0    0 -0.12991332640E+02 -0.11395831117E+02 -0.82032029422E+01  0.19129355174E+02  0.51100000000E-03 0.  1.
         12    1    3    3    0    0 -0.24240774487E+02 -0.68474711155E+01 -0.87583425612E+01  0.26668550258E+02  0.00000000000E+00 0. -1.
</event>
<event>
 7    1  0.5761011E-013  0.5930193E+02  0.7816164E-02  0.1266605E+00
        -11   -1    0    0    0    0  0.00000000000E+00  0.00000000000E+00  0.45593999997E+02  0.45594000000E+02  0.51100000000E-03 0.  1.
         11   -1    0    0    0    0 -0.00000000000E+00 -0.00000000000E+00 -0.45593999997E+02  0.45594000000E+02  0.51100000000E-03 0. -1.
    9900012    2    1    2    0    0  0.13287537088E+02 -0.28370068567E+02 -0.59415390195E+01  0.59301932223E+02  0.49999978471E+02 0.  0.
        -12    1    1    2    0    0 -0.13287537088E+02  0.28370068567E+02  0.59415390195E+01  0.31886067777E+02  0.00000000000E+00 0.  1.
         11    1    3    3    0    0  0.17675829923E+02 -0.83503817327E+01  0.87314943138E+01  0.21410344037E+02  0.51100000000E-03 0. -1.
        -11    1    3    3    0    0 -0.15614060564E+02 -0.16821888886E+02 -0.72954063775E+01  0.24083143222E+02  0.51100000000E-03 0.  1.
        -12    1    3    3    0    0  0.11225767729E+02 -0.31977979485E+01 -0.73776269558E+01  0.13808444964E+02  0.00000000000E+00 0.  1.
</event>
<event>
 7    1  0.5761011E-013  0.5930195E+02  0.7816164E-02  0.1266605E+00
        -11   -1    0    0    0    0  0.00000000000E+00  0.00000000000E+00  0.45593999997E+02  0.45594000000E+02  0.51100000000E-03 0.  1.
         11   -1    0    0    0    0 -0.00000000000E+00 -0.00000000000E+00 -0.45593999997E+02  0.45594000000E+02  0.51100000000E-03 0. -1.
    9900012    2    1    2    0    0  0.45658543722E+01 -0.26297857112E+02 -0.17444076625E+02  0.59301950948E+02  0.50000012621E+02 0.  0.
        -12    1    1    2    0    0 -0.45658543722E+01  0.26297857112E+02  0.17444076625E+02  0.31886049052E+02  0.00000000000E+00 0.  1.
         11    1    3    3    0    0 -0.15294897849E+02 -0.30498764949E+02 -0.80476967937E+01  0.35055298994E+02  0.51100000000E-03 0. -1.
        -11    1    3    3    0    0  0.36041387331E+01  0.39993383087E+01  0.16383876633E+00  0.53862200398E+01  0.51100000000E-03 0.  1.
         12    1    3    3    0    0  0.16256613488E+02  0.20156952773E+00 -0.95602185976E+01  0.18860431914E+02  0.00000000000E+00 0. -1.
</event>
<event>
 7    1  0.5761011E-013  0.5930205E+02  0.7816164E-02  0.1266604E+00
        -11   -1    0    0    0    0  0.00000000000E+00  0.00000000000E+00  0.45593999997E+02  0.45594000000E+02  0.51100000000E-03 0. -1.
         11   -1    0    0    0    0 -0.00000000000E+00 -0.00000000000E+00 -0.45593999997E+02  0.45594000000E+02  0.51100000000E-03 0.  1.
    9900012    2    1    2    0    0 -0.11779258354E+02 -0.25960786256E+02 -0.14282879730E+02  0.59302046920E+02  0.50000187651E+02 0.  0.
        -12    1    1    2    0    0  0.11779258354E+02  0.25960786256E+02  0.14282879730E+02  0.31885953080E+02  0.00000000000E+00 0.  1.
         11    1    3    3    0    0  0.15054818367E+02 -0.16915538587E+02 -0.24470693778E+00  0.22646034609E+02  0.51100000000E-03 0. -1.
        -11    1    3    3    0    0 -0.18550173519E+02 -0.13954470389E+02 -0.56619480520E+01  0.23893384805E+02  0.51100000000E-03 0.  1.
         12    1    3    3    0    0 -0.82839032018E+01  0.49092227198E+01 -0.83762247398E+01  0.12762627506E+02  0.00000000000E+00 0. -1.
</event>
<event>
 7    1  0.5761011E-013  0.5930193E+02  0.7816164E-02  0.1266605E+00
        -11   -1    0    0    0    0  0.00000000000E+00  0.00000000000E+00  0.45593999997E+02  0.45594000000E+02  0.51100000000E-03 0.  1.
         11   -1    0    0    0    0 -0.00000000000E+00 -0.00000000000E+00 -0.45593999997E+02  0.45594000000E+02  0.51100000000E-03 0. -1.
    9900012    2    1    2    0    0  0.23497032533E+02  0.20957049947E+02 -0.50410994148E+01  0.59301934647E+02  0.49999982892E+02 0.  0.
        -12    1    1    2    0    0 -0.23497032533E+02 -0.20957049947E+02  0.50410994148E+01  0.31886065353E+02  0.00000000000E+00 0.  1.
         11    1    3    3    0    0 -0.26964080073E+00  0.10232851148E+01 -0.56488125701E+01  0.57470777183E+01  0.51100000000E-03 0. -1.
        -11    1    3    3    0    0  0.80040280281E+01 -0.13611621215E+02  0.41357220214E+01  0.16323139823E+02  0.51100000000E-03 0.  1.
        -12    1    3    3    0    0  0.15762645306E+02  0.33545386048E+02 -0.35280088661E+01  0.37231717106E+02  0.00000000000E+00 0.  1.
</event>
<event>
 7    1  0.5761011E-013  0.5930194E+02  0.7816164E-02  0.1266605E+00
        -11   -1    0    0    0    0  0.00000000000E+00  0.00000000000E+00  0.45593999997E+02  0.45594000000E+02  0.51100000000E-03 0.  1.
         11   -1    0    0    0    0 -0.00000000000E+00 -0.00000000000E+00 -0.45593999997E+02  0.45594000000E+02  0.51100000000E-03 0. -1.
    9900012    2    1    2    0    0 -0.11301931683E+02 -0.11553704074E+02 -0.27486337841E+02  0.59301944968E+02  0.50000001715E+02 0.  0.
        -12    1    1    2    0    0  0.11301931683E+02  0.11553704074E+02  0.27486337841E+02  0.31886055032E+02  0.00000000000E+00 0.  1.
         11    1    3    3    0    0 -0.18401689448E+02 -0.40016597762E+00 -0.23402542220E+00  0.18407527686E+02  0.51100000000E-03 0. -1.
        -11    1    3    3    0    0  0.16338625457E+02 -0.12368487782E+02 -0.14513479510E+02  0.25111177981E+02  0.51100000000E-03 0.  1.
        -12    1    3    3    0    0 -0.92388676929E+01  0.12149496851E+01 -0.12738832908E+02  0.15783239301E+02  0.00000000000E+00 0.  1.
</event>
<event>
 7    1  0.5761011E-013  0.5930195E+02  0.7816164E-02  0.1266605E+00
        -11   -1    0    0    0    0  0.00000000000E+00  0.00000000000E+00  0.45593999997E+02  0.45594000000E+02  0.51100000000E-03 0. -1.
         11   -1    0    0    0    0 -0.00000000000E+00 -0.00000000000E+00 -0.45593999997E+02  0.45594000000E+02  0.51100000000E-03 0.  1.
    9900012    2    1    2    0    0 -0.94164748852E+00  0.28592747344E+02  0.14081489654E+02  0.59301948950E+02  0.50000008977E+02 0.  0.
        -12    1    1    2    0    0  0.94164748852E+00 -0.28592747344E+02 -0.14081489654E+02  0.31886051050E+02  0.00000000000E+00 0.  1.
         11    1    3    3    0    0  0.15085648508E+02  0.44779200244E+01  0.13478725389E+02  0.20719666914E+02  0.51100000000E-03 0. -1.
        -11    1    3    3    0    0 -0.73968130168E+01 -0.37327826166E+01 -0.37684687654E+01  0.91020803098E+01  0.51100000000E-03 0.  1.
         12    1    3    3    0    0 -0.86304829794E+01  0.27847609937E+02  0.43712330303E+01  0.29480201727E+02  0.00000000000E+00 0. -1.
</event>
<event>
 7    1  0.5761011E-013  0.5930194E+02  0.7816164E-02  0.1266605E+00
        -11   -1    0    0    0    0  0.00000000000E+00  0.00000000000E+00  0.45593999997E+02  0.45594000000E+02  0.51100000000E-03 0. -1.
         11   -1    0    0    0    0 -0.00000000000E+00 -0.00000000000E+00 -0.45593999997E+02  0.45594000000E+02  0.51100000000E-03 0.  1.
    9900012    2    1    2    0    0  0.55110694617E+01  0.27884987658E+01  0.31282156764E+02  0.59301938095E+02  0.49999989181E+02 0.  0.
        -12    1    1    2    0    0 -0.55110694617E+01 -0.27884987658E+01 -0.31282156764E+02  0.31886061905E+02  0.00000000000E+00 0.  1.
         11    1    3    3    0    0  0.12999817006E+02 -0.11042337001E+02  0.48607530977E+01  0.17735708883E+02  0.51100000000E-03 0. -1.
        -11    1    3    3    0    0 -0.15480514032E+02  0.87983286462E+01  0.55393954278E+01  0.18647836433E+02  0.51100000000E-03 0.  1.
         12    1    3    3    0    0  0.79917664878E+01  0.50325071210E+01  0.20882008238E+02  0.22918392779E+02  0.00000000000E+00 0. -1.
</event>
<event>
 7    1  0.5761011E-013  0.5930191E+02  0.7816164E-02  0.1266605E+00
        -11   -1    0    0    0    0  0.00000000000E+00  0.00000000000E+00  0.45593999997E+02  0.45594000000E+02  0.51100000000E-03 0.  1.
         11   -1    0    0    0    0 -0.00000000000E+00 -0.00000000000E+00 -0.45593999997E+02  0.45594000000E+02  0.51100000000E-03 0. -1.
    9900012    2    1    2    0    0  0.17998251385E+02 -0.21705279398E+02 -0.14888461421E+02  0.59301913847E+02  0.49999944958E+02 0.  0.
        -12    1    1    2    0    0 -0.17998251385E+02  0.21705279398E+02  0.14888461421E+02  0.31886086153E+02  0.00000000000E+00 0.  1.
         11    1    3    3    0    0  0.31624837691E+02 -0.14810176206E+02  0.14314174594E+01  0.34950259433E+02  0.51100000000E-03 0. -1.
        -11    1    3    3    0    0 -0.38615903990E+01 -0.31767189639E+01 -0.12082191496E+02  0.13076038214E+02  0.51100000000E-03 0.  1.
         12    1    3    3    0    0 -0.97649959065E+01 -0.37183842281E+01 -0.42376873847E+01  0.11275616200E+02  0.00000000000E+00 0. -1.
</event>
<event>
 7    1  0.5761011E-013  0.5930195E+02  0.7816164E-02  0.1266605E+00
        -11   -1    0    0    0    0  0.00000000000E+00  0.00000000000E+00  0.45593999997E+02  0.45594000000E+02  0.51100000000E-03 0.  1.
         11   -1    0    0    0    0 -0.00000000000E+00 -0.00000000000E+00 -0.45593999997E+02  0.45594000000E+02  0.51100000000E-03 0. -1.
    9900012    2    1    2    0    0  0.17194510667E+02 -0.26851154885E+02  0.29029341229E+00  0.59301953115E+02  0.50000016572E+02 0.  0.
        -12    1    1    2    0    0 -0.17194510667E+02  0.26851154885E+02 -0.29029341229E+00  0.31886046885E+02  0.00000000000E+00 0.  1.
         11    1    3    3    0    0  0.43682558573E+01 -0.58598253538E+01 -0.19217446077E+02  0.20560385366E+02  0.51100000000E-03 0. -1.
        -11    1    3    3    0    0 -0.16098749436E+01 -0.91998339015E+01  0.17701746527E+02  0.20014506527E+02  0.51100000000E-03 0.  1.
        -12    1    3    3    0    0  0.14436129753E+02 -0.11791495630E+02  0.18059929615E+01  0.18727061222E+02  0.00000000000E+00 0.  1.
</event>
<event>
 7    1  0.5761011E-013  0.5930193E+02  0.7816164E-02  0.1266605E+00
        -11   -1    0    0    0    0  0.00000000000E+00  0.00000000000E+00  0.45593999997E+02  0.45594000000E+02  0.51100000000E-03 0. -1.
         11   -1    0    0    0    0 -0.00000000000E+00 -0.00000000000E+00 -0.45593999997E+02  0.45594000000E+02  0.51100000000E-03 0.  1.
    9900012    2    1    2    0    0 -0.15710966686E+02  0.14445539656E+02  0.23689940816E+02  0.59301931161E+02  0.49999976534E+02 0.  0.
        -12    1    1    2    0    0  0.15710966686E+02 -0.14445539656E+02 -0.23689940816E+02  0.31886068839E+02  0.00000000000E+00 0.  1.
         11    1    3    3    0    0 -0.59564676920E+00  0.87901171525E+01 -0.47401022055E+01  0.10004475189E+02  0.51100000000E-03 0. -1.
        -11    1    3    3    0    0 -0.59878632892E+01 -0.49734427689E+01  0.33504388348E+02  0.34396710287E+02  0.51100000000E-03 0.  1.
        -12    1    3    3    0    0 -0.91274566277E+01  0.10628865272E+02 -0.50743453267E+01  0.14900745685E+02  0.00000000000E+00 0.  1.
</event>
<event>
 7    1  0.5761011E-013  0.5930194E+02  0.7816164E-02  0.1266605E+00
        -11   -1    0    0    0    0  0.00000000000E+00  0.00000000000E+00  0.45593999997E+02  0.45594000000E+02  0.51100000000E-03 0. -1.
         11   -1    0    0    0    0 -0.00000000000E+00 -0.00000000000E+00 -0.45593999997E+02  0.45594000000E+02  0.51100000000E-03 0.  1.
    9900012    2    1    2    0    0 -0.22823992087E+02  0.20545430331E+02  0.85831966330E+01  0.59301943695E+02  0.49999999393E+02 0.  0.
        -12    1    1    2    0    0  0.22823992087E+02 -0.20545430331E+02 -0.85831966330E+01  0.31886056305E+02  0.00000000000E+00 0.  1.
         11    1    3    3    0    0 -0.11578712300E+02  0.13638274885E+01 -0.49987892211E+01  0.12685207838E+02  0.51100000000E-03 0. -1.
        -11    1    3    3    0    0  0.50658819384E+01  0.19070033079E+02 -0.64728005443E+01  0.20765993080E+02  0.51100000000E-03 0.  1.
        -12    1    3    3    0    0 -0.16311161725E+02  0.11156976332E+00  0.20054786398E+02  0.25850742777E+02  0.00000000000E+00 0.  1.
</event>
<event>
 7    1  0.5761011E-013  0.5930191E+02  0.7816164E-02  0.1266605E+00
        -11   -1    0    0    0    0  0.00000000000E+00  0.00000000000E+00  0.45593999997E+02  0.45594000000E+02  0.51100000000E-03 0. -1.
         11   -1    0    0    0    0 -0.00000000000E+00 -0.00000000000E+00 -0.45593999997E+02  0.45594000000E+02  0.51100000000E-03 0.  1.
    9900012    2    1    2    0    0  0.28858075111E+02 -0.36144038417E+01  0.13071749573E+02  0.59301905050E+02  0.49999928914E+02 0.  0.
        -12    1    1    2    0    0 -0.28858075111E+02  0.36144038417E+01 -0.13071749573E+02  0.31886094950E+02  0.00000000000E+00 0.  1.
         11    1    3    3    0    0  0.10540351236E+02  0.25284290174E+01  0.25958713060E+02  0.28130885899E+02  0.51100000000E-03 0. -1.
        -11    1    3    3    0    0  0.20652900286E+02 -0.11217709594E+01 -0.14665346881E+02  0.25354941524E+02  0.51100000000E-03 0.  1.
         12    1    3    3    0    0 -0.23351764104E+01 -0.50210618997E+01  0.17783833938E+01  0.58160776270E+01  0.00000000000E+00 0. -1.
</event>
<event>
 7    1  0.5761011E-013  0.5930183E+02  0.7816164E-02  0.1266605E+00
        -11   -1    0    0    0    0  0.00000000000E+00  0.00000000000E+00  0.45593999997E+02  0.45594000000E+02  0.51100000000E-03 0. -1.
         11   -1    0    0    0    0 -0.00000000000E+00 -0.00000000000E+00 -0.45593999997E+02  0.45594000000E+02  0.51100000000E-03 0.  1.
    9900012    2    1    2    0    0 -0.11909571925E+02 -0.13111908854E+02  0.26513537348E+02  0.59301831840E+02  0.49999795396E+02 0.  0.
        -12    1    1    2    0    0  0.11909571925E+02  0.13111908854E+02 -0.26513537348E+02  0.31886168160E+02  0.00000000000E+00 0.  1.
         11    1    3    3    0    0 -0.15581795166E+02 -0.47289504550E+00  0.28844168431E+01  0.15853574710E+02  0.51100000000E-03 0.  1.
        -11    1    3    3    0    0  0.11603362838E+02 -0.21324374898E+02  0.12725515701E+02  0.27409957025E+02  0.51100000000E-03 0. -1.
         12    1    3    3    0    0 -0.79311395972E+01  0.86853610897E+01  0.10903604803E+02  0.16038300105E+02  0.00000000000E+00 0. -1.
</event>
<event>
 7    1  0.5761011E-013  0.5930192E+02  0.7816164E-02  0.1266605E+00
        -11   -1    0    0    0    0  0.00000000000E+00  0.00000000000E+00  0.45593999997E+02  0.45594000000E+02  0.51100000000E-03 0. -1.
         11   -1    0    0    0    0 -0.00000000000E+00 -0.00000000000E+00 -0.45593999997E+02  0.45594000000E+02  0.51100000000E-03 0.  1.
    9900012    2    1    2    0    0  0.71532297124E+01 -0.29324781639E+01  0.30934672026E+02  0.59301920641E+02  0.49999957349E+02 0.  0.
        -12    1    1    2    0    0 -0.71532297124E+01  0.29324781639E+01 -0.30934672026E+02  0.31886079359E+02  0.00000000000E+00 0.  1.
         11    1    3    3    0    0 -0.16532661733E+01  0.18004168768E+02 -0.12997816136E+01  0.18126577575E+02  0.51100000000E-03 0.  1.
        -11    1    3    3    0    0  0.37207990429E+01 -0.19671034657E+02  0.28088687406E+02  0.34493018286E+02  0.51100000000E-03 0. -1.
        -12    1    3    3    0    0  0.50856968428E+01 -0.12656122753E+01  0.41457662336E+01  0.66823247805E+01  0.00000000000E+00 0.  1.
</event>
<event>
 7    1  0.5761011E-013  0.5930193E+02  0.7816164E-02  0.1266605E+00
        -11   -1    0    0    0    0  0.00000000000E+00  0.00000000000E+00  0.45593999997E+02  0.45594000000E+02  0.51100000000E-03 0.  1.
         11   -1    0    0    0    0 -0.00000000000E+00 -0.00000000000E+00 -0.45593999997E+02  0.45594000000E+02  0.51100000000E-03 0. -1.
    9900012    2    1    2    0    0  0.19624693978E+02 -0.25035496080E+02 -0.21946635313E+01  0.59301933674E+02  0.49999981118E+02 0.  0.
        -12    1    1    2    0    0 -0.19624693978E+02  0.25035496080E+02  0.21946635313E+01  0.31886066326E+02  0.00000000000E+00 0.  1.
         11    1    3    3    0    0 -0.24668571301E+01 -0.16992447456E+01 -0.55731103641E+01  0.63271143658E+01  0.51100000000E-03 0. -1.
        -11    1    3    3    0    0  0.20408133502E+02 -0.31717258802E+02  0.13195579539E+02  0.39957474127E+02  0.51100000000E-03 0.  1.
        -12    1    3    3    0    0  0.16834176058E+01  0.83810074677E+01 -0.98171327063E+01  0.13017345182E+02  0.00000000000E+00 0.  1.
</event>
<event>
 7    1  0.5761011E-013  0.5930196E+02  0.7816164E-02  0.1266605E+00
        -11   -1    0    0    0    0  0.00000000000E+00  0.00000000000E+00  0.45593999997E+02  0.45594000000E+02  0.51100000000E-03 0.  1.
         11   -1    0    0    0    0 -0.00000000000E+00 -0.00000000000E+00 -0.45593999997E+02  0.45594000000E+02  0.51100000000E-03 0. -1.
    9900012    2    1    2    0    0  0.21487201029E+01  0.30159020896E+02  0.10126007765E+02  0.59301959595E+02  0.50000028390E+02 0.  0.
        -12    1    1    2    0    0 -0.21487201029E+01 -0.30159020896E+02 -0.10126007765E+02  0.31886040405E+02  0.00000000000E+00 0.  1.
         11    1    3    3    0    0  0.12352822200E+02  0.37878898912E+02  0.11606426338E+02  0.41498341313E+02  0.51100000000E-03 0. -1.
        -11    1    3    3    0    0 -0.68374984241E+01 -0.10921214784E+02  0.13298203867E+00  0.12885728600E+02  0.51100000000E-03 0.  1.
         12    1    3    3    0    0 -0.33666036731E+01  0.32013367676E+01 -0.16134006120E+01  0.49178896822E+01  0.00000000000E+00 0. -1.
</event>
<event>
 7    1  0.5761011E-013  0.5930195E+02  0.7816164E-02  0.1266605E+00
        -11   -1    0    0    0    0  0.00000000000E+00  0.00000000000E+00  0.45593999997E+02  0.45594000000E+02  0.51100000000E-03 0.  1.
         11   -1    0    0    0    0 -0.00000000000E+00 -0.00000000000E+00 -0.45593999997E+02  0.45594000000E+02  0.51100000000E-03 0. -1.
    9900012    2    1    2    0    0  0.14993174201E+02 -0.37070176131E+01 -0.27895928121E+02  0.59301951986E+02  0.50000014514E+02 0.  0.
        -12    1    1    2    0    0 -0.14993174201E+02  0.37070176131E+01  0.27895928121E+02  0.31886048014E+02  0.00000000000E+00 0.  1.
         11    1    3    3    0    0  0.51022192835E+01 -0.22574592461E+02 -0.35899022204E+01  0.23420765671E+02  0.51100000000E-03 0. -1.
        -11    1    3    3    0    0 -0.11184311587E+01  0.55911412192E+01  0.43870517967E+00  0.57187595583E+01  0.51100000000E-03 0.  1.
         12    1    3    3    0    0  0.11009386076E+02  0.13276433628E+02 -0.24744731080E+02  0.30162426757E+02  0.00000000000E+00 0. -1.
</event>
<event>
 7    1  0.5761011E-013  0.5930193E+02  0.7816164E-02  0.1266605E+00
        -11   -1    0    0    0    0  0.00000000000E+00  0.00000000000E+00  0.45593999997E+02  0.45594000000E+02  0.51100000000E-03 0.  1.
         11   -1    0    0    0    0 -0.00000000000E+00 -0.00000000000E+00 -0.45593999997E+02  0.45594000000E+02  0.51100000000E-03 0. -1.
    9900012    2    1    2    0    0  0.98107545304E+01  0.30152356789E+02 -0.33624452768E+01  0.59301928392E+02  0.49999971484E+02 0.  0.
        -12    1    1    2    0    0 -0.98107545304E+01 -0.30152356789E+02  0.33624452768E+01  0.31886071608E+02  0.00000000000E+00 0.  1.
         11    1    3    3    0    0  0.18287138566E+02  0.75739252308E+01 -0.52790221881E+00  0.19800567198E+02  0.51100000000E-03 0. -1.
        -11    1    3    3    0    0 -0.82440418196E+01 -0.57081876999E+01 -0.48567116719E+01  0.11141601360E+02  0.51100000000E-03 0.  1.
        -12    1    3    3    0    0 -0.23234221598E+00  0.28286619258E+02  0.20221686139E+01  0.28359759834E+02  0.00000000000E+00 0.  1.
</event>
<event>
 7    1  0.5761011E-013  0.5930193E+02  0.7816164E-02  0.1266605E+00
        -11   -1    0    0    0    0  0.00000000000E+00  0.00000000000E+00  0.45593999997E+02  0.45594000000E+02  0.51100000000E-03 0. -1.
         11   -1    0    0    0    0 -0.00000000000E+00 -0.00000000000E+00 -0.45593999997E+02  0.45594000000E+02  0.51100000000E-03 0.  1.
    9900012    2    1    2    0    0  0.40448480840E+01 -0.31613805388E+02  0.96316060665E+00  0.59301934619E+02  0.49999982840E+02 0.  0.
        -12    1    1    2    0    0 -0.40448480840E+01  0.31613805388E+02 -0.96316060665E+00  0.31886065381E+02  0.00000000000E+00 0.  1.
         11    1    3    3    0    0  0.11106647041E+02  0.80820194452E+01  0.17129286308E+01  0.13842354264E+02  0.51100000000E-03 0. -1.
        -11    1    3    3    0    0 -0.39400219596E+01 -0.32801461853E+01 -0.66923925247E+01  0.84303766230E+01  0.51100000000E-03 0.  1.
         12    1    3    3    0    0 -0.31217769977E+01 -0.36415678648E+02  0.59426245006E+01  0.37029203732E+02  0.00000000000E+00 0. -1.
</event>
<event>
 7    1  0.5761011E-013  0.5930196E+02  0.7816164E-02  0.1266605E+00
        -11   -1    0    0    0    0  0.00000000000E+00  0.00000000000E+00  0.45593999997E+02  0.45594000000E+02  0.51100000000E-03 0.  1.
         11   -1    0    0    0    0 -0.00000000000E+00 -0.00000000000E+00 -0.45593999997E+02  0.45594000000E+02  0.51100000000E-03 0. -1.
    9900012    2    1    2    0    0 -0.24152679416E+02 -0.17748233755E+02 -0.10879703231E+02  0.59301958120E+02  0.50000025701E+02 0.  0.
        -12    1    1    2    0    0  0.24152679416E+02  0.17748233755E+02  0.10879703231E+02  0.31886041880E+02  0.00000000000E+00 0.  1.
         11    1    3    3    0    0 -0.28466212925E+02 -0.14792923566E+02  0.65931888877E+01  0.32750969541E+02  0.51100000000E-03 0. -1.
        -11    1    3    3    0    0  0.90471291065E+01  0.52080363243E+01 -0.10596917076E+02  0.14875108040E+02  0.51100000000E-03 0.  1.
        -12    1    3    3    0    0 -0.47335955973E+01 -0.81633465133E+01 -0.68759750423E+01  0.11675880539E+02  0.00000000000E+00 0.  1.
</event>
<event>
 7    1  0.5761011E-013  0.5930195E+02  0.7816164E-02  0.1266605E+00
        -11   -1    0    0    0    0  0.00000000000E+00  0.00000000000E+00  0.45593999997E+02  0.45594000000E+02  0.51100000000E-03 0. -1.
         11   -1    0    0    0    0 -0.00000000000E+00 -0.00000000000E+00 -0.45593999997E+02  0.45594000000E+02  0.51100000000E-03 0.  1.
    9900012    2    1    2    0    0 -0.18388533115E+02 -0.26185441578E-01  0.26049590310E+02  0.59301953034E+02  0.50000016426E+02 0.  0.
        -12    1    1    2    0    0  0.18388533115E+02  0.26185441578E-01 -0.26049590310E+02  0.31886046966E+02  0.00000000000E+00 0.  1.
         11    1    3    3    0    0  0.62832046115E+01 -0.10334493974E+01  0.18298749117E+02  0.19375007029E+02  0.51100000000E-03 0. -1.
        -11    1    3    3    0    0 -0.24334868575E+02 -0.40117546354E+01  0.16612968175E+02  0.29736689723E+02  0.51100000000E-03 0.  1.
        -12    1    3    3    0    0 -0.33686915138E+00  0.50190185913E+01 -0.88621269828E+01  0.10190256283E+02  0.00000000000E+00 0.  1.
</event>
<event>
 7    1  0.5761011E-013  0.5930194E+02  0.7816164E-02  0.1266605E+00
        -11   -1    0    0    0    0  0.00000000000E+00  0.00000000000E+00  0.45593999997E+02  0.45594000000E+02  0.51100000000E-03 0. -1.
         11   -1    0    0    0    0 -0.00000000000E+00 -0.00000000000E+00 -0.45593999997E+02  0.45594000000E+02  0.51100000000E-03 0.  1.
    9900012    2    1    2    0    0 -0.85551160232E+01 -0.32460946430E+01  0.30544948946E+02  0.59301936482E+02  0.49999986238E+02 0.  0.
        -12    1    1    2    0    0  0.85551160232E+01  0.32460946430E+01 -0.30544948946E+02  0.31886063518E+02  0.00000000000E+00 0.  1.
         11    1    3    3    0    0 -0.23133689717E+01 -0.16532832159E+00 -0.10754194472E+02  0.11001441199E+02  0.51100000000E-03 0. -1.
        -11    1    3    3    0    0  0.91888564725E+01 -0.14900338968E+01  0.12451382423E+02  0.15546453255E+02  0.51100000000E-03 0.  1.
         12    1    3    3    0    0 -0.15430603524E+02 -0.15907324246E+01  0.28847760994E+02  0.32754042028E+02  0.00000000000E+00 0. -1.
</event>
<event>
 7    1  0.5761011E-013  0.5930194E+02  0.7816164E-02  0.1266605E+00
        -11   -1    0    0    0    0  0.00000000000E+00  0.00000000000E+00  0.45593999997E+02  0.45594000000E+02  0.51100000000E-03 0.  1.
         11   -1    0    0    0    0 -0.00000000000E+00 -0.00000000000E+00 -0.45593999997E+02  0.45594000000E+02  0.51100000000E-03 0. -1.
    9900012    2    1    2    0    0  0.27923109409E+02  0.15346388313E+02 -0.12285444614E+01  0.59301937295E+02  0.49999987721E+02 0.  0.
        -12    1    1    2    0    0 -0.27923109409E+02 -0.15346388313E+02  0.12285444614E+01  0.31886062705E+02  0.00000000000E+00 0.  1.
         11    1    3    3    0    0  0.23098050179E+02  0.33209255745E+01  0.50355238049E+01  0.23872682485E+02  0.51100000000E-03 0. -1.
        -11    1    3    3    0    0 -0.10116024473E+02 -0.32098715849E+01 -0.90003297018E+01  0.13915572634E+02  0.51100000000E-03 0.  1.
        -12    1    3    3    0    0  0.14941083703E+02  0.15235334323E+02  0.27362614355E+01  0.21513682177E+02  0.00000000000E+00 0.  1.
</event>
<event>
 7    1  0.5761011E-013  0.5930194E+02  0.7816164E-02  0.1266605E+00
        -11   -1    0    0    0    0  0.00000000000E+00  0.00000000000E+00  0.45593999997E+02  0.45594000000E+02  0.51100000000E-03 0.  1.
         11   -1    0    0    0    0 -0.00000000000E+00 -0.00000000000E+00 -0.45593999997E+02  0.45594000000E+02  0.51100000000E-03 0. -1.
    9900012    2    1    2    0    0 -0.24922557361E+02 -0.19104226157E+02  0.55331014866E+01  0.59301944513E+02  0.50000000885E+02 0.  0.
        -12    1    1    2    0    0  0.24922557361E+02  0.19104226157E+02 -0.55331014866E+01  0.31886055487E+02  0.00000000000E+00 0.  1.
         11    1    3    3    0    0 -0.11582701072E+01 -0.27248658284E+02  0.97945537776E+01  0.28978686165E+02  0.51100000000E-03 0. -1.
        -11    1    3    3    0    0 -0.17255238609E+02  0.36821471434E+00  0.34285083162E+01  0.17596406198E+02  0.51100000000E-03 0.  1.
         12    1    3    3    0    0 -0.65090486448E+01  0.77762174125E+01 -0.76899606072E+01  0.12726852150E+02  0.00000000000E+00 0. -1.
</event>
<event>
 7    1  0.5761011E-013  0.5930195E+02  0.7816164E-02  0.1266605E+00
        -11   -1    0    0    0    0  0.00000000000E+00  0.00000000000E+00  0.45593999997E+02  0.45594000000E+02  0.51100000000E-03 0. -1.
         11   -1    0    0    0    0 -0.00000000000E+00 -0.00000000000E+00 -0.45593999997E+02  0.45594000000E+02  0.51100000000E-03 0.  1.
    9900012    2    1    2    0    0 -0.31147932525E+02 -0.67823585834E+01 -0.72553375782E+00  0.59301945246E+02  0.50000002222E+02 0.  0.
        -12    1    1    2    0    0  0.31147932525E+02  0.67823585834E+01  0.72553375782E+00  0.31886054754E+02  0.00000000000E+00 0.  1.
         11    1    3    3    0    0 -0.20505978602E+02  0.17971963369E+01  0.12739304619E+02  0.24207745775E+02  0.51100000000E-03 0. -1.
        -11    1    3    3    0    0 -0.88716403870E+00  0.77754228436E+01 -0.14005220135E+02  0.16043392774E+02  0.51100000000E-03 0.  1.
        -12    1    3    3    0    0 -0.97547898843E+01 -0.16354977764E+02  0.54038175787E+00  0.19050806696E+02  0.00000000000E+00 0.  1.
</event>
<event>
 7    1  0.5761011E-013  0.5930197E+02  0.7816164E-02  0.1266605E+00
        -11   -1    0    0    0    0  0.00000000000E+00  0.00000000000E+00  0.45593999997E+02  0.45594000000E+02  0.51100000000E-03 0.  1.
         11   -1    0    0    0    0 -0.00000000000E+00 -0.00000000000E+00 -0.45593999997E+02  0.45594000000E+02  0.51100000000E-03 0. -1.
    9900012    2    1    2    0    0  0.26859373814E+02  0.50059439534E+01 -0.16438779826E+02  0.59301969850E+02  0.50000047094E+02 0.  0.
        -12    1    1    2    0    0 -0.26859373814E+02 -0.50059439534E+01  0.16438779826E+02  0.31886030150E+02  0.00000000000E+00 0.  1.
         11    1    3    3    0    0 -0.26029946384E+00  0.17960557668E+01 -0.56035949321E+01  0.58901484321E+01  0.51100000000E-03 0. -1.
        -11    1    3    3    0    0 -0.23509637896E+01 -0.13382867574E+02  0.68823088291E+01  0.15231360751E+02  0.51100000000E-03 0.  1.
        -12    1    3    3    0    0  0.29470637068E+02  0.16592755761E+02 -0.17717493723E+02  0.38180460667E+02  0.00000000000E+00 0.  1.
</event>
<event>
 7    1  0.5761011E-013  0.5930191E+02  0.7816164E-02  0.1266605E+00
        -11   -1    0    0    0    0  0.00000000000E+00  0.00000000000E+00  0.45593999997E+02  0.45594000000E+02  0.51100000000E-03 0.  1.
         11   -1    0    0    0    0 -0.00000000000E+00 -0.00000000000E+00 -0.45593999997E+02  0.45594000000E+02  0.51100000000E-03 0. -1.
    9900012    2    1    2    0    0  0.25699723843E+02  0.48411305761E+01 -0.18243096360E+02  0.59301907174E+02  0.49999932788E+02 0.  0.
        -12    1    1    2    0    0 -0.25699723843E+02 -0.48411305761E+01  0.18243096360E+02  0.31886092826E+02  0.00000000000E+00 0.  1.
         11    1    3    3    0    0  0.21062987920E-01 -0.88514529295E+01 -0.11911103381E+02  0.14839913970E+02  0.51100000000E-03 0.  1.
        -11    1    3    3    0    0  0.26349670645E+02  0.11594712959E+02  0.80659734074E+01  0.29896528878E+02  0.51100000000E-03 0. -1.
         12    1    3    3    0    0 -0.67100978952E+00  0.20978705466E+01 -0.14397966387E+02  0.14565464326E+02  0.00000000000E+00 0. -1.
</event>
<event>
 7    1  0.5761011E-013  0.5930194E+02  0.7816164E-02  0.1266605E+00
        -11   -1    0    0    0    0  0.00000000000E+00  0.00000000000E+00  0.45593999997E+02  0.45594000000E+02  0.51100000000E-03 0. -1.
         11   -1    0    0    0    0 -0.00000000000E+00 -0.00000000000E+00 -0.45593999997E+02  0.45594000000E+02  0.51100000000E-03 0.  1.
    9900012    2    1    2    0    0  0.29691767117E+02 -0.56455254807E+01 -0.10161086593E+02  0.59301942337E+02  0.49999996917E+02 0.  0.
        -12    1    1    2    0    0 -0.29691767117E+02  0.56455254807E+01  0.10161086593E+02  0.31886057663E+02  0.00000000000E+00 0.  1.
         11    1    3    3    0    0 -0.19907940553E+01  0.15127914508E+02  0.13333520265E+01  0.15316490662E+02  0.51100000000E-03 0.  1.
        -11    1    3    3    0    0  0.23812892685E+02 -0.22066945002E+02 -0.34343266534E+01  0.32646569798E+02  0.51100000000E-03 0. -1.
        -12    1    3    3    0    0  0.78696684874E+01  0.12935050134E+01 -0.80601119659E+01  0.11338881877E+02  0.00000000000E+00 0.  1.
</event>
<event>
 7    1  0.5761011E-013  0.5930194E+02  0.7816164E-02  0.1266605E+00
        -11   -1    0    0    0    0  0.00000000000E+00  0.00000000000E+00  0.45593999997E+02  0.45594000000E+02  0.51100000000E-03 0. -1.
         11   -1    0    0    0    0 -0.00000000000E+00 -0.00000000000E+00 -0.45593999997E+02  0.45594000000E+02  0.51100000000E-03 0.  1.
    9900012    2    1    2    0    0  0.71274785847E+01  0.23971604047E+02  0.19780853593E+02  0.59301938462E+02  0.49999989850E+02 0.  0.
        -12    1    1    2    0    0 -0.71274785847E+01 -0.23971604047E+02 -0.19780853593E+02  0.31886061538E+02  0.00000000000E+00 0.  1.
         11    1    3    3    0    0  0.25162038097E+01  0.28938772060E+01  0.20273144509E+01  0.43377195667E+01  0.51100000000E-03 0. -1.
        -11    1    3    3    0    0  0.54430567033E+01  0.38000775709E+01 -0.15842241315E+02  0.17176846799E+02  0.51100000000E-03 0.  1.
        -12    1    3    3    0    0 -0.83178192838E+00  0.17277649270E+02  0.33595780457E+02  0.37787372096E+02  0.00000000000E+00 0.  1.
</event>
<event>
 7    1  0.5761011E-013  0.5930195E+02  0.7816164E-02  0.1266605E+00
        -11   -1    0    0    0    0  0.00000000000E+00  0.00000000000E+00  0.45593999997E+02  0.45594000000E+02  0.51100000000E-03 0.  1.
         11   -1    0    0    0    0 -0.00000000000E+00 -0.00000000000E+00 -0.45593999997E+02  0.45594000000E+02  0.51100000000E-03 0. -1.
    9900012    2    1    2    0    0 -0.15889388714E+02  0.27259332511E+02 -0.46018024636E+01  0.59301945548E+02  0.50000002772E+02 0.  0.
        -12    1    1    2    0    0  0.15889388714E+02 -0.27259332511E+02  0.46018024636E+01  0.31886054452E+02  0.00000000000E+00 0.  1.
         11    1    3    3    0    0  0.58355986743E+01  0.18805046707E+01 -0.14782352672E+02  0.16003389031E+02  0.51100000000E-03 0.  1.
        -11    1    3    3    0    0 -0.11199522970E+02  0.11164498651E+02  0.18000189415E+02  0.23960011772E+02  0.51100000000E-03 0. -1.
         12    1    3    3    0    0 -0.10525464418E+02  0.14214329189E+02 -0.78196392062E+01  0.19338544744E+02  0.00000000000E+00 0. -1.
</event>
<event>
 7    1  0.5761011E-013  0.5930194E+02  0.7816164E-02  0.1266605E+00
        -11   -1    0    0    0    0  0.00000000000E+00  0.00000000000E+00  0.45593999997E+02  0.45594000000E+02  0.51100000000E-03 0.  1.
         11   -1    0    0    0    0 -0.00000000000E+00 -0.00000000000E+00 -0.45593999997E+02  0.45594000000E+02  0.51100000000E-03 0. -1.
    9900012    2    1    2    0    0  0.26489296005E+02 -0.13930603552E+02 -0.10998922678E+02  0.59301940064E+02  0.49999992772E+02 0.  0.
        -12    1    1    2    0    0 -0.26489296005E+02  0.13930603552E+02  0.10998922678E+02  0.31886059936E+02  0.00000000000E+00 0.  1.
         11    1    3    3    0    0  0.90093358946E+01  0.33923415233E+01 -0.16510135831E+02  0.19111794779E+02  0.51100000000E-03 0. -1.
        -11    1    3    3    0    0  0.46834809168E+00 -0.95183797693E+01  0.16082945361E+02  0.18694385122E+02  0.51100000000E-03 0.  1.
        -12    1    3    3    0    0  0.17011612018E+02 -0.78045653060E+01 -0.10571732208E+02  0.21495760162E+02  0.00000000000E+00 0.  1.
</event>
<event>
 7    1  0.5761011E-013  0.5930194E+02  0.7816164E-02  0.1266605E+00
        -11   -1    0    0    0    0  0.00000000000E+00  0.00000000000E+00  0.45593999997E+02  0.45594000000E+02  0.51100000000E-03 0. -1.
         11   -1    0    0    0    0 -0.00000000000E+00 -0.00000000000E+00 -0.45593999997E+02  0.45594000000E+02  0.51100000000E-03 0.  1.
    9900012    2    1    2    0    0  0.14981015916E+02  0.20297588883E+02  0.19501224363E+02  0.59301941856E+02  0.49999996039E+02 0.  0.
        -12    1    1    2    0    0 -0.14981015916E+02 -0.20297588883E+02 -0.19501224363E+02  0.31886058144E+02  0.00000000000E+00 0.  1.
         11    1    3    3    0    0 -0.87202237742E+01 -0.13993463848E+01  0.16161465907E+02  0.18417205366E+02  0.51100000000E-03 0. -1.
        -11    1    3    3    0    0  0.21081358354E+01 -0.19458476787E+01 -0.67326682018E+01  0.73184275132E+01  0.51100000000E-03 0.  1.
         12    1    3    3    0    0  0.21593103855E+02  0.23642782946E+02  0.10072426658E+02  0.33566308977E+02  0.00000000000E+00 0. -1.
</event>
<event>
 7    1  0.5761011E-013  0.5930196E+02  0.7816164E-02  0.1266605E+00
        -11   -1    0    0    0    0  0.00000000000E+00  0.00000000000E+00  0.45593999997E+02  0.45594000000E+02  0.51100000000E-03 0.  1.
         11   -1    0    0    0    0 -0.00000000000E+00 -0.00000000000E+00 -0.45593999997E+02  0.45594000000E+02  0.51100000000E-03 0. -1.
    9900012    2    1    2    0    0  0.19455700971E+02 -0.19319575266E+02  0.16277265402E+02  0.59301958263E+02  0.50000025961E+02 0.  0.
        -12    1    1    2    0    0 -0.19455700971E+02  0.19319575266E+02 -0.16277265402E+02  0.31886041737E+02  0.00000000000E+00 0.  1.
         11    1    3    3    0    0  0.30330288884E+02  0.33029553258E+01  0.14210695527E+02  0.33656794341E+02  0.51100000000E-03 0. -1.
        -11    1    3    3    0    0 -0.41711833828E+01 -0.90454563151E+01  0.31968034122E+01  0.10461290699E+02  0.51100000000E-03 0.  1.
         12    1    3    3    0    0 -0.67034045305E+01 -0.13577074276E+02 -0.11302335379E+01  0.15183873223E+02  0.00000000000E+00 0. -1.
</event>
<event>
 7    1  0.5761011E-013  0.5930195E+02  0.7816164E-02  0.1266605E+00
        -11   -1    0    0    0    0  0.00000000000E+00  0.00000000000E+00  0.45593999997E+02  0.45594000000E+02  0.51100000000E-03 0.  1.
         11   -1    0    0    0    0 -0.00000000000E+00 -0.00000000000E+00 -0.45593999997E+02  0.45594000000E+02  0.51100000000E-03 0. -1.
    9900012    2    1    2    0    0  0.15771822753E+02  0.25489368301E+02 -0.10874828375E+02  0.59301950049E+02  0.50000010980E+02 0.  0.
        -12    1    1    2    0    0 -0.15771822753E+02 -0.25489368301E+02  0.10874828375E+02  0.31886049951E+02  0.00000000000E+00 0.  1.
         11    1    3    3    0    0  0.22471538366E+02  0.18168731551E+02 -0.17148058779E+02  0.33602511258E+02  0.51100000000E-03 0. -1.
        -11    1    3    3    0    0 -0.73703393018E+01 -0.71373292425E+01  0.10546482562E+01  0.10313857346E+02  0.51100000000E-03 0.  1.
         12    1    3    3    0    0  0.67062368871E+00  0.14457965993E+02  0.52185821473E+01  0.15385581445E+02  0.00000000000E+00 0. -1.
</event>
<event>
 7    1  0.5761011E-013  0.5930194E+02  0.7816164E-02  0.1266605E+00
        -11   -1    0    0    0    0  0.00000000000E+00  0.00000000000E+00  0.45593999997E+02  0.45594000000E+02  0.51100000000E-03 0.  1.
         11   -1    0    0    0    0 -0.00000000000E+00 -0.00000000000E+00 -0.45593999997E+02  0.45594000000E+02  0.51100000000E-03 0. -1.
    9900012    2    1    2    0    0  0.24179714025E+02 -0.46476621120E+01 -0.20259850431E+02  0.59301939206E+02  0.49999991206E+02 0.  0.
        -12    1    1    2    0    0 -0.24179714025E+02  0.46476621120E+01  0.20259850431E+02  0.31886060794E+02  0.00000000000E+00 0.  1.
         11    1    3    3    0    0 -0.42458581116E+01  0.15099368404E+01 -0.15439010529E+02  0.16083229363E+02  0.51100000000E-03 0. -1.
        -11    1    3    3    0    0  0.26890479162E+02  0.58151974402E+01  0.46163292752E+01  0.27896682367E+02  0.51100000000E-03 0.  1.
        -12    1    3    3    0    0  0.15350929750E+01 -0.11972796393E+02 -0.94371691777E+01  0.15322027476E+02  0.00000000000E+00 0.  1.
</event>
<event>
 7    1  0.5761011E-013  0.5930203E+02  0.7816164E-02  0.1266604E+00
        -11   -1    0    0    0    0  0.00000000000E+00  0.00000000000E+00  0.45593999997E+02  0.45594000000E+02  0.51100000000E-03 0.  1.
         11   -1    0    0    0    0 -0.00000000000E+00 -0.00000000000E+00 -0.45593999997E+02  0.45594000000E+02  0.51100000000E-03 0. -1.
    9900012    2    1    2    0    0 -0.15927846667E+02  0.25502388507E+01 -0.27504814515E+02  0.59302033821E+02  0.50000163761E+02 0.  0.
        -12    1    1    2    0    0  0.15927846667E+02 -0.25502388507E+01  0.27504814515E+02  0.31885966179E+02  0.00000000000E+00 0.  1.
         11    1    3    3    0    0  0.16839792886E+01 -0.37441511557E+01  0.82086632839E+01  0.91780502990E+01  0.51100000000E-03 0. -1.
        -11    1    3    3    0    0 -0.68340565743E+01  0.17856250520E+02 -0.22466263999E+02  0.29500559829E+02  0.51100000000E-03 0.  1.
        -12    1    3    3    0    0 -0.10777769381E+02 -0.11561860513E+02 -0.13247213800E+02  0.20623423693E+02  0.00000000000E+00 0.  1.
</event>
<event>
 7    1  0.5761011E-013  0.5930194E+02  0.7816164E-02  0.1266605E+00
        -11   -1    0    0    0    0  0.00000000000E+00  0.00000000000E+00  0.45593999997E+02  0.45594000000E+02  0.51100000000E-03 0.  1.
         11   -1    0    0    0    0 -0.00000000000E+00 -0.00000000000E+00 -0.45593999997E+02  0.45594000000E+02  0.51100000000E-03 0. -1.
    9900012    2    1    2    0    0  0.23651145234E+02 -0.20294480259E+02  0.67437432771E+01  0.59301942337E+02  0.49999996917E+02 0.  0.
        -12    1    1    2    0    0 -0.23651145234E+02  0.20294480259E+02 -0.67437432771E+01  0.31886057663E+02  0.00000000000E+00 0.  1.
         11    1    3    3    0    0  0.33801131263E+02 -0.21503730431E+02  0.78994899382E+00  0.40069326382E+02  0.51100000000E-03 0. -1.
        -11    1    3    3    0    0 -0.11423518608E+02  0.77602537551E+00  0.98544025504E+01  0.15106562900E+02  0.51100000000E-03 0.  1.
        -12    1    3    3    0    0  0.12735325797E+01  0.43322479580E+00 -0.39006082671E+01  0.41260530545E+01  0.00000000000E+00 0.  1.
</event>
<event>
 7    1  0.5761011E-013  0.5930189E+02  0.7816164E-02  0.1266605E+00
        -11   -1    0    0    0    0  0.00000000000E+00  0.00000000000E+00  0.45593999997E+02  0.45594000000E+02  0.51100000000E-03 0. -1.
         11   -1    0    0    0    0 -0.00000000000E+00 -0.00000000000E+00 -0.45593999997E+02  0.45594000000E+02  0.51100000000E-03 0.  1.
    9900012    2    1    2    0    0  0.40651890466E+01 -0.30080737966E+02  0.97646143283E+01  0.59301886227E+02  0.49999894586E+02 0.  0.
        -12    1    1    2    0    0 -0.40651890466E+01  0.30080737966E+02 -0.97646143283E+01  0.31886113773E+02  0.00000000000E+00 0.  1.
         11    1    3    3    0    0 -0.15101928728E+02 -0.16515423800E+02 -0.12996870919E+02  0.25879453792E+02  0.51100000000E-03 0. -1.
        -11    1    3    3    0    0  0.38465461844E+01 -0.11198188405E+01  0.73843768008E+01  0.84011268757E+01  0.51100000000E-03 0.  1.
         12    1    3    3    0    0  0.15320571590E+02 -0.12445495325E+02  0.15377108447E+02  0.25021305560E+02  0.00000000000E+00 0. -1.
</event>
<event>
 7    1  0.5761011E-013  0.5930196E+02  0.7816164E-02  0.1266605E+00
        -11   -1    0    0    0    0  0.00000000000E+00  0.00000000000E+00  0.45593999997E+02  0.45594000000E+02  0.51100000000E-03 0. -1.
         11   -1    0    0    0    0 -0.00000000000E+00 -0.00000000000E+00 -0.45593999997E+02  0.45594000000E+02  0.51100000000E-03 0.  1.
    9900012    2    1    2    0    0  0.34208839648E+01  0.89494544104E+01  0.30412568224E+02  0.59301960934E+02  0.50000030832E+02 0.  0.
        -12    1    1    2    0    0 -0.34208839648E+01 -0.89494544104E+01 -0.30412568224E+02  0.31886039066E+02  0.00000000000E+00 0.  1.
         11    1    3    3    0    0 -0.11769488726E+02  0.16971981589E+01 -0.12139561642E+01  0.11953034606E+02  0.51100000000E-03 0. -1.
        -11    1    3    3    0    0  0.20952568785E+02 -0.51263149738E+01  0.18738949569E+02  0.28573370034E+02  0.51100000000E-03 0.  1.
         12    1    3    3    0    0 -0.57621960934E+01  0.12378571225E+02  0.12887574820E+02  0.18775556294E+02  0.00000000000E+00 0. -1.
</event>
<event>
 7    1  0.5761011E-013  0.5930194E+02  0.7816164E-02  0.1266605E+00
        -11   -1    0    0    0    0  0.00000000000E+00  0.00000000000E+00  0.45593999997E+02  0.45594000000E+02  0.51100000000E-03 0. -1.
         11   -1    0    0    0    0 -0.00000000000E+00 -0.00000000000E+00 -0.45593999997E+02  0.45594000000E+02  0.51100000000E-03 0.  1.
    9900012    2    1    2    0    0 -0.94313712072E+01 -0.14175528390E+02  0.26959681889E+02  0.59301940106E+02  0.49999992849E+02 0.  0.
        -12    1    1    2    0    0  0.94313712072E+01  0.14175528390E+02 -0.26959681889E+02  0.31886059894E+02  0.00000000000E+00 0.  1.
         11    1    3    3    0    0  0.99191124854E+01  0.19274046288E+01  0.74237902466E+01  0.12538594139E+02  0.51100000000E-03 0. -1.
        -11    1    3    3    0    0 -0.22712100792E+02 -0.89717308921E+01 -0.13316685494E+01  0.24456181610E+02  0.51100000000E-03 0.  1.
        -12    1    3    3    0    0  0.33616170992E+01 -0.71312021269E+01  0.20867560192E+02  0.22307164357E+02  0.00000000000E+00 0.  1.
</event>
<event>
 7    1  0.5761011E-013  0.5930195E+02  0.7816164E-02  0.1266605E+00
        -11   -1    0    0    0    0  0.00000000000E+00  0.00000000000E+00  0.45593999997E+02  0.45594000000E+02  0.51100000000E-03 0.  1.
         11   -1    0    0    0    0 -0.00000000000E+00 -0.00000000000E+00 -0.45593999997E+02  0.45594000000E+02  0.51100000000E-03 0. -1.
    9900012    2    1    2    0    0 -0.18262821209E+02  0.80088230702E+01 -0.24880686876E+02  0.59301945605E+02  0.50000002876E+02 0.  0.
        -12    1    1    2    0    0  0.18262821209E+02 -0.80088230702E+01  0.24880686876E+02  0.31886054395E+02  0.00000000000E+00 0.  1.
         11    1    3    3    0    0 -0.16112951019E+02 -0.39350553533E+01 -0.20236970117E+02  0.26165756457E+02  0.51100000000E-03 0. -1.
        -11    1    3    3    0    0  0.12284883683E+02  0.95275301725E+01 -0.88748362343E+01  0.17901254614E+02  0.51100000000E-03 0.  1.
        -12    1    3    3    0    0 -0.14434753873E+02  0.24163482511E+01  0.42311194755E+01  0.15234934534E+02  0.00000000000E+00 0.  1.
</event>
<event>
 7    1  0.5761011E-013  0.5930191E+02  0.7816164E-02  0.1266605E+00
        -11   -1    0    0    0    0  0.00000000000E+00  0.00000000000E+00  0.45593999997E+02  0.45594000000E+02  0.51100000000E-03 0.  1.
         11   -1    0    0    0    0 -0.00000000000E+00 -0.00000000000E+00 -0.45593999997E+02  0.45594000000E+02  0.51100000000E-03 0. -1.
    9900012    2    1    2    0    0 -0.11401349496E+02 -0.10352719866E+02 -0.27920480822E+02  0.59301908545E+02  0.49999935288E+02 0.  0.
        -12    1    1    2    0    0  0.11401349496E+02  0.10352719866E+02  0.27920480822E+02  0.31886091455E+02  0.00000000000E+00 0.  1.
         11    1    3    3    0    0  0.34391466088E+01  0.15572243739E+01 -0.23276301397E+02  0.23580476757E+02  0.51100000000E-03 0. -1.
        -11    1    3    3    0    0  0.46948727386E+01 -0.14715423041E+02  0.15857365402E-02  0.15446213390E+02  0.51100000000E-03 0.  1.
        -12    1    3    3    0    0 -0.19535368843E+02  0.28054788008E+01 -0.46457651619E+01  0.20275218398E+02  0.00000000000E+00 0.  1.
</event>
<event>
 7    1  0.5761011E-013  0.5930216E+02  0.7816164E-02  0.1266604E+00
        -11   -1    0    0    0    0  0.00000000000E+00  0.00000000000E+00  0.45593999997E+02  0.45594000000E+02  0.51100000000E-03 0. -1.
         11   -1    0    0    0    0 -0.00000000000E+00 -0.00000000000E+00 -0.45593999997E+02  0.45594000000E+02  0.51100000000E-03 0.  1.
    9900012    2    1    2    0    0 -0.25675729402E+02  0.11662878742E+02  0.14880886735E+02  0.59302162848E+02  0.50000399074E+02 0.  0.
        -12    1    1    2    0    0  0.25675729402E+02 -0.11662878742E+02 -0.14880886735E+02  0.31885837152E+02  0.00000000000E+00 0.  1.
         11    1    3    3    0    0 -0.12699646960E+02  0.37870116046E+01 -0.63355595546E+01  0.14688832660E+02  0.51100000000E-03 0.  1.
        -11    1    3    3    0    0 -0.15666745598E+02  0.77860211409E+01  0.30382851370E+02  0.35059758991E+02  0.51100000000E-03 0. -1.
        -12    1    3    3    0    0  0.26906631553E+01  0.89845996160E-01 -0.91664050806E+01  0.95535711972E+01  0.00000000000E+00 0.  1.
</event>
<event>
 7    1  0.5761011E-013  0.5930194E+02  0.7816164E-02  0.1266605E+00
        -11   -1    0    0    0    0  0.00000000000E+00  0.00000000000E+00  0.45593999997E+02  0.45594000000E+02  0.51100000000E-03 0. -1.
         11   -1    0    0    0    0 -0.00000000000E+00 -0.00000000000E+00 -0.45593999997E+02  0.45594000000E+02  0.51100000000E-03 0.  1.
    9900012    2    1    2    0    0  0.25402070330E+02  0.37735001071E+01  0.18900168895E+02  0.59301939341E+02  0.49999991452E+02 0.  0.
        -12    1    1    2    0    0 -0.25402070330E+02 -0.37735001071E+01 -0.18900168895E+02  0.31886060659E+02  0.00000000000E+00 0.  1.
         11    1    3    3    0    0  0.43889103307E+01 -0.15659826371E+02  0.11211256023E+02  0.19753099952E+02  0.51100000000E-03 0. -1.
        -11    1    3    3    0    0  0.10081264611E+01  0.89117349825E+01 -0.80131214368E+01  0.12026863880E+02  0.51100000000E-03 0.  1.
         12    1    3    3    0    0  0.20005033538E+02  0.10521591496E+02  0.15702034309E+02  0.27521975509E+02  0.00000000000E+00 0. -1.
</event>
<event>
 7    1  0.5761011E-013  0.5930193E+02  0.7816164E-02  0.1266605E+00
        -11   -1    0    0    0    0  0.00000000000E+00  0.00000000000E+00  0.45593999997E+02  0.45594000000E+02  0.51100000000E-03 0.  1.
         11   -1    0    0    0    0 -0.00000000000E+00 -0.00000000000E+00 -0.45593999997E+02  0.45594000000E+02  0.51100000000E-03 0. -1.
    9900012    2    1    2    0    0  0.11752343810E+02  0.93132945533E+01 -0.28140116181E+02  0.59301934405E+02  0.49999982450E+02 0.  0.
        -12    1    1    2    0    0 -0.11752343810E+02 -0.93132945533E+01  0.28140116181E+02  0.31886065595E+02  0.00000000000E+00 0.  1.
         11    1    3    3    0    0 -0.63315019017E+01  0.76431193523E+01  0.88427960054E+01  0.13292863921E+02  0.51100000000E-03 0. -1.
        -11    1    3    3    0    0  0.84940575920E+01 -0.88198404470E+01 -0.11332756475E+02  0.16684422959E+02  0.51100000000E-03 0.  1.
         12    1    3    3    0    0  0.95897881200E+01  0.10490015648E+02 -0.25650155711E+02  0.29324647525E+02  0.00000000000E+00 0. -1.
</event>
<event>
 7    1  0.5761011E-013  0.5930194E+02  0.7816164E-02  0.1266605E+00
        -11   -1    0    0    0    0  0.00000000000E+00  0.00000000000E+00  0.45593999997E+02  0.45594000000E+02  0.51100000000E-03 0.  1.
         11   -1    0    0    0    0 -0.00000000000E+00 -0.00000000000E+00 -0.45593999997E+02  0.45594000000E+02  0.51100000000E-03 0. -1.
    9900012    2    1    2    0    0 -0.10337985532E+02  0.94556390604E+01 -0.28643282110E+02  0.59301942468E+02  0.49999997155E+02 0.  0.
        -12    1    1    2    0    0  0.10337985532E+02 -0.94556390604E+01  0.28643282110E+02  0.31886057532E+02  0.00000000000E+00 0.  1.
         11    1    3    3    0    0  0.13770256375E+02  0.67005420823E+01 -0.23564653747E+02  0.28103560829E+02  0.51100000000E-03 0. -1.
        -11    1    3    3    0    0 -0.14305397746E+02  0.94998818028E+01 -0.80022580570E+01  0.18945402957E+02  0.51100000000E-03 0.  1.
        -12    1    3    3    0    0 -0.98028441611E+01 -0.67447848247E+01  0.29236296933E+01  0.12252978681E+02  0.00000000000E+00 0.  1.
</event>
<event>
 7    1  0.5761011E-013  0.5930196E+02  0.7816164E-02  0.1266605E+00
        -11   -1    0    0    0    0  0.00000000000E+00  0.00000000000E+00  0.45593999997E+02  0.45594000000E+02  0.51100000000E-03 0. -1.
         11   -1    0    0    0    0 -0.00000000000E+00 -0.00000000000E+00 -0.45593999997E+02  0.45594000000E+02  0.51100000000E-03 0.  1.
    9900012    2    1    2    0    0 -0.29018801960E+02  0.78559212191E+01  0.10626054556E+02  0.59301962290E+02  0.50000033306E+02 0.  0.
        -12    1    1    2    0    0  0.29018801960E+02 -0.78559212191E+01 -0.10626054556E+02  0.31886037710E+02  0.00000000000E+00 0.  1.
         11    1    3    3    0    0  0.48439364625E+01 -0.78130795437E+01  0.16938091605E+02  0.19271919466E+02  0.51100000000E-03 0. -1.
        -11    1    3    3    0    0 -0.11308710670E+02  0.11734200232E+02 -0.58588324101E-01  0.16296681410E+02  0.51100000000E-03 0.  1.
         12    1    3    3    0    0 -0.22554027753E+02  0.39348005305E+01 -0.62534487246E+01  0.23733361415E+02  0.00000000000E+00 0. -1.
</event>
<event>
 7    1  0.5761011E-013  0.5930177E+02  0.7816164E-02  0.1266605E+00
        -11   -1    0    0    0    0  0.00000000000E+00  0.00000000000E+00  0.45593999997E+02  0.45594000000E+02  0.51100000000E-03 0.  1.
         11   -1    0    0    0    0 -0.00000000000E+00 -0.00000000000E+00 -0.45593999997E+02  0.45594000000E+02  0.51100000000E-03 0. -1.
    9900012    2    1    2    0    0  0.15165471707E+02  0.21214355537E+02 -0.18349145591E+02  0.59301771674E+02  0.49999685667E+02 0.  0.
        -12    1    1    2    0    0 -0.15165471707E+02 -0.21214355537E+02  0.18349145591E+02  0.31886228326E+02  0.00000000000E+00 0.  1.
         11    1    3    3    0    0 -0.10133062816E+02  0.50112090122E+01  0.28291901944E+00  0.11308015795E+02  0.51100000000E-03 0. -1.
        -11    1    3    3    0    0  0.26358372742E+02 -0.10981271137E+01 -0.14772046318E+02  0.30235460133E+02  0.51100000000E-03 0.  1.
        -12    1    3    3    0    0 -0.10598382188E+01  0.17301273639E+02 -0.38600182916E+01  0.17758295745E+02  0.00000000000E+00 0.  1.
</event>
<event>
 7    1  0.5761011E-013  0.5930197E+02  0.7816164E-02  0.1266605E+00
        -11   -1    0    0    0    0  0.00000000000E+00  0.00000000000E+00  0.45593999997E+02  0.45594000000E+02  0.51100000000E-03 0.  1.
         11   -1    0    0    0    0 -0.00000000000E+00 -0.00000000000E+00 -0.45593999997E+02  0.45594000000E+02  0.51100000000E-03 0. -1.
    9900012    2    1    2    0    0  0.20617658741E+01  0.10746755333E+02 -0.29949550899E+02  0.59301965004E+02  0.50000038256E+02 0.  0.
        -12    1    1    2    0    0 -0.20617658741E+01 -0.10746755333E+02  0.29949550899E+02  0.31886034996E+02  0.00000000000E+00 0.  1.
         11    1    3    3    0    0  0.92843589448E+01 -0.86977574109E+01 -0.16005534398E+02  0.20445719274E+02  0.51100000000E-03 0. -1.
        -11    1    3    3    0    0 -0.13946907653E+02  0.47638035117E+01  0.34354402855E+01  0.15133152586E+02  0.51100000000E-03 0.  1.
         12    1    3    3    0    0  0.67243145823E+01  0.14680709232E+02 -0.17379456786E+02  0.23723093144E+02  0.00000000000E+00 0. -1.
</event>
<event>
 7    1  0.5761011E-013  0.5930194E+02  0.7816164E-02  0.1266605E+00
        -11   -1    0    0    0    0  0.00000000000E+00  0.00000000000E+00  0.45593999997E+02  0.45594000000E+02  0.51100000000E-03 0. -1.
         11   -1    0    0    0    0 -0.00000000000E+00 -0.00000000000E+00 -0.45593999997E+02  0.45594000000E+02  0.51100000000E-03 0.  1.
    9900012    2    1    2    0    0 -0.99502604051E+01  0.28532281704E+02  0.10179489223E+02  0.59301940629E+02  0.49999993802E+02 0.  0.
        -12    1    1    2    0    0  0.99502604051E+01 -0.28532281704E+02 -0.10179489223E+02  0.31886059371E+02  0.00000000000E+00 0.  1.
         11    1    3    3    0    0 -0.10358469112E+02  0.52037959133E+01 -0.53124863039E+01  0.12751466003E+02  0.51100000000E-03 0. -1.
        -11    1    3    3    0    0  0.66906830517E+01  0.15065195404E+02  0.26633934574E+02  0.31322385340E+02  0.51100000000E-03 0.  1.
        -12    1    3    3    0    0 -0.62824743450E+01  0.82632903858E+01 -0.11141959047E+02  0.15228089286E+02  0.00000000000E+00 0.  1.
</event>
<event>
 7    1  0.5761011E-013  0.5930192E+02  0.7816164E-02  0.1266605E+00
        -11   -1    0    0    0    0  0.00000000000E+00  0.00000000000E+00  0.45593999997E+02  0.45594000000E+02  0.51100000000E-03 0. -1.
         11   -1    0    0    0    0 -0.00000000000E+00 -0.00000000000E+00 -0.45593999997E+02  0.45594000000E+02  0.51100000000E-03 0.  1.
    9900012    2    1    2    0    0 -0.16027963552E+02  0.23509310098E+02  0.14392311071E+02  0.59301923181E+02  0.49999961981E+02 0.  0.
        -12    1    1    2    0    0  0.16027963552E+02 -0.23509310098E+02 -0.14392311071E+02  0.31886076819E+02  0.00000000000E+00 0.  1.
         11    1    3    3    0    0 -0.22875026980E+01  0.54188712616E+01  0.12597073994E+02  0.13902629529E+02  0.51100000000E-03 0. -1.
        -11    1    3    3    0    0 -0.20662001017E+02 -0.14255386541E+01 -0.83617105458E+01  0.22335367693E+02  0.51100000000E-03 0.  1.
        -12    1    3    3    0    0  0.69215401627E+01  0.19515977491E+02  0.10156947623E+02  0.23063925959E+02  0.00000000000E+00 0.  1.
</event>
<event>
 7    1  0.5761011E-013  0.5930193E+02  0.7816164E-02  0.1266605E+00
        -11   -1    0    0    0    0  0.00000000000E+00  0.00000000000E+00  0.45593999997E+02  0.45594000000E+02  0.51100000000E-03 0.  1.
         11   -1    0    0    0    0 -0.00000000000E+00 -0.00000000000E+00 -0.45593999997E+02  0.45594000000E+02  0.51100000000E-03 0. -1.
    9900012    2    1    2    0    0 -0.21375965805E+01 -0.10386861825E+02 -0.30071004449E+02  0.59301928961E+02  0.49999972522E+02 0.  0.
        -12    1    1    2    0    0  0.21375965805E+01  0.10386861825E+02  0.30071004449E+02  0.31886071039E+02  0.00000000000E+00 0.  1.
         11    1    3    3    0    0 -0.75402001755E+01  0.69492564446E+01 -0.25303168545E+01  0.10561689612E+02  0.51100000000E-03 0. -1.
        -11    1    3    3    0    0  0.19066533624E+02 -0.30130338078E+01 -0.19305025919E+02  0.27300093464E+02  0.51100000000E-03 0.  1.
        -12    1    3    3    0    0 -0.13663930029E+02 -0.14323084461E+02 -0.82356616758E+01  0.21440145885E+02  0.00000000000E+00 0.  1.
</event>
<event>
 7    1  0.5761011E-013  0.5930194E+02  0.7816164E-02  0.1266605E+00
        -11   -1    0    0    0    0  0.00000000000E+00  0.00000000000E+00  0.45593999997E+02  0.45594000000E+02  0.51100000000E-03 0.  1.
         11   -1    0    0    0    0 -0.00000000000E+00 -0.00000000000E+00 -0.45593999997E+02  0.45594000000E+02  0.51100000000E-03 0. -1.
    9900012    2    1    2    0    0  0.14819765083E+02 -0.12539238756E+02 -0.25295514803E+02  0.59301936982E+02  0.49999987150E+02 0.  0.
        -12    1    1    2    0    0 -0.14819765083E+02  0.12539238756E+02  0.25295514803E+02  0.31886063018E+02  0.00000000000E+00 0.  1.
         11    1    3    3    0    0 -0.44955297056E+01 -0.13829920718E+01 -0.33231620986E+02  0.33562823005E+02  0.51100000000E-03 0. -1.
        -11    1    3    3    0    0  0.92792114395E+01 -0.51542644443E+00  0.44195139977E+00  0.93040179847E+01  0.51100000000E-03 0.  1.
         12    1    3    3    0    0  0.10036083349E+02 -0.10640820239E+02  0.74941547839E+01  0.16435095992E+02  0.00000000000E+00 0. -1.
</event>
<event>
 7    1  0.5761011E-013  0.5930192E+02  0.7816164E-02  0.1266605E+00
        -11   -1    0    0    0    0  0.00000000000E+00  0.00000000000E+00  0.45593999997E+02  0.45594000000E+02  0.51100000000E-03 0. -1.
         11   -1    0    0    0    0 -0.00000000000E+00 -0.00000000000E+00 -0.45593999997E+02  0.45594000000E+02  0.51100000000E-03 0.  1.
    9900012    2    1    2    0    0 -0.20164594563E+02  0.23015948154E+02  0.89653292227E+01  0.59301923550E+02  0.49999962653E+02 0.  0.
        -12    1    1    2    0    0  0.20164594563E+02 -0.23015948154E+02 -0.89653292227E+01  0.31886076450E+02  0.00000000000E+00 0.  1.
         11    1    3    3    0    0  0.23954035218E+01  0.82356249469E+01 -0.58654275283E+01  0.10390703376E+02  0.51100000000E-03 0. -1.
        -11    1    3    3    0    0 -0.14375447945E+02 -0.28376203288E+01  0.23455694595E+02  0.27656377238E+02  0.51100000000E-03 0.  1.
        -12    1    3    3    0    0 -0.81845501405E+01  0.17617943536E+02 -0.86249378437E+01  0.21254842936E+02  0.00000000000E+00 0.  1.
</event>
<event>
 7    1  0.5761011E-013  0.5930193E+02  0.7816164E-02  0.1266605E+00
        -11   -1    0    0    0    0  0.00000000000E+00  0.00000000000E+00  0.45593999997E+02  0.45594000000E+02  0.51100000000E-03 0.  1.
         11   -1    0    0    0    0 -0.00000000000E+00 -0.00000000000E+00 -0.45593999997E+02  0.45594000000E+02  0.51100000000E-03 0. -1.
    9900012    2    1    2    0    0  0.23140805134E+02 -0.10300145776E+02 -0.19368313632E+02  0.59301930342E+02  0.49999975041E+02 0.  0.
        -12    1    1    2    0    0 -0.23140805134E+02  0.10300145776E+02  0.19368313632E+02  0.31886069658E+02  0.00000000000E+00 0.  1.
         11    1    3    3    0    0 -0.47172071260E+01  0.79684849478E+01 -0.14629007209E+02  0.17313481672E+02  0.51100000000E-03 0. -1.
        -11    1    3    3    0    0  0.25727191384E+01 -0.14917897300E+02  0.27920311751E+01  0.15393439576E+02  0.51100000000E-03 0.  1.
         12    1    3    3    0    0  0.25285293122E+02 -0.33507334235E+01 -0.75313375984E+01  0.26595009095E+02  0.00000000000E+00 0. -1.
</event>
<event>
 7    1  0.5761011E-013  0.5930196E+02  0.7816164E-02  0.1266605E+00
        -11   -1    0    0    0    0  0.00000000000E+00  0.00000000000E+00  0.45593999997E+02  0.45594000000E+02  0.51100000000E-03 0. -1.
         11   -1    0    0    0    0 -0.00000000000E+00 -0.00000000000E+00 -0.45593999997E+02  0.45594000000E+02  0.51100000000E-03 0.  1.
    9900012    2    1    2    0    0  0.25240215809E+02 -0.11075247816E+02  0.16030897634E+02  0.59301964072E+02  0.50000036555E+02 0.  0.
        -12    1    1    2    0    0 -0.25240215809E+02  0.11075247816E+02 -0.16030897634E+02  0.31886035928E+02  0.00000000000E+00 0.  1.
         11    1    3    3    0    0  0.27271280208E+02  0.46307536687E+01 -0.77614209455E+01  0.28729884425E+02  0.51100000000E-03 0. -1.
        -11    1    3    3    0    0 -0.45966509137E+01 -0.16113480753E+01  0.58872050141E+01  0.76409963605E+01  0.51100000000E-03 0.  1.
         12    1    3    3    0    0  0.25655865147E+01 -0.14094653409E+02  0.17905113566E+02  0.22931083286E+02  0.00000000000E+00 0. -1.
</event>
<event>
 7    1  0.5761011E-013  0.5930198E+02  0.7816164E-02  0.1266605E+00
        -11   -1    0    0    0    0  0.00000000000E+00  0.00000000000E+00  0.45593999997E+02  0.45594000000E+02  0.51100000000E-03 0. -1.
         11   -1    0    0    0    0 -0.00000000000E+00 -0.00000000000E+00 -0.45593999997E+02  0.45594000000E+02  0.51100000000E-03 0.  1.
    9900012    2    1    2    0    0 -0.25909869358E+01 -0.27828926122E+02  0.15347841639E+02  0.59301975077E+02  0.50000056627E+02 0.  0.
        -12    1    1    2    0    0  0.25909869358E+01  0.27828926122E+02 -0.15347841639E+02  0.31886024923E+02  0.00000000000E+00 0.  1.
         11    1    3    3    0    0  0.11637288845E+02 -0.11951651094E+02  0.14015836995E+02  0.21787889812E+02  0.51100000000E-03 0. -1.
        -11    1    3    3    0    0 -0.90744561110E+01 -0.61779882395E+01 -0.14535990492E+02  0.18215606283E+02  0.51100000000E-03 0.  1.
        -12    1    3    3    0    0 -0.51538196699E+01 -0.96992867886E+01  0.15867995136E+02  0.19298478982E+02  0.00000000000E+00 0.  1.
</event>
<event>
 7    1  0.5761011E-013  0.5930195E+02  0.7816164E-02  0.1266605E+00
        -11   -1    0    0    0    0  0.00000000000E+00  0.00000000000E+00  0.45593999997E+02  0.45594000000E+02  0.51100000000E-03 0.  1.
         11   -1    0    0    0    0 -0.00000000000E+00 -0.00000000000E+00 -0.45593999997E+02  0.45594000000E+02  0.51100000000E-03 0. -1.
    9900012    2    1    2    0    0  0.80192638286E+01 -0.27450384100E+02 -0.14102768805E+02  0.59301948699E+02  0.50000008519E+02 0.  0.
        -12    1    1    2    0    0 -0.80192638286E+01  0.27450384100E+02  0.14102768805E+02  0.31886051301E+02  0.00000000000E+00 0.  1.
         11    1    3    3    0    0  0.17154881016E+02  0.29016790533E+01 -0.46761547759E+01  0.18015995886E+02  0.51100000000E-03 0. -1.
        -11    1    3    3    0    0 -0.14015972248E+02 -0.28709914851E+02 -0.16909565635E+01  0.31993218394E+02  0.51100000000E-03 0.  1.
         12    1    3    3    0    0  0.48803550602E+01 -0.16421483024E+01 -0.77356574659E+01  0.92927344195E+01  0.00000000000E+00 0. -1.
</event>
<event>
 7    1  0.5761011E-013  0.5930197E+02  0.7816164E-02  0.1266605E+00
        -11   -1    0    0    0    0  0.00000000000E+00  0.00000000000E+00  0.45593999997E+02  0.45594000000E+02  0.51100000000E-03 0. -1.
         11   -1    0    0    0    0 -0.00000000000E+00 -0.00000000000E+00 -0.45593999997E+02  0.45594000000E+02  0.51100000000E-03 0.  1.
    9900012    2    1    2    0    0 -0.29086774968E+02  0.11096189733E+02 -0.68958916640E+01  0.59301965024E+02  0.50000038292E+02 0.  0.
        -12    1    1    2    0    0  0.29086774968E+02 -0.11096189733E+02  0.68958916640E+01  0.31886034976E+02  0.00000000000E+00 0.  1.
         11    1    3    3    0    0 -0.19639503853E+01 -0.22883218229E+01 -0.20376637532E+02  0.20598564883E+02  0.51100000000E-03 0. -1.
        -11    1    3    3    0    0  0.12951250983E+01  0.21612979356E+01  0.70409830062E+01  0.74782350686E+01  0.51100000000E-03 0.  1.
         12    1    3    3    0    0 -0.28417949681E+02  0.11223213621E+02  0.64397628619E+01  0.31225165072E+02  0.00000000000E+00 0. -1.
</event>
<event>
 7    1  0.5761011E-013  0.5930194E+02  0.7816164E-02  0.1266605E+00
        -11   -1    0    0    0    0  0.00000000000E+00  0.00000000000E+00  0.45593999997E+02  0.45594000000E+02  0.51100000000E-03 0.  1.
         11   -1    0    0    0    0 -0.00000000000E+00 -0.00000000000E+00 -0.45593999997E+02  0.45594000000E+02  0.51100000000E-03 0. -1.
    9900012    2    1    2    0    0 -0.27866110183E+02 -0.39917231834E+01 -0.14975538099E+02  0.59301942043E+02  0.49999996380E+02 0.  0.
        -12    1    1    2    0    0  0.27866110183E+02  0.39917231834E+01  0.14975538099E+02  0.31886057957E+02  0.00000000000E+00 0.  1.
         11    1    3    3    0    0 -0.25451473242E+02  0.99648828548E+01 -0.19544633067E+02  0.33601622914E+02  0.51100000000E-03 0. -1.
        -11    1    3    3    0    0 -0.26975921330E+01  0.19493386707E+01  0.86572560732E+01  0.92749667141E+01  0.51100000000E-03 0.  1.
         12    1    3    3    0    0  0.28295519211E+00 -0.15905944709E+02 -0.40881611059E+01  0.16425352415E+02  0.00000000000E+00 0. -1.
</event>
<event>
 7    1  0.5761011E-013  0.5930196E+02  0.7816164E-02  0.1266605E+00
        -11   -1    0    0    0    0  0.00000000000E+00  0.00000000000E+00  0.45593999997E+02  0.45594000000E+02  0.51100000000E-03 0.  1.
         11   -1    0    0    0    0 -0.00000000000E+00 -0.00000000000E+00 -0.45593999997E+02  0.45594000000E+02  0.51100000000E-03 0. -1.
    9900012    2    1    2    0    0  0.68536904939E+01 -0.27202839270E+02 -0.15157580626E+02  0.59301956216E+02  0.50000022229E+02 0.  0.
        -12    1    1    2    0    0 -0.68536904939E+01  0.27202839270E+02  0.15157580626E+02  0.31886043784E+02  0.00000000000E+00 0.  1.
         11    1    3    3    0    0  0.15711771239E+02 -0.89447459508E+01 -0.15171522026E+02  0.23601765113E+02  0.51100000000E-03 0. -1.
        -11    1    3    3    0    0 -0.13183458402E+02  0.32101317716E+01  0.19805427745E+01  0.13712442210E+02  0.51100000000E-03 0.  1.
         12    1    3    3    0    0  0.43253776562E+01 -0.21468225091E+02 -0.19666013743E+01  0.21987748894E+02  0.00000000000E+00 0. -1.
</event>
<event>
 7    1  0.5761011E-013  0.5930196E+02  0.7816164E-02  0.1266605E+00
        -11   -1    0    0    0    0  0.00000000000E+00  0.00000000000E+00  0.45593999997E+02  0.45594000000E+02  0.51100000000E-03 0. -1.
         11   -1    0    0    0    0 -0.00000000000E+00 -0.00000000000E+00 -0.45593999997E+02  0.45594000000E+02  0.51100000000E-03 0.  1.
    9900012    2    1    2    0    0 -0.12050927661E+02  0.27748982624E+02  0.10074160972E+02  0.59301958956E+02  0.50000027226E+02 0.  0.
        -12    1    1    2    0    0  0.12050927661E+02 -0.27748982624E+02 -0.10074160972E+02  0.31886041044E+02  0.00000000000E+00 0.  1.
         11    1    3    3    0    0 -0.53307100491E+00  0.27289756001E+02  0.21197542103E+02  0.34559379895E+02  0.51100000000E-03 0. -1.
        -11    1    3    3    0    0 -0.14959327276E+02  0.47004122170E+01 -0.11217894334E+02  0.19279950755E+02  0.51100000000E-03 0.  1.
         12    1    3    3    0    0  0.34414706198E+01 -0.42411855936E+01  0.94513203610E-01  0.54626283062E+01  0.00000000000E+00 0. -1.
</event>
<event>
 7    1  0.5761011E-013  0.5930195E+02  0.7816164E-02  0.1266605E+00
        -11   -1    0    0    0    0  0.00000000000E+00  0.00000000000E+00  0.45593999997E+02  0.45594000000E+02  0.51100000000E-03 0. -1.
         11   -1    0    0    0    0 -0.00000000000E+00 -0.00000000000E+00 -0.45593999997E+02  0.45594000000E+02  0.51100000000E-03 0.  1.
    9900012    2    1    2    0    0 -0.10450483378E+02 -0.23556220037E+02  0.18777968350E+02  0.59301949749E+02  0.50000010434E+02 0.  0.
        -12    1    1    2    0    0  0.10450483378E+02  0.23556220037E+02 -0.18777968350E+02  0.31886050251E+02  0.00000000000E+00 0.  1.
         11    1    3    3    0    0  0.98889036077E+01 -0.36384567634E+01  0.23269811680E+02  0.25544332406E+02  0.51100000000E-03 0. -1.
        -11    1    3    3    0    0 -0.36309324530E+01 -0.13757179128E+00 -0.68538851588E+01  0.77574698521E+01  0.51100000000E-03 0.  1.
         12    1    3    3    0    0 -0.16708454533E+02 -0.19780191482E+02  0.23620418285E+01  0.26000147491E+02  0.00000000000E+00 0. -1.
</event>
<event>
 7    1  0.5761011E-013  0.5930194E+02  0.7816164E-02  0.1266605E+00
        -11   -1    0    0    0    0  0.00000000000E+00  0.00000000000E+00  0.45593999997E+02  0.45594000000E+02  0.51100000000E-03 0.  1.
         11   -1    0    0    0    0 -0.00000000000E+00 -0.00000000000E+00 -0.45593999997E+02  0.45594000000E+02  0.51100000000E-03 0. -1.
    9900012    2    1    2    0    0 -0.72584947687E+01  0.14451883963E+02 -0.27480508755E+02  0.59301936307E+02  0.49999985919E+02 0.  0.
        -12    1    1    2    0    0  0.72584947687E+01 -0.14451883963E+02  0.27480508755E+02  0.31886063693E+02  0.00000000000E+00 0.  1.
         11    1    3    3    0    0 -0.11385299463E+02  0.12981944482E+02 -0.10377340912E+02  0.20145598305E+02  0.51100000000E-03 0. -1.
        -11    1    3    3    0    0  0.49076898365E+01 -0.15957233745E+02 -0.13193837788E+02  0.21279005714E+02  0.51100000000E-03 0.  1.
        -12    1    3    3    0    0 -0.78088514202E+00  0.17427173226E+02 -0.39093300551E+01  0.17877332288E+02  0.00000000000E+00 0.  1.
</event>
<event>
 7    1  0.5761011E-013  0.5930196E+02  0.7816164E-02  0.1266605E+00
        -11   -1    0    0    0    0  0.00000000000E+00  0.00000000000E+00  0.45593999997E+02  0.45594000000E+02  0.51100000000E-03 0. -1.
         11   -1    0    0    0    0 -0.00000000000E+00 -0.00000000000E+00 -0.45593999997E+02  0.45594000000E+02  0.51100000000E-03 0.  1.
    9900012    2    1    2    0    0  0.20876465900E+02  0.18027985306E+02  0.15996379522E+02  0.59301964804E+02  0.50000037892E+02 0.  0.
        -12    1    1    2    0    0 -0.20876465900E+02 -0.18027985306E+02 -0.15996379522E+02  0.31886035196E+02  0.00000000000E+00 0.  1.
         11    1    3    3    0    0  0.17592933040E+02  0.70208925950E+01  0.36124805178E+01  0.19283522540E+02  0.51100000000E-03 0. -1.
        -11    1    3    3    0    0 -0.94635671897E+01 -0.97996019178E+01  0.52008100082E+01  0.14582171536E+02  0.51100000000E-03 0.  1.
        -12    1    3    3    0    0  0.12747100049E+02  0.20806694629E+02  0.71830889960E+01  0.25436270729E+02  0.00000000000E+00 0.  1.
</event>
<event>
 7    1  0.5761011E-013  0.5930206E+02  0.7816164E-02  0.1266604E+00
        -11   -1    0    0    0    0  0.00000000000E+00  0.00000000000E+00  0.45593999997E+02  0.45594000000E+02  0.51100000000E-03 0. -1.
         11   -1    0    0    0    0 -0.00000000000E+00 -0.00000000000E+00 -0.45593999997E+02  0.45594000000E+02  0.51100000000E-03 0.  1.
    9900012    2    1    2    0    0  0.12046498296E+02  0.25773092433E+02  0.14399392416E+02  0.59302063967E+02  0.50000218739E+02 0.  0.
        -12    1    1    2    0    0 -0.12046498296E+02 -0.25773092433E+02 -0.14399392416E+02  0.31885936033E+02  0.00000000000E+00 0.  1.
         11    1    3    3    0    0  0.73647994863E+01  0.27243911636E+02  0.14817331274E+02  0.31875136063E+02  0.51100000000E-03 0. -1.
        -11    1    3    3    0    0 -0.12873903235E+01 -0.25886214062E+00 -0.13201410457E+02  0.13266560284E+02  0.51100000000E-03 0.  1.
         12    1    3    3    0    0  0.59690891336E+01 -0.12119570617E+01  0.12783471599E+02  0.14160367619E+02  0.00000000000E+00 0. -1.
</event>
<event>
 7    1  0.5761011E-013  0.5930191E+02  0.7816164E-02  0.1266605E+00
        -11   -1    0    0    0    0  0.00000000000E+00  0.00000000000E+00  0.45593999997E+02  0.45594000000E+02  0.51100000000E-03 0.  1.
         11   -1    0    0    0    0 -0.00000000000E+00 -0.00000000000E+00 -0.45593999997E+02  0.45594000000E+02  0.51100000000E-03 0. -1.
    9900012    2    1    2    0    0  0.63444013057E+01 -0.14302731746E+02 -0.27783140673E+02  0.59301914179E+02  0.49999945562E+02 0.  0.
        -12    1    1    2    0    0 -0.63444013057E+01  0.14302731746E+02  0.27783140673E+02  0.31886085821E+02  0.00000000000E+00 0.  1.
         11    1    3    3    0    0 -0.42769592081E+01 -0.16112372421E+02 -0.19455712631E+02  0.25620805596E+02  0.51100000000E-03 0. -1.
        -11    1    3    3    0    0 -0.12661078772E+01 -0.10829123130E+01  0.10826168452E+02  0.10953613644E+02  0.51100000000E-03 0.  1.
        -12    1    3    3    0    0  0.11887468391E+02  0.28925529885E+01 -0.19153596495E+02  0.22727494939E+02  0.00000000000E+00 0.  1.
</event>
<event>
 7    1  0.5761011E-013  0.5930194E+02  0.7816164E-02  0.1266605E+00
        -11   -1    0    0    0    0  0.00000000000E+00  0.00000000000E+00  0.45593999997E+02  0.45594000000E+02  0.51100000000E-03 0.  1.
         11   -1    0    0    0    0 -0.00000000000E+00 -0.00000000000E+00 -0.45593999997E+02  0.45594000000E+02  0.51100000000E-03 0. -1.
    9900012    2    1    2    0    0  0.27603394856E+02  0.13624602193E+02 -0.83152798311E+01  0.59301936098E+02  0.49999985538E+02 0.  0.
        -12    1    1    2    0    0 -0.27603394856E+02 -0.13624602193E+02  0.83152798311E+01  0.31886063902E+02  0.00000000000E+00 0.  1.
         11    1    3    3    0    0  0.40872053907E+02  0.86138800295E+01 -0.10558992451E+02  0.43083825754E+02  0.51100000000E-03 0. -1.
        -11    1    3    3    0    0 -0.29069213556E+01  0.35544139662E+01 -0.18928090133E+01  0.49665658793E+01  0.51100000000E-03 0.  1.
         12    1    3    3    0    0 -0.10361737695E+02  0.14563081970E+01  0.41365216335E+01  0.11251544465E+02  0.00000000000E+00 0. -1.
</event>
<event>
 7    1  0.5761011E-013  0.5930197E+02  0.7816164E-02  0.1266605E+00
        -11   -1    0    0    0    0  0.00000000000E+00  0.00000000000E+00  0.45593999997E+02  0.45594000000E+02  0.51100000000E-03 0. -1.
         11   -1    0    0    0    0 -0.00000000000E+00 -0.00000000000E+00 -0.45593999997E+02  0.45594000000E+02  0.51100000000E-03 0.  1.
    9900012    2    1    2    0    0  0.16687387893E+02 -0.19516708002E+02  0.18903648447E+02  0.59301972801E+02  0.50000052475E+02 0.  0.
        -12    1    1    2    0    0 -0.16687387893E+02  0.19516708002E+02 -0.18903648447E+02  0.31886027199E+02  0.00000000000E+00 0.  1.
         11    1    3    3    0    0  0.23254529512E+02  0.41655021717E+01  0.16712957770E+02  0.28938685333E+02  0.51100000000E-03 0. -1.
        -11    1    3    3    0    0 -0.57132741122E+01 -0.48330171620E+01 -0.61954302092E+01  0.97150868091E+01  0.51100000000E-03 0.  1.
         12    1    3    3    0    0 -0.85386750622E+00 -0.18849193011E+02  0.83861208869E+01  0.20648200658E+02  0.00000000000E+00 0. -1.
</event>
<event>
 7    1  0.5761011E-013  0.5930195E+02  0.7816164E-02  0.1266605E+00
        -11   -1    0    0    0    0  0.00000000000E+00  0.00000000000E+00  0.45593999997E+02  0.45594000000E+02  0.51100000000E-03 0. -1.
         11   -1    0    0    0    0 -0.00000000000E+00 -0.00000000000E+00 -0.45593999997E+02  0.45594000000E+02  0.51100000000E-03 0.  1.
    9900012    2    1    2    0    0  0.14906800618E+02 -0.26311858620E+01  0.28063930941E+02  0.59301951897E+02  0.50000014352E+02 0.  0.
        -12    1    1    2    0    0 -0.14906800618E+02  0.26311858620E+01 -0.28063930941E+02  0.31886048103E+02  0.00000000000E+00 0.  1.
         11    1    3    3    0    0 -0.14893200931E+02  0.55779507768E+01  0.70758495402E+01  0.17406568180E+02  0.51100000000E-03 0. -1.
        -11    1    3    3    0    0  0.15953841523E+02 -0.13134438976E+02  0.76084899938E+01  0.22021073243E+02  0.51100000000E-03 0.  1.
         12    1    3    3    0    0  0.13846160026E+02  0.49253023370E+01  0.13379591407E+02  0.19874310474E+02  0.00000000000E+00 0. -1.
</event>
<event>
 7    1  0.5761011E-013  0.5930191E+02  0.7816164E-02  0.1266605E+00
        -11   -1    0    0    0    0  0.00000000000E+00  0.00000000000E+00  0.45593999997E+02  0.45594000000E+02  0.51100000000E-03 0.  1.
         11   -1    0    0    0    0 -0.00000000000E+00 -0.00000000000E+00 -0.45593999997E+02  0.45594000000E+02  0.51100000000E-03 0. -1.
    9900012    2    1    2    0    0  0.21649449259E+02 -0.90970928827E+01 -0.21570052754E+02  0.59301906982E+02  0.49999932438E+02 0.  0.
        -12    1    1    2    0    0 -0.21649449259E+02  0.90970928827E+01  0.21570052754E+02  0.31886093018E+02  0.00000000000E+00 0.  1.
         11    1    3    3    0    0 -0.11225681009E+02 -0.17997692573E+01 -0.14397544079E+02  0.18345145387E+02  0.51100000000E-03 0. -1.
        -11    1    3    3    0    0  0.25947703638E+02 -0.12876820870E+01  0.42322326700E+01  0.26322105594E+02  0.51100000000E-03 0.  1.
        -12    1    3    3    0    0  0.69274266297E+01 -0.60096415384E+01 -0.11404741346E+02  0.14634656002E+02  0.00000000000E+00 0.  1.
</event>
<event>
 7    1  0.5761011E-013  0.5930195E+02  0.7816164E-02  0.1266605E+00
        -11   -1    0    0    0    0  0.00000000000E+00  0.00000000000E+00  0.45593999997E+02  0.45594000000E+02  0.51100000000E-03 0.  1.
         11   -1    0    0    0    0 -0.00000000000E+00 -0.00000000000E+00 -0.45593999997E+02  0.45594000000E+02  0.51100000000E-03 0. -1.
    9900012    2    1    2    0    0  0.12989112671E+02  0.64562701621E+01 -0.28395770232E+02  0.59301949140E+02  0.50000009324E+02 0.  0.
        -12    1    1    2    0    0 -0.12989112671E+02 -0.64562701621E+01  0.28395770232E+02  0.31886050860E+02  0.00000000000E+00 0.  1.
         11    1    3    3    0    0  0.15135185437E+02 -0.18728467282E+02 -0.15084715446E+02  0.28414397149E+02  0.51100000000E-03 0. -1.
        -11    1    3    3    0    0 -0.33915875025E+01  0.47240594842E+01  0.98216621488E+00  0.58978177771E+01  0.51100000000E-03 0.  1.
         12    1    3    3    0    0  0.12455147358E+01  0.20460677960E+02 -0.14293221000E+02  0.24989734214E+02  0.00000000000E+00 0. -1.
</event>
<event>
 7    1  0.5761011E-013  0.5930193E+02  0.7816164E-02  0.1266605E+00
        -11   -1    0    0    0    0  0.00000000000E+00  0.00000000000E+00  0.45593999997E+02  0.45594000000E+02  0.51100000000E-03 0.  1.
         11   -1    0    0    0    0 -0.00000000000E+00 -0.00000000000E+00 -0.45593999997E+02  0.45594000000E+02  0.51100000000E-03 0. -1.
    9900012    2    1    2    0    0 -0.26576686830E+02 -0.55867103293E+01 -0.16708975475E+02  0.59301929741E+02  0.49999973944E+02 0.  0.
        -12    1    1    2    0    0  0.26576686830E+02  0.55867103293E+01  0.16708975475E+02  0.31886070259E+02  0.00000000000E+00 0.  1.
         11    1    3    3    0    0 -0.40064774480E+01 -0.10871201449E+01  0.99392276211E+00  0.42686736194E+01  0.51100000000E-03 0. -1.
        -11    1    3    3    0    0 -0.14012495744E+02  0.20953253466E+02 -0.97564249975E+01  0.27029182318E+02  0.51100000000E-03 0.  1.
        -12    1    3    3    0    0 -0.85577136382E+01 -0.25452843651E+02 -0.79464732393E+01  0.28004073803E+02  0.00000000000E+00 0.  1.
</event>
<event>
 7    1  0.5761011E-013  0.5930195E+02  0.7816164E-02  0.1266605E+00
        -11   -1    0    0    0    0  0.00000000000E+00  0.00000000000E+00  0.45593999997E+02  0.45594000000E+02  0.51100000000E-03 0.  1.
         11   -1    0    0    0    0 -0.00000000000E+00 -0.00000000000E+00 -0.45593999997E+02  0.45594000000E+02  0.51100000000E-03 0. -1.
    9900012    2    1    2    0    0  0.11714550137E+02 -0.20722732486E+02 -0.21214568039E+02  0.59301949388E+02  0.50000009775E+02 0.  0.
        -12    1    1    2    0    0 -0.11714550137E+02  0.20722732486E+02  0.21214568039E+02  0.31886050612E+02  0.00000000000E+00 0.  1.
         11    1    3    3    0    0  0.39326304356E+01 -0.12524942618E+01 -0.86986135973E+01  0.96280944529E+01  0.51100000000E-03 0. -1.
        -11    1    3    3    0    0 -0.90488423141E+01 -0.25666185316E+01  0.12146743381E+02  0.15362696799E+02  0.51100000000E-03 0.  1.
        -12    1    3    3    0    0  0.16830762015E+02 -0.16903619692E+02 -0.24662697823E+02  0.34311158136E+02  0.00000000000E+00 0.  1.
</event>
<event>
 7    1  0.5761011E-013  0.5930192E+02  0.7816164E-02  0.1266605E+00
        -11   -1    0    0    0    0  0.00000000000E+00  0.00000000000E+00  0.45593999997E+02  0.45594000000E+02  0.51100000000E-03 0.  1.
         11   -1    0    0    0    0 -0.00000000000E+00 -0.00000000000E+00 -0.45593999997E+02  0.45594000000E+02  0.51100000000E-03 0. -1.
    9900012    2    1    2    0    0 -0.12996000550E+02 -0.95719294483E+01 -0.27499171974E+02  0.59301916470E+02  0.49999949740E+02 0.  0.
        -12    1    1    2    0    0  0.12996000550E+02  0.95719294483E+01  0.27499171974E+02  0.31886083530E+02  0.00000000000E+00 0.  1.
         11    1    3    3    0    0  0.16576864997E+02 -0.38633619319E+01 -0.18440125416E+02  0.25094944594E+02  0.51100000000E-03 0. -1.
        -11    1    3    3    0    0 -0.22904281008E+01 -0.50615874629E+01 -0.27409449678E+01  0.61950389916E+01  0.51100000000E-03 0.  1.
         12    1    3    3    0    0 -0.27282437446E+02 -0.64698005345E+00 -0.63181015901E+01  0.28011932884E+02  0.00000000000E+00 0. -1.
</event>
<event>
 7    1  0.5761011E-013  0.5930199E+02  0.7816164E-02  0.1266605E+00
        -11   -1    0    0    0    0  0.00000000000E+00  0.00000000000E+00  0.45593999997E+02  0.45594000000E+02  0.51100000000E-03 0. -1.
         11   -1    0    0    0    0 -0.00000000000E+00 -0.00000000000E+00 -0.45593999997E+02  0.45594000000E+02  0.51100000000E-03 0.  1.
    9900012    2    1    2    0    0  0.25262398301E+02 -0.82606001034E+01  0.17615084447E+02  0.59301992378E+02  0.50000088179E+02 0.  0.
        -12    1    1    2    0    0 -0.25262398301E+02  0.82606001034E+01 -0.17615084447E+02  0.31886007622E+02  0.00000000000E+00 0.  1.
         11    1    3    3    0    0  0.10331898385E+02 -0.19769991892E+02 -0.10665122480E+02  0.24725402755E+02  0.51100000000E-03 0. -1.
        -11    1    3    3    0    0  0.11303152701E+00  0.20212110148E+01  0.14438694090E+01  0.24865295542E+01  0.51100000000E-03 0.  1.
         12    1    3    3    0    0  0.14817468389E+02  0.94881807733E+01  0.26836337518E+02  0.32090060069E+02  0.00000000000E+00 0. -1.
</event>
<event>
 7    1  0.5761011E-013  0.5930194E+02  0.7816164E-02  0.1266605E+00
        -11   -1    0    0    0    0  0.00000000000E+00  0.00000000000E+00  0.45593999997E+02  0.45594000000E+02  0.51100000000E-03 0. -1.
         11   -1    0    0    0    0 -0.00000000000E+00 -0.00000000000E+00 -0.45593999997E+02  0.45594000000E+02  0.51100000000E-03 0.  1.
    9900012    2    1    2    0    0 -0.13800595740E+02 -0.23146401444E+01  0.28651473660E+02  0.59301938081E+02  0.49999989155E+02 0.  0.
        -12    1    1    2    0    0  0.13800595740E+02  0.23146401444E+01 -0.28651473660E+02  0.31886061919E+02  0.00000000000E+00 0.  1.
         11    1    3    3    0    0 -0.93651846896E+01 -0.71167866023E+01  0.21436978967E+02  0.24451981583E+02  0.51100000000E-03 0. -1.
        -11    1    3    3    0    0  0.33189784479E+01  0.64155672315E+01 -0.12034105032E+02  0.14035483783E+02  0.51100000000E-03 0.  1.
        -12    1    3    3    0    0 -0.77543894987E+01 -0.16134207737E+01  0.19248599724E+02  0.20814472716E+02  0.00000000000E+00 0.  1.
</event>
<event>
 7    1  0.5761011E-013  0.5930192E+02  0.7816164E-02  0.1266605E+00
        -11   -1    0    0    0    0  0.00000000000E+00  0.00000000000E+00  0.45593999997E+02  0.45594000000E+02  0.51100000000E-03 0.  1.
         11   -1    0    0    0    0 -0.00000000000E+00 -0.00000000000E+00 -0.45593999997E+02  0.45594000000E+02  0.51100000000E-03 0. -1.
    9900012    2    1    2    0    0  0.18876773237E+02 -0.13401366001E+02 -0.21926992833E+02  0.59301918503E+02  0.49999953449E+02 0.  0.
        -12    1    1    2    0    0 -0.18876773237E+02  0.13401366001E+02  0.21926992833E+02  0.31886081497E+02  0.00000000000E+00 0.  1.
         11    1    3    3    0    0  0.19645598389E+02 -0.14160254565E+01 -0.23420413707E+02  0.30601804565E+02  0.51100000000E-03 0.  1.
        -11    1    3    3    0    0  0.45150836430E+01 -0.16767451782E+02  0.79367757375E+01  0.19092559518E+02  0.51100000000E-03 0. -1.
        -12    1    3    3    0    0 -0.52839087951E+01  0.47821112374E+01 -0.64433548635E+01  0.96075544203E+01  0.00000000000E+00 0.  1.
</event>
<event>
 7    1  0.5761011E-013  0.5930194E+02  0.7816164E-02  0.1266605E+00
        -11   -1    0    0    0    0  0.00000000000E+00  0.00000000000E+00  0.45593999997E+02  0.45594000000E+02  0.51100000000E-03 0. -1.
         11   -1    0    0    0    0 -0.00000000000E+00 -0.00000000000E+00 -0.45593999997E+02  0.45594000000E+02  0.51100000000E-03 0.  1.
    9900012    2    1    2    0    0  0.29771218283E+01 -0.27829007846E+02  0.15277559495E+02  0.59301941037E+02  0.49999994545E+02 0.  0.
        -12    1    1    2    0    0 -0.29771218283E+01  0.27829007846E+02 -0.15277559495E+02  0.31886058963E+02  0.00000000000E+00 0.  1.
         11    1    3    3    0    0  0.12085987579E+02 -0.24562183452E+02  0.14435023539E+02  0.30947404682E+02  0.51100000000E-03 0. -1.
        -11    1    3    3    0    0 -0.28503725274E+01  0.37830544945E+01  0.12497072049E+02  0.13364615030E+02  0.51100000000E-03 0.  1.
        -12    1    3    3    0    0 -0.62584932238E+01 -0.70498788889E+01 -0.11654536093E+02  0.14989921325E+02  0.00000000000E+00 0.  1.
</event>
<event>
 7    1  0.5761011E-013  0.5930192E+02  0.7816164E-02  0.1266605E+00
        -11   -1    0    0    0    0  0.00000000000E+00  0.00000000000E+00  0.45593999997E+02  0.45594000000E+02  0.51100000000E-03 0.  1.
         11   -1    0    0    0    0 -0.00000000000E+00 -0.00000000000E+00 -0.45593999997E+02  0.45594000000E+02  0.51100000000E-03 0. -1.
    9900012    2    1    2    0    0  0.98730201745E+01  0.96852059408E+00 -0.30303593199E+02  0.59301916511E+02  0.49999949816E+02 0.  0.
        -12    1    1    2    0    0 -0.98730201745E+01 -0.96852059408E+00  0.30303593199E+02  0.31886083489E+02  0.00000000000E+00 0.  1.
         11    1    3    3    0    0  0.62228806499E+01  0.83662508697E+01 -0.18189734852E+01  0.10584283726E+02  0.51100000000E-03 0. -1.
        -11    1    3    3    0    0 -0.14274304517E+01 -0.53708188295E+00 -0.36782226245E+02  0.36813831401E+02  0.51100000000E-03 0.  1.
        -12    1    3    3    0    0  0.50775699763E+01 -0.68606483927E+01  0.82976065311E+01  0.11903801383E+02  0.00000000000E+00 0.  1.
</event>
<event>
 7    1  0.5761011E-013  0.5930194E+02  0.7816164E-02  0.1266605E+00
        -11   -1    0    0    0    0  0.00000000000E+00  0.00000000000E+00  0.45593999997E+02  0.45594000000E+02  0.51100000000E-03 0. -1.
         11   -1    0    0    0    0 -0.00000000000E+00 -0.00000000000E+00 -0.45593999997E+02  0.45594000000E+02  0.51100000000E-03 0.  1.
    9900012    2    1    2    0    0 -0.10870559942E+01  0.17012987333E+02  0.26946197182E+02  0.59301937664E+02  0.49999988394E+02 0.  0.
        -12    1    1    2    0    0  0.10870559942E+01 -0.17012987333E+02 -0.26946197182E+02  0.31886062336E+02  0.00000000000E+00 0.  1.
         11    1    3    3    0    0  0.91759128052E+01  0.18670489335E+02  0.22631312240E+02  0.30740215383E+02  0.51100000000E-03 0. -1.
        -11    1    3    3    0    0 -0.14256274204E+02  0.89925005702E+01  0.23288209352E+01  0.17015576037E+02  0.51100000000E-03 0.  1.
         12    1    3    3    0    0  0.39933054043E+01 -0.10650002572E+02  0.19860640061E+01  0.11546146244E+02  0.00000000000E+00 0. -1.
</event>
<event>
 7    1  0.5761011E-013  0.5930195E+02  0.7816164E-02  0.1266605E+00
        -11   -1    0    0    0    0  0.00000000000E+00  0.00000000000E+00  0.45593999997E+02  0.45594000000E+02  0.51100000000E-03 0.  1.
         11   -1    0    0    0    0 -0.00000000000E+00 -0.00000000000E+00 -0.45593999997E+02  0.45594000000E+02  0.51100000000E-03 0. -1.
    9900012    2    1    2    0    0  0.69861589389E+01 -0.25012810919E+02 -0.18500623090E+02  0.59301950049E+02  0.50000010981E+02 0.  0.
        -12    1    1    2    0    0 -0.69861589389E+01  0.25012810919E+02  0.18500623090E+02  0.31886049951E+02  0.00000000000E+00 0.  1.
         11    1    3    3    0    0 -0.57369543138E+01 -0.90349224868E+01 -0.29918598755E+02  0.31775226527E+02  0.51100000000E-03 0. -1.
        -11    1    3    3    0    0  0.12270806224E+02 -0.15404454032E+02  0.40297120986E+01  0.20102449335E+02  0.51100000000E-03 0.  1.
         12    1    3    3    0    0  0.45230702840E+00 -0.57343440025E+00  0.73882635666E+01  0.74242741860E+01  0.00000000000E+00 0. -1.
</event>
<event>
 7    1  0.5761011E-013  0.5930176E+02  0.7816164E-02  0.1266605E+00
        -11   -1    0    0    0    0  0.00000000000E+00  0.00000000000E+00  0.45593999997E+02  0.45594000000E+02  0.51100000000E-03 0. -1.
         11   -1    0    0    0    0 -0.00000000000E+00 -0.00000000000E+00 -0.45593999997E+02  0.45594000000E+02  0.51100000000E-03 0.  1.
    9900012    2    1    2    0    0 -0.39887491593E+01  0.31623749074E+02  0.87223776241E+00  0.59301758076E+02  0.49999660867E+02 0.  0.
        -12    1    1    2    0    0  0.39887491593E+01 -0.31623749074E+02 -0.87223776241E+00  0.31886241924E+02  0.00000000000E+00 0.  1.
         11    1    3    3    0    0  0.67255423178E+01  0.22478669957E+02  0.14575475393E+02  0.27621875492E+02  0.51100000000E-03 0. -1.
        -11    1    3    3    0    0 -0.88638860003E+01  0.16573379777E+02 -0.38208398156E+01  0.19179265090E+02  0.51100000000E-03 0.  1.
         12    1    3    3    0    0 -0.18504054768E+01 -0.74283006600E+01 -0.98823978152E+01  0.12500617493E+02  0.00000000000E+00 0. -1.
</event>
<event>
 7    1  0.5761011E-013  0.5930194E+02  0.7816164E-02  0.1266605E+00
        -11   -1    0    0    0    0  0.00000000000E+00  0.00000000000E+00  0.45593999997E+02  0.45594000000E+02  0.51100000000E-03 0. -1.
         11   -1    0    0    0    0 -0.00000000000E+00 -0.00000000000E+00 -0.45593999997E+02  0.45594000000E+02  0.51100000000E-03 0.  1.
    9900012    2    1    2    0    0 -0.25661214087E+02 -0.18501867917E+02 -0.39879191690E+01  0.59301944675E+02  0.50000001181E+02 0.  0.
        -12    1    1    2    0    0  0.25661214087E+02  0.18501867917E+02  0.39879191690E+01  0.31886055325E+02  0.00000000000E+00 0.  1.
         11    1    3    3    0    0 -0.28257788837E+02 -0.12183357919E+02 -0.13789401690E+02  0.33720682665E+02  0.51100000000E-03 0. -1.
        -11    1    3    3    0    0 -0.33785819021E+01  0.76891167896E+01  0.33415166616E+01  0.90389748608E+01  0.51100000000E-03 0.  1.
         12    1    3    3    0    0  0.59751566520E+01 -0.14007626788E+02  0.64599658592E+01  0.16542287150E+02  0.00000000000E+00 0. -1.
</event>
<event>
 7    1  0.5761011E-013  0.5930197E+02  0.7816164E-02  0.1266605E+00
        -11   -1    0    0    0    0  0.00000000000E+00  0.00000000000E+00  0.45593999997E+02  0.45594000000E+02  0.51100000000E-03 0.  1.
         11   -1    0    0    0    0 -0.00000000000E+00 -0.00000000000E+00 -0.45593999997E+02  0.45594000000E+02  0.51100000000E-03 0. -1.
    9900012    2    1    2    0    0 -0.28392578268E+02 -0.14305496315E+02 -0.24358773820E+01  0.59301965061E+02  0.50000038359E+02 0.  0.
        -12    1    1    2    0    0  0.28392578268E+02  0.14305496315E+02  0.24358773820E+01  0.31886034939E+02  0.00000000000E+00 0.  1.
         11    1    3    3    0    0 -0.90437603954E+01  0.60998954895E+01 -0.12356740285E+02  0.16482941419E+02  0.51100000000E-03 0. -1.
        -11    1    3    3    0    0  0.32016450762E+00 -0.21872819912E+02  0.63153418457E+01  0.22768537482E+02  0.51100000000E-03 0.  1.
        -12    1    3    3    0    0 -0.19668982380E+02  0.14674281071E+01  0.36055210578E+01  0.20050486159E+02  0.00000000000E+00 0.  1.
</event>
<event>
 7    1  0.5761011E-013  0.5930189E+02  0.7816164E-02  0.1266605E+00
        -11   -1    0    0    0    0  0.00000000000E+00  0.00000000000E+00  0.45593999997E+02  0.45594000000E+02  0.51100000000E-03 0.  1.
         11   -1    0    0    0    0 -0.00000000000E+00 -0.00000000000E+00 -0.45593999997E+02  0.45594000000E+02  0.51100000000E-03 0. -1.
    9900012    2    1    2    0    0 -0.19383038475E+02  0.86463980173E+01 -0.23796253811E+02  0.59301889001E+02  0.49999899644E+02 0.  0.
        -12    1    1    2    0    0  0.19383038475E+02 -0.86463980173E+01  0.23796253811E+02  0.31886110999E+02  0.00000000000E+00 0.  1.
         11    1    3    3    0    0  0.12962412603E+02 -0.16906305029E+01 -0.11525322302E+02  0.17427433156E+02  0.51100000000E-03 0. -1.
        -11    1    3    3    0    0 -0.12800253682E+02  0.35793059411E+01  0.57140606170E+01  0.14467495096E+02  0.51100000000E-03 0.  1.
         12    1    3    3    0    0 -0.19545197396E+02  0.67577225791E+01 -0.17984992126E+02  0.27406960748E+02  0.00000000000E+00 0. -1.
</event>
<event>
 7    1  0.5761011E-013  0.5930195E+02  0.7816164E-02  0.1266605E+00
        -11   -1    0    0    0    0  0.00000000000E+00  0.00000000000E+00  0.45593999997E+02  0.45594000000E+02  0.51100000000E-03 0.  1.
         11   -1    0    0    0    0 -0.00000000000E+00 -0.00000000000E+00 -0.45593999997E+02  0.45594000000E+02  0.51100000000E-03 0. -1.
    9900012    2    1    2    0    0 -0.16810502313E+02 -0.53865969148E+01 -0.26553945969E+02  0.59301945668E+02  0.50000002992E+02 0.  0.
        -12    1    1    2    0    0  0.16810502313E+02  0.53865969148E+01  0.26553945969E+02  0.31886054332E+02  0.00000000000E+00 0.  1.
         11    1    3    3    0    0 -0.27581788909E+02 -0.45720777848E+01 -0.53984141404E+00  0.27963376114E+02  0.51100000000E-03 0. -1.
        -11    1    3    3    0    0  0.58863290729E+01  0.47860766499E+01 -0.21117199570E+02  0.22438616660E+02  0.51100000000E-03 0.  1.
         12    1    3    3    0    0  0.48849575231E+01 -0.56005957799E+01 -0.48969049846E+01  0.88999528943E+01  0.00000000000E+00 0. -1.
</event>
<event>
 7    1  0.5761011E-013  0.5930189E+02  0.7816164E-02  0.1266605E+00
        -11   -1    0    0    0    0  0.00000000000E+00  0.00000000000E+00  0.45593999997E+02  0.45594000000E+02  0.51100000000E-03 0.  1.
         11   -1    0    0    0    0 -0.00000000000E+00 -0.00000000000E+00 -0.45593999997E+02  0.45594000000E+02  0.51100000000E-03 0. -1.
    9900012    2    1    2    0    0 -0.75038516831E+01 -0.24073164635E+02 -0.19516634378E+02  0.59301889182E+02  0.49999899975E+02 0.  0.
        -12    1    1    2    0    0  0.75038516831E+01  0.24073164635E+02  0.19516634378E+02  0.31886110818E+02  0.00000000000E+00 0.  1.
         11    1    3    3    0    0 -0.74937203443E+01 -0.18011271539E+02 -0.25283637754E+02  0.31934684676E+02  0.51100000000E-03 0. -1.
        -11    1    3    3    0    0  0.81310911600E+00  0.95666355342E+01 -0.21343736351E+01  0.98355077629E+01  0.51100000000E-03 0.  1.
        -12    1    3    3    0    0 -0.82324045488E+00 -0.15628528631E+02  0.79013770114E+01  0.17531696743E+02  0.00000000000E+00 0.  1.
</event>
<event>
 7    1  0.5761011E-013  0.5930182E+02  0.7816164E-02  0.1266605E+00
        -11   -1    0    0    0    0  0.00000000000E+00  0.00000000000E+00  0.45593999997E+02  0.45594000000E+02  0.51100000000E-03 0. -1.
         11   -1    0    0    0    0 -0.00000000000E+00 -0.00000000000E+00 -0.45593999997E+02  0.45594000000E+02  0.51100000000E-03 0.  1.
    9900012    2    1    2    0    0 -0.13169698744E+02 -0.18402911681E+02  0.22463760168E+02  0.59301817346E+02  0.49999768962E+02 0.  0.
        -12    1    1    2    0    0  0.13169698744E+02  0.18402911681E+02 -0.22463760168E+02  0.31886182654E+02  0.00000000000E+00 0.  1.
         11    1    3    3    0    0 -0.38854509311E+01 -0.28764168318E+02  0.17370084082E+02  0.33825935748E+02  0.51100000000E-03 0. -1.
        -11    1    3    3    0    0 -0.82213912804E+01  0.51053535668E+01  0.12825213320E+02  0.16066798268E+02  0.51100000000E-03 0.  1.
         12    1    3    3    0    0 -0.10628565326E+01  0.52559030695E+01 -0.77315372346E+01  0.94090833292E+01  0.00000000000E+00 0. -1.
</event>
<event>
 7    1  0.5761011E-013  0.5930195E+02  0.7816164E-02  0.1266605E+00
        -11   -1    0    0    0    0  0.00000000000E+00  0.00000000000E+00  0.45593999997E+02  0.45594000000E+02  0.51100000000E-03 0.  1.
         11   -1    0    0    0    0 -0.00000000000E+00 -0.00000000000E+00 -0.45593999997E+02  0.45594000000E+02  0.51100000000E-03 0. -1.
    9900012    2    1    2    0    0 -0.37447762312E+00  0.16857643611E+02 -0.27062885443E+02  0.59301950540E+02  0.50000011878E+02 0.  0.
        -12    1    1    2    0    0  0.37447762312E+00 -0.16857643611E+02  0.27062885443E+02  0.31886049460E+02  0.00000000000E+00 0.  1.
         11    1    3    3    0    0  0.98075279279E+01  0.10003720461E+02 -0.35234496927E+02  0.37917433999E+02  0.51100000000E-03 0. -1.
        -11    1    3    3    0    0 -0.10140543450E+02  0.69181811955E+00 -0.11301342075E+01  0.10226751065E+02  0.51100000000E-03 0.  1.
         12    1    3    3    0    0 -0.41462101366E-01  0.61621050307E+01  0.93017456911E+01  0.11157765476E+02  0.00000000000E+00 0. -1.
</event>
<event>
 7    1  0.5761011E-013  0.5930197E+02  0.7816164E-02  0.1266605E+00
        -11   -1    0    0    0    0  0.00000000000E+00  0.00000000000E+00  0.45593999997E+02  0.45594000000E+02  0.51100000000E-03 0.  1.
         11   -1    0    0    0    0 -0.00000000000E+00 -0.00000000000E+00 -0.45593999997E+02  0.45594000000E+02  0.51100000000E-03 0. -1.
    9900012    2    1    2    0    0 -0.56052199408E+01  0.77656719808E+01 -0.30413727261E+02  0.59301969237E+02  0.50000045976E+02 0.  0.
        -12    1    1    2    0    0  0.56052199408E+01 -0.77656719808E+01  0.30413727261E+02  0.31886030763E+02  0.00000000000E+00 0.  1.
         11    1    3    3    0    0 -0.13404114421E+02  0.19558839334E+02 -0.27246632905E+02  0.36119212124E+02  0.51100000000E-03 0. -1.
        -11    1    3    3    0    0  0.11410253043E+02 -0.22639362324E+01  0.19248006856E+01  0.11790849830E+02  0.51100000000E-03 0.  1.
         12    1    3    3    0    0 -0.36113585631E+01 -0.95292311211E+01 -0.50918950416E+01  0.11391907283E+02  0.00000000000E+00 0. -1.
</event>
<event>
 7    1  0.5761011E-013  0.5930192E+02  0.7816164E-02  0.1266605E+00
        -11   -1    0    0    0    0  0.00000000000E+00  0.00000000000E+00  0.45593999997E+02  0.45594000000E+02  0.51100000000E-03 0. -1.
         11   -1    0    0    0    0 -0.00000000000E+00 -0.00000000000E+00 -0.45593999997E+02  0.45594000000E+02  0.51100000000E-03 0.  1.
    9900012    2    1    2    0    0  0.20566659032E+02 -0.44325276931E+01  0.23960125906E+02  0.59301915278E+02  0.49999947568E+02 0.  0.
        -12    1    1    2    0    0 -0.20566659032E+02  0.44325276931E+01 -0.23960125906E+02  0.31886084722E+02  0.00000000000E+00 0.  1.
         11    1    3    3    0    0 -0.45951374641E+01 -0.14114451495E+02  0.23337281019E+01  0.15025954759E+02  0.51100000000E-03 0. -1.
        -11    1    3    3    0    0  0.23860926011E+02  0.18159782855E+02  0.17922287591E+02  0.34933220524E+02  0.51100000000E-03 0.  1.
         12    1    3    3    0    0  0.13008704847E+01 -0.84778590531E+01  0.37041102133E+01  0.93427399950E+01  0.00000000000E+00 0. -1.
</event>
<event>
 7    1  0.5761011E-013  0.5930195E+02  0.7816164E-02  0.1266605E+00
        -11   -1    0    0    0    0  0.00000000000E+00  0.00000000000E+00  0.45593999997E+02  0.45594000000E+02  0.51100000000E-03 0. -1.
         11   -1    0    0    0    0 -0.00000000000E+00 -0.00000000000E+00 -0.45593999997E+02  0.45594000000E+02  0.51100000000E-03 0.  1.
    9900012    2    1    2    0    0 -0.26460474847E+02 -0.29795352145E+01  0.17540971718E+02  0.59301952142E+02  0.50000014798E+02 0.  0.
        -12    1    1    2    0    0  0.26460474847E+02  0.29795352145E+01 -0.17540971718E+02  0.31886047858E+02  0.00000000000E+00 0.  1.
         11    1    3    3    0    0 -0.12686348679E+02 -0.23468195423E+00  0.19717417887E+02  0.23447283143E+02  0.51100000000E-03 0. -1.
        -11    1    3    3    0    0  0.56532733863E+01 -0.41237219532E+01 -0.12113893208E+02  0.13989674465E+02  0.51100000000E-03 0.  1.
         12    1    3    3    0    0 -0.19427399554E+02  0.13788686930E+01  0.99374470386E+01  0.21864994533E+02  0.00000000000E+00 0. -1.
</event>
<event>
 7    1  0.5761011E-013  0.5930194E+02  0.7816164E-02  0.1266605E+00
        -11   -1    0    0    0    0  0.00000000000E+00  0.00000000000E+00  0.45593999997E+02  0.45594000000E+02  0.51100000000E-03 0.  1.
         11   -1    0    0    0    0 -0.00000000000E+00 -0.00000000000E+00 -0.45593999997E+02  0.45594000000E+02  0.51100000000E-03 0. -1.
    9900012    2    1    2    0    0 -0.28741609582E+02 -0.94628249966E+01 -0.10054645563E+02  0.59301936028E+02  0.49999985410E+02 0.  0.
        -12    1    1    2    0    0  0.28741609582E+02  0.94628249966E+01  0.10054645563E+02  0.31886063972E+02  0.00000000000E+00 0.  1.
         11    1    3    3    0    0 -0.14281531262E+02  0.19558258408E+02 -0.24514199379E+01  0.24341262644E+02  0.51100000000E-03 0. -1.
        -11    1    3    3    0    0 -0.94504819732E+01 -0.23253498658E+02 -0.99016747275E+01  0.26982957066E+02  0.51100000000E-03 0.  1.
         12    1    3    3    0    0 -0.50095963467E+01 -0.57675847463E+01  0.22984491027E+01  0.79777163173E+01  0.00000000000E+00 0. -1.
</event>
<event>
 7    1  0.5761011E-013  0.5930194E+02  0.7816164E-02  0.1266605E+00
        -11   -1    0    0    0    0  0.00000000000E+00  0.00000000000E+00  0.45593999997E+02  0.45594000000E+02  0.51100000000E-03 0.  1.
         11   -1    0    0    0    0 -0.00000000000E+00 -0.00000000000E+00 -0.45593999997E+02  0.45594000000E+02  0.51100000000E-03 0. -1.
    9900012    2    1    2    0    0 -0.23624516713E+02 -0.15997625660E+02  0.14236540908E+02  0.59301938568E+02  0.49999990042E+02 0.  0.
        -12    1    1    2    0    0  0.23624516713E+02  0.15997625660E+02 -0.14236540908E+02  0.31886061432E+02  0.00000000000E+00 0.  1.
         11    1    3    3    0    0 -0.22797916242E+02  0.92942873077E+01 -0.23454476071E+01  0.24731152142E+02  0.51100000000E-03 0. -1.
        -11    1    3    3    0    0  0.75281477051E+01 -0.13386659498E+02  0.56049740050E+01  0.16349048726E+02  0.51100000000E-03 0.  1.
         12    1    3    3    0    0 -0.83547481762E+01 -0.11905253469E+02  0.10977014510E+02  0.18221737700E+02  0.00000000000E+00 0. -1.
</event>
<event>
 7    1  0.5761011E-013  0.5930194E+02  0.7816164E-02  0.1266605E+00
        -11   -1    0    0    0    0  0.00000000000E+00  0.00000000000E+00  0.45593999997E+02  0.45594000000E+02  0.51100000000E-03 0.  1.
         11   -1    0    0    0    0 -0.00000000000E+00 -0.00000000000E+00 -0.45593999997E+02  0.45594000000E+02  0.51100000000E-03 0. -1.
    9900012    2    1    2    0    0 -0.22691868550E+01  0.31051393801E+02  0.68834884377E+01  0.59301942247E+02  0.49999996753E+02 0.  0.
        -12    1    1    2    0    0  0.22691868550E+01 -0.31051393801E+02 -0.68834884377E+01  0.31886057753E+02  0.00000000000E+00 0.  1.
         11    1    3    3    0    0 -0.20827195877E+02  0.20494784505E+02  0.93737913645E+01  0.30686743796E+02  0.51100000000E-03 0. -1.
        -11    1    3    3    0    0  0.96340309545E+01 -0.15388842456E+01  0.58993676652E+01  0.11401107677E+02  0.51100000000E-03 0.  1.
         12    1    3    3    0    0  0.89239780671E+01  0.12095493541E+02 -0.83896705919E+01  0.17214090774E+02  0.00000000000E+00 0. -1.
</event>
<event>
 7    1  0.5761011E-013  0.5930192E+02  0.7816164E-02  0.1266605E+00
        -11   -1    0    0    0    0  0.00000000000E+00  0.00000000000E+00  0.45593999997E+02  0.45594000000E+02  0.51100000000E-03 0.  1.
         11   -1    0    0    0    0 -0.00000000000E+00 -0.00000000000E+00 -0.45593999997E+02  0.45594000000E+02  0.51100000000E-03 0. -1.
    9900012    2    1    2    0    0  0.20707881358E+02  0.22591735602E+02 -0.88044882100E+01  0.59301923407E+02  0.49999962392E+02 0.  0.
        -12    1    1    2    0    0 -0.20707881358E+02 -0.22591735602E+02  0.88044882100E+01  0.31886076593E+02  0.00000000000E+00 0.  1.
         11    1    3    3    0    0  0.20611894735E+02  0.28928004045E+02 -0.62689138312E+01  0.36069085149E+02  0.51100000000E-03 0. -1.
        -11    1    3    3    0    0  0.78976614875E+01 -0.10512218287E+02 -0.49679750784E+01  0.14055624032E+02  0.51100000000E-03 0.  1.
         12    1    3    3    0    0 -0.78016748640E+01  0.41759498442E+01  0.24324006996E+01  0.91772142259E+01  0.00000000000E+00 0. -1.
</event>
<event>
 7    1  0.5761011E-013  0.5930195E+02  0.7816164E-02  0.1266605E+00
        -11   -1    0    0    0    0  0.00000000000E+00  0.00000000000E+00  0.45593999997E+02  0.45594000000E+02  0.51100000000E-03 0. -1.
         11   -1    0    0    0    0 -0.00000000000E+00 -0.00000000000E+00 -0.45593999997E+02  0.45594000000E+02  0.51100000000E-03 0.  1.
    9900012    2    1    2    0    0  0.24826738419E+02 -0.13915768470E+02 -0.14377225772E+02  0.59301950173E+02  0.50000011208E+02 0.  0.
        -12    1    1    2    0    0 -0.24826738419E+02  0.13915768470E+02  0.14377225772E+02  0.31886049827E+02  0.00000000000E+00 0.  1.
         11    1    3    3    0    0  0.27245153796E+01 -0.14071232392E+02  0.97572305893E+01  0.17338573013E+02  0.51100000000E-03 0. -1.
        -11    1    3    3    0    0  0.20673385551E+02 -0.92620453010E+01 -0.23146059816E+02  0.32386948584E+02  0.51100000000E-03 0.  1.
        -12    1    3    3    0    0  0.14288374886E+01  0.94175092237E+01 -0.98839654553E+00  0.95764285764E+01  0.00000000000E+00 0.  1.
</event>
<event>
 7    1  0.5761011E-013  0.5930195E+02  0.7816164E-02  0.1266605E+00
        -11   -1    0    0    0    0  0.00000000000E+00  0.00000000000E+00  0.45593999997E+02  0.45594000000E+02  0.51100000000E-03 0.  1.
         11   -1    0    0    0    0 -0.00000000000E+00 -0.00000000000E+00 -0.45593999997E+02  0.45594000000E+02  0.51100000000E-03 0. -1.
    9900012    2    1    2    0    0 -0.20751270700E+02 -0.19095857990E+02 -0.14881292482E+02  0.59301954557E+02  0.50000019203E+02 0.  0.
        -12    1    1    2    0    0  0.20751270700E+02  0.19095857990E+02  0.14881292482E+02  0.31886045443E+02  0.00000000000E+00 0.  1.
         11    1    3    3    0    0 -0.22792329744E+02  0.14421979859E+01  0.55276932199E+01  0.23497353528E+02  0.51100000000E-03 0. -1.
        -11    1    3    3    0    0  0.29678677083E+01 -0.95749617788E+01  0.25516713288E+01  0.10344039764E+02  0.51100000000E-03 0.  1.
         12    1    3    3    0    0 -0.92680866366E+00 -0.10963094197E+02 -0.22960657031E+02  0.25460561266E+02  0.00000000000E+00 0. -1.
</event>
<event>
 7    1  0.5761011E-013  0.5930195E+02  0.7816164E-02  0.1266605E+00
        -11   -1    0    0    0    0  0.00000000000E+00  0.00000000000E+00  0.45593999997E+02  0.45594000000E+02  0.51100000000E-03 0. -1.
         11   -1    0    0    0    0 -0.00000000000E+00 -0.00000000000E+00 -0.45593999997E+02  0.45594000000E+02  0.51100000000E-03 0.  1.
    9900012    2    1    2    0    0  0.20377217443E+02  0.42209849554E+01  0.24159319684E+02  0.59301946115E+02  0.50000003807E+02 0.  0.
        -12    1    1    2    0    0 -0.20377217443E+02 -0.42209849554E+01 -0.24159319684E+02  0.31886053885E+02  0.00000000000E+00 0.  1.
         11    1    3    3    0    0  0.13155961853E+01  0.12822911437E+02  0.12936102255E+02  0.18261998600E+02  0.51100000000E-03 0. -1.
        -11    1    3    3    0    0  0.17893247390E+02 -0.12655836071E+02  0.21023697132E+02  0.30369957691E+02  0.51100000000E-03 0.  1.
        -12    1    3    3    0    0  0.11683738674E+01  0.40539095891E+01 -0.98004797023E+01  0.10669989824E+02  0.00000000000E+00 0.  1.
</event>
<event>
 7    1  0.5761011E-013  0.5930196E+02  0.7816164E-02  0.1266605E+00
        -11   -1    0    0    0    0  0.00000000000E+00  0.00000000000E+00  0.45593999997E+02  0.45594000000E+02  0.51100000000E-03 0.  1.
         11   -1    0    0    0    0 -0.00000000000E+00 -0.00000000000E+00 -0.45593999997E+02  0.45594000000E+02  0.51100000000E-03 0. -1.
    9900012    2    1    2    0    0  0.25512557803E+02  0.60915877780E+01 -0.18130673098E+02  0.59301963020E+02  0.50000034637E+02 0.  0.
        -12    1    1    2    0    0 -0.25512557803E+02 -0.60915877780E+01  0.18130673098E+02  0.31886036980E+02  0.00000000000E+00 0.  1.
         11    1    3    3    0    0  0.78437095044E+01 -0.80606629863E+01  0.14500498023E+02  0.18351090151E+02  0.51100000000E-03 0. -1.
        -11    1    3    3    0    0  0.74333216744E-02  0.37187662990E+01 -0.24309408842E+01  0.44428315166E+01  0.51100000000E-03 0.  1.
         12    1    3    3    0    0  0.17661414977E+02  0.10433484465E+02 -0.30200230236E+02  0.36508041352E+02  0.00000000000E+00 0. -1.
</event>
<event>
 7    1  0.5761011E-013  0.5930195E+02  0.7816164E-02  0.1266605E+00
        -11   -1    0    0    0    0  0.00000000000E+00  0.00000000000E+00  0.45593999997E+02  0.45594000000E+02  0.51100000000E-03 0. -1.
         11   -1    0    0    0    0 -0.00000000000E+00 -0.00000000000E+00 -0.45593999997E+02  0.45594000000E+02  0.51100000000E-03 0.  1.
    9900012    2    1    2    0    0  0.28032470332E+02 -0.39263699729E+01  0.14679379551E+02  0.59301953551E+02  0.50000017369E+02 0.  0.
        -12    1    1    2    0    0 -0.28032470332E+02  0.39263699729E+01 -0.14679379551E+02  0.31886046449E+02  0.00000000000E+00 0.  1.
         11    1    3    3    0    0  0.16335905769E+02 -0.19148025590E+02 -0.30449902063E+01  0.25353119471E+02  0.51100000000E-03 0. -1.
        -11    1    3    3    0    0 -0.70084519387E+00  0.15777229027E+02  0.60536323906E+01  0.16913267134E+02  0.51100000000E-03 0.  1.
         12    1    3    3    0    0  0.12397409757E+02 -0.55557340952E+00  0.11670737367E+02  0.17035566946E+02  0.00000000000E+00 0. -1.
</event>
<event>
 7    1  0.5761011E-013  0.5930195E+02  0.7816164E-02  0.1266605E+00
        -11   -1    0    0    0    0  0.00000000000E+00  0.00000000000E+00  0.45593999997E+02  0.45594000000E+02  0.51100000000E-03 0.  1.
         11   -1    0    0    0    0 -0.00000000000E+00 -0.00000000000E+00 -0.45593999997E+02  0.45594000000E+02  0.51100000000E-03 0. -1.
    9900012    2    1    2    0    0 -0.29019098970E+02  0.13213467189E+02  0.12727312207E+00  0.59301952603E+02  0.50000015639E+02 0.  0.
        -12    1    1    2    0    0  0.29019098970E+02 -0.13213467189E+02 -0.12727312207E+00  0.31886047397E+02  0.00000000000E+00 0.  1.
         11    1    3    3    0    0 -0.34706913915E+02  0.21430999305E+02 -0.88808961886E+01  0.41745992887E+02  0.51100000000E-03 0. -1.
        -11    1    3    3    0    0  0.67552016627E+01 -0.61088295626E+01  0.11128810568E+02  0.14380576242E+02  0.51100000000E-03 0.  1.
        -12    1    3    3    0    0 -0.10673867175E+01 -0.21087025533E+01 -0.21206412578E+01  0.31753834740E+01  0.00000000000E+00 0.  1.
</event>
<event>
 7    1  0.5761011E-013  0.5930194E+02  0.7816164E-02  0.1266605E+00
        -11   -1    0    0    0    0  0.00000000000E+00  0.00000000000E+00  0.45593999997E+02  0.45594000000E+02  0.51100000000E-03 0. -1.
         11   -1    0    0    0    0 -0.00000000000E+00 -0.00000000000E+00 -0.45593999997E+02  0.45594000000E+02  0.51100000000E-03 0.  1.
    9900012    2    1    2    0    0  0.18237487403E+02 -0.23205164380E+02  0.12067929050E+02  0.59301944862E+02  0.50000001522E+02 0.  0.
        -12    1    1    2    0    0 -0.18237487403E+02  0.23205164380E+02 -0.12067929050E+02  0.31886055138E+02  0.00000000000E+00 0.  1.
         11    1    3    3    0    0  0.18242433968E+02 -0.78773103125E+01  0.54952976996E+01  0.20616418503E+02  0.51100000000E-03 0. -1.
        -11    1    3    3    0    0 -0.12923016041E+02 -0.14302314111E+02 -0.64377877759E+01  0.20322540299E+02  0.51100000000E-03 0.  1.
        -12    1    3    3    0    0  0.12918069476E+02 -0.10255399572E+01  0.13010419126E+02  0.18362986060E+02  0.00000000000E+00 0.  1.
</event>
<event>
 7    1  0.5761011E-013  0.5930195E+02  0.7816164E-02  0.1266605E+00
        -11   -1    0    0    0    0  0.00000000000E+00  0.00000000000E+00  0.45593999997E+02  0.45594000000E+02  0.51100000000E-03 0. -1.
         11   -1    0    0    0    0 -0.00000000000E+00 -0.00000000000E+00 -0.45593999997E+02  0.45594000000E+02  0.51100000000E-03 0.  1.
    9900012    2    1    2    0    0  0.29873173229E+02  0.54626052196E+01 -0.97197578393E+01  0.59301949335E+02  0.50000009679E+02 0.  0.
        -12    1    1    2    0    0 -0.29873173229E+02 -0.54626052196E+01  0.97197578393E+01  0.31886050665E+02  0.00000000000E+00 0.  1.
         11    1    3    3    0    0  0.42327395697E+02  0.76176409720E+00 -0.57025556253E+01  0.42716599255E+02  0.51100000000E-03 0. -1.
        -11    1    3    3    0    0 -0.11226891923E+02  0.10064755159E+00 -0.36685418501E+01  0.11811495746E+02  0.51100000000E-03 0.  1.
        -12    1    3    3    0    0 -0.12273305441E+01  0.46001935708E+01 -0.34866036382E+00  0.47738543340E+01  0.00000000000E+00 0.  1.
</event>
<event>
 7    1  0.5761011E-013  0.5930194E+02  0.7816164E-02  0.1266605E+00
        -11   -1    0    0    0    0  0.00000000000E+00  0.00000000000E+00  0.45593999997E+02  0.45594000000E+02  0.51100000000E-03 0.  1.
         11   -1    0    0    0    0 -0.00000000000E+00 -0.00000000000E+00 -0.45593999997E+02  0.45594000000E+02  0.51100000000E-03 0. -1.
    9900012    2    1    2    0    0 -0.16598771560E+02  0.19553751008E+02 -0.18943401310E+02  0.59301939582E+02  0.49999991892E+02 0.  0.
        -12    1    1    2    0    0  0.16598771560E+02 -0.19553751008E+02  0.18943401310E+02  0.31886060418E+02  0.00000000000E+00 0.  1.
         11    1    3    3    0    0 -0.26497889985E+02  0.10114056549E+02 -0.17146115447E+02  0.33142443916E+02  0.51100000000E-03 0. -1.
        -11    1    3    3    0    0 -0.43269248317E+00 -0.34685733871E+01  0.67095892706E+01  0.75655014750E+01  0.51100000000E-03 0.  1.
         12    1    3    3    0    0  0.10331810908E+02  0.12908267846E+02 -0.85068751336E+01  0.18593994191E+02  0.00000000000E+00 0. -1.
</event>
<event>
 7    1  0.5761011E-013  0.5930192E+02  0.7816164E-02  0.1266605E+00
        -11   -1    0    0    0    0  0.00000000000E+00  0.00000000000E+00  0.45593999997E+02  0.45594000000E+02  0.51100000000E-03 0. -1.
         11   -1    0    0    0    0 -0.00000000000E+00 -0.00000000000E+00 -0.45593999997E+02  0.45594000000E+02  0.51100000000E-03 0.  1.
    9900012    2    1    2    0    0  0.44509138448E+01  0.20554283739E+02  0.23967324220E+02  0.59301923974E+02  0.49999963427E+02 0.  0.
        -12    1    1    2    0    0 -0.44509138448E+01 -0.20554283739E+02 -0.23967324220E+02  0.31886076026E+02  0.00000000000E+00 0.  1.
         11    1    3    3    0    0  0.76712002475E+00  0.29306861887E+02  0.30630947480E+02  0.42399711916E+02  0.51100000000E-03 0. -1.
        -11    1    3    3    0    0  0.73451636452E+01 -0.24442895009E+01 -0.55469768661E+01  0.95233887222E+01  0.51100000000E-03 0.  1.
         12    1    3    3    0    0 -0.36613698251E+01 -0.63082886470E+01 -0.11166463942E+01  0.73788233357E+01  0.00000000000E+00 0. -1.
</event>
<event>
 7    1  0.5761011E-013  0.5930194E+02  0.7816164E-02  0.1266605E+00
        -11   -1    0    0    0    0  0.00000000000E+00  0.00000000000E+00  0.45593999997E+02  0.45594000000E+02  0.51100000000E-03 0.  1.
         11   -1    0    0    0    0 -0.00000000000E+00 -0.00000000000E+00 -0.45593999997E+02  0.45594000000E+02  0.51100000000E-03 0. -1.
    9900012    2    1    2    0    0  0.15103384800E+02  0.15043478527E+02 -0.23712914041E+02  0.59301940806E+02  0.49999994125E+02 0.  0.
        -12    1    1    2    0    0 -0.15103384800E+02 -0.15043478527E+02  0.23712914041E+02  0.31886059194E+02  0.00000000000E+00 0.  1.
         11    1    3    3    0    0  0.23402380794E+02  0.62920009406E+01 -0.74171016552E+01  0.25343127271E+02  0.51100000000E-03 0. -1.
        -11    1    3    3    0    0 -0.64869704080E+01  0.18641710983E+02 -0.10711129623E+02  0.22457125184E+02  0.51100000000E-03 0.  1.
         12    1    3    3    0    0 -0.18120255862E+01 -0.98902333970E+01 -0.55846827622E+01  0.11501688351E+02  0.00000000000E+00 0. -1.
</event>
<event>
 7    1  0.5761011E-013  0.5930205E+02  0.7816164E-02  0.1266604E+00
        -11   -1    0    0    0    0  0.00000000000E+00  0.00000000000E+00  0.45593999997E+02  0.45594000000E+02  0.51100000000E-03 0.  1.
         11   -1    0    0    0    0 -0.00000000000E+00 -0.00000000000E+00 -0.45593999997E+02  0.45594000000E+02  0.51100000000E-03 0. -1.
    9900012    2    1    2    0    0 -0.31433258808E+02  0.51226314718E+01 -0.15565354738E+01  0.59302048310E+02  0.50000190186E+02 0.  0.
        -12    1    1    2    0    0  0.31433258808E+02 -0.51226314718E+01  0.15565354738E+01  0.31885951690E+02  0.00000000000E+00 0.  1.
         11    1    3    3    0    0 -0.25720949569E+01  0.11064343562E+02 -0.37126564641E+01  0.11950698273E+02  0.51100000000E-03 0. -1.
        -11    1    3    3    0    0 -0.61989858990E+01 -0.18933839606E+02  0.63160077944E+01  0.20899991941E+02  0.51100000000E-03 0.  1.
        -12    1    3    3    0    0 -0.22662177952E+02  0.12992127516E+02 -0.41598868041E+01  0.26451358096E+02  0.00000000000E+00 0.  1.
</event>
<event>
 7    1  0.5761011E-013  0.5930192E+02  0.7816164E-02  0.1266605E+00
        -11   -1    0    0    0    0  0.00000000000E+00  0.00000000000E+00  0.45593999997E+02  0.45594000000E+02  0.51100000000E-03 0.  1.
         11   -1    0    0    0    0 -0.00000000000E+00 -0.00000000000E+00 -0.45593999997E+02  0.45594000000E+02  0.51100000000E-03 0. -1.
    9900012    2    1    2    0    0  0.12453501211E+02  0.27912403395E+02 -0.90846195158E+01  0.59301917340E+02  0.49999951327E+02 0.  0.
        -12    1    1    2    0    0 -0.12453501211E+02 -0.27912403395E+02  0.90846195158E+01  0.31886082660E+02  0.00000000000E+00 0.  1.
         11    1    3    3    0    0  0.65089603181E+01 -0.10729145502E+02  0.47491474161E+01  0.13417731890E+02  0.51100000000E-03 0. -1.
        -11    1    3    3    0    0  0.96039110492E+01  0.80129557917E+01 -0.12509919700E+01  0.12570105375E+02  0.51100000000E-03 0.  1.
         12    1    3    3    0    0 -0.36593701559E+01  0.30628593105E+02 -0.12582774962E+02  0.33314080075E+02  0.00000000000E+00 0. -1.
</event>
<event>
 7    1  0.5761011E-013  0.5930196E+02  0.7816164E-02  0.1266605E+00
        -11   -1    0    0    0    0  0.00000000000E+00  0.00000000000E+00  0.45593999997E+02  0.45594000000E+02  0.51100000000E-03 0. -1.
         11   -1    0    0    0    0 -0.00000000000E+00 -0.00000000000E+00 -0.45593999997E+02  0.45594000000E+02  0.51100000000E-03 0.  1.
    9900012    2    1    2    0    0  0.16457317729E+02 -0.25805600002E+02  0.89413360153E+01  0.59301956218E+02  0.50000022232E+02 0.  0.
        -12    1    1    2    0    0 -0.16457317729E+02  0.25805600002E+02 -0.89413360153E+01  0.31886043782E+02  0.00000000000E+00 0.  1.
         11    1    3    3    0    0  0.76189798473E+01 -0.33513504971E+02  0.19186887509E+02  0.39361663099E+02  0.51100000000E-03 0. -1.
        -11    1    3    3    0    0  0.94862583674E+01  0.25693439805E+00 -0.69751702569E+01  0.11777440871E+02  0.51100000000E-03 0.  1.
         12    1    3    3    0    0 -0.64792048550E+00  0.74509705706E+01 -0.32703812364E+01  0.81628522485E+01  0.00000000000E+00 0. -1.
</event>
<event>
 7    1  0.5761011E-013  0.5930196E+02  0.7816164E-02  0.1266605E+00
        -11   -1    0    0    0    0  0.00000000000E+00  0.00000000000E+00  0.45593999997E+02  0.45594000000E+02  0.51100000000E-03 0. -1.
         11   -1    0    0    0    0 -0.00000000000E+00 -0.00000000000E+00 -0.45593999997E+02  0.45594000000E+02  0.51100000000E-03 0.  1.
    9900012    2    1    2    0    0 -0.27561550980E+02 -0.63211188979E+01  0.14735132628E+02  0.59301956500E+02  0.50000022746E+02 0.  0.
        -12    1    1    2    0    0  0.27561550980E+02  0.63211188979E+01 -0.14735132628E+02  0.31886043500E+02  0.00000000000E+00 0.  1.
         11    1    3    3    0    0 -0.18920258804E+02  0.87077089212E+01  0.58317030894E+01  0.21628896159E+02  0.51100000000E-03 0. -1.
        -11    1    3    3    0    0 -0.79135688126E+01 -0.25184040531E+02  0.70647116875E+01  0.27327104133E+02  0.51100000000E-03 0.  1.
        -12    1    3    3    0    0 -0.72772336257E+00  0.10155212712E+02  0.18387178512E+01  0.10345956208E+02  0.00000000000E+00 0.  1.
</event>
<event>
 7    1  0.5761011E-013  0.5930193E+02  0.7816164E-02  0.1266605E+00
        -11   -1    0    0    0    0  0.00000000000E+00  0.00000000000E+00  0.45593999997E+02  0.45594000000E+02  0.51100000000E-03 0.  1.
         11   -1    0    0    0    0 -0.00000000000E+00 -0.00000000000E+00 -0.45593999997E+02  0.45594000000E+02  0.51100000000E-03 0. -1.
    9900012    2    1    2    0    0 -0.88004373127E+01 -0.19806818117E+02  0.23387248971E+02  0.59301934780E+02  0.49999983134E+02 0.  0.
        -12    1    1    2    0    0  0.88004373127E+01  0.19806818117E+02 -0.23387248971E+02  0.31886065220E+02  0.00000000000E+00 0.  1.
         11    1    3    3    0    0 -0.45560924173E+01 -0.53412503727E+01 -0.42511479159E+01  0.82072646188E+01  0.51100000000E-03 0. -1.
        -11    1    3    3    0    0  0.97954220186E+01  0.10336374486E+02  0.67485588352E+01  0.15758615950E+02  0.51100000000E-03 0.  1.
        -12    1    3    3    0    0 -0.14039766914E+02 -0.24801942230E+02  0.20889838052E+02  0.35336054211E+02  0.00000000000E+00 0.  1.
</event>
<event>
 7    1  0.5761011E-013  0.5930196E+02  0.7816164E-02  0.1266605E+00
        -11   -1    0    0    0    0  0.00000000000E+00  0.00000000000E+00  0.45593999997E+02  0.45594000000E+02  0.51100000000E-03 0.  1.
         11   -1    0    0    0    0 -0.00000000000E+00 -0.00000000000E+00 -0.45593999997E+02  0.45594000000E+02  0.51100000000E-03 0. -1.
    9900012    2    1    2    0    0 -0.14069285456E+02  0.51320303568E+01 -0.28150259836E+02  0.59301958262E+02  0.50000025961E+02 0.  0.
        -12    1    1    2    0    0  0.14069285456E+02 -0.51320303568E+01  0.28150259836E+02  0.31886041738E+02  0.00000000000E+00 0.  1.
         11    1    3    3    0    0 -0.23959115336E+02 -0.87188302076E+00 -0.46498104872E+01  0.24421714222E+02  0.51100000000E-03 0. -1.
        -11    1    3    3    0    0  0.14789711052E+02  0.41020649459E+01 -0.57859381969E+01  0.16402425763E+02  0.51100000000E-03 0.  1.
         12    1    3    3    0    0 -0.48998811719E+01  0.19018484317E+01 -0.17714511152E+02  0.18477818278E+02  0.00000000000E+00 0. -1.
</event>
<event>
 7    1  0.5761011E-013  0.5930193E+02  0.7816164E-02  0.1266605E+00
        -11   -1    0    0    0    0  0.00000000000E+00  0.00000000000E+00  0.45593999997E+02  0.45594000000E+02  0.51100000000E-03 0.  1.
         11   -1    0    0    0    0 -0.00000000000E+00 -0.00000000000E+00 -0.45593999997E+02  0.45594000000E+02  0.51100000000E-03 0. -1.
    9900012    2    1    2    0    0  0.15432433610E+02  0.22186779873E+02 -0.16920637646E+02  0.59301934288E+02  0.49999982237E+02 0.  0.
        -12    1    1    2    0    0 -0.15432433610E+02 -0.22186779873E+02  0.16920637646E+02  0.31886065712E+02  0.00000000000E+00 0.  1.
         11    1    3    3    0    0  0.14763913916E+02 -0.45341536902E+01 -0.16205455384E+02  0.22386346023E+02  0.51100000000E-03 0. -1.
        -11    1    3    3    0    0  0.29720704620E+00  0.84734407015E+01  0.11984667520E+02  0.14680592126E+02  0.51100000000E-03 0.  1.
         12    1    3    3    0    0  0.37131264852E+00  0.18247492861E+02 -0.12699849782E+02  0.22234996139E+02  0.00000000000E+00 0. -1.
</event>
<event>
 7    1  0.5761011E-013  0.5930195E+02  0.7816164E-02  0.1266605E+00
        -11   -1    0    0    0    0  0.00000000000E+00  0.00000000000E+00  0.45593999997E+02  0.45594000000E+02  0.51100000000E-03 0.  1.
         11   -1    0    0    0    0 -0.00000000000E+00 -0.00000000000E+00 -0.45593999997E+02  0.45594000000E+02  0.51100000000E-03 0. -1.
    9900012    2    1    2    0    0 -0.52534948270E+01  0.26604515092E+01 -0.31337565532E+02  0.59301949389E+02  0.50000009777E+02 0.  0.
        -12    1    1    2    0    0  0.52534948270E+01 -0.26604515092E+01  0.31337565532E+02  0.31886050611E+02  0.00000000000E+00 0.  1.
         11    1    3    3    0    0 -0.31938702698E+00  0.50700582652E+01 -0.20684203603E+02  0.21298914945E+02  0.51100000000E-03 0. -1.
        -11    1    3    3    0    0 -0.14337529538E+02 -0.15003747606E+02 -0.56415192537E+01  0.21505904660E+02  0.51100000000E-03 0.  1.
        -12    1    3    3    0    0  0.94034217383E+01  0.12594140850E+02 -0.50118426755E+01  0.16497129785E+02  0.00000000000E+00 0.  1.
</event>
<event>
 7    1  0.5761011E-013  0.5930193E+02  0.7816164E-02  0.1266605E+00
        -11   -1    0    0    0    0  0.00000000000E+00  0.00000000000E+00  0.45593999997E+02  0.45594000000E+02  0.51100000000E-03 0.  1.
         11   -1    0    0    0    0 -0.00000000000E+00 -0.00000000000E+00 -0.45593999997E+02  0.45594000000E+02  0.51100000000E-03 0. -1.
    9900012    2    1    2    0    0  0.84068426570E+00  0.66080427627E+01 -0.31182502338E+02  0.59301930451E+02  0.49999975240E+02 0.  0.
        -12    1    1    2    0    0 -0.84068426570E+00 -0.66080427627E+01  0.31182502338E+02  0.31886069549E+02  0.00000000000E+00 0.  1.
         11    1    3    3    0    0 -0.13887961171E+02  0.48189836124E+01  0.27627967569E+01  0.14957644023E+02  0.51100000000E-03 0.  1.
        -11    1    3    3    0    0  0.43575587000E+01 -0.29246519505E+01 -0.32430024732E+02  0.32851916401E+02  0.51100000000E-03 0. -1.
         12    1    3    3    0    0  0.10371086737E+02  0.47137111009E+01 -0.15152743636E+01  0.11492370027E+02  0.00000000000E+00 0. -1.
</event>
<event>
 7    1  0.5761011E-013  0.5930195E+02  0.7816164E-02  0.1266605E+00
        -11   -1    0    0    0    0  0.00000000000E+00  0.00000000000E+00  0.45593999997E+02  0.45594000000E+02  0.51100000000E-03 0. -1.
         11   -1    0    0    0    0 -0.00000000000E+00 -0.00000000000E+00 -0.45593999997E+02  0.45594000000E+02  0.51100000000E-03 0.  1.
    9900012    2    1    2    0    0 -0.22555925959E+02  0.16943768353E+01  0.22473975312E+02  0.59301948582E+02  0.50000008306E+02 0.  0.
        -12    1    1    2    0    0  0.22555925959E+02 -0.16943768353E+01 -0.22473975312E+02  0.31886051418E+02  0.00000000000E+00 0.  1.
         11    1    3    3    0    0 -0.23219550264E+01  0.20917963849E+02  0.85227199665E+01  0.22706594695E+02  0.51100000000E-03 0. -1.
        -11    1    3    3    0    0 -0.86693738095E+01 -0.16174928713E+02  0.17575106268E+00  0.18352581557E+02  0.51100000000E-03 0.  1.
         12    1    3    3    0    0 -0.11564597123E+02 -0.30486583009E+01  0.13775504283E+02  0.18242772330E+02  0.00000000000E+00 0. -1.
</event>
<event>
 7    1  0.5761011E-013  0.5930194E+02  0.7816164E-02  0.1266605E+00
        -11   -1    0    0    0    0  0.00000000000E+00  0.00000000000E+00  0.45593999997E+02  0.45594000000E+02  0.51100000000E-03 0.  1.
         11   -1    0    0    0    0 -0.00000000000E+00 -0.00000000000E+00 -0.45593999997E+02  0.45594000000E+02  0.51100000000E-03 0. -1.
    9900012    2    1    2    0    0  0.22416684600E+02 -0.20036033280E+02 -0.10619353576E+02  0.59301936454E+02  0.49999986188E+02 0.  0.
        -12    1    1    2    0    0 -0.22416684600E+02  0.20036033280E+02  0.10619353576E+02  0.31886063546E+02  0.00000000000E+00 0.  1.
         11    1    3    3    0    0  0.20190396268E+02 -0.16008404530E+02 -0.37678369046E+01  0.26040693390E+02  0.51100000000E-03 0. -1.
        -11    1    3    3    0    0 -0.62864655573E+01  0.12448886135E+02 -0.39087452952E+01  0.14483532209E+02  0.51100000000E-03 0.  1.
         12    1    3    3    0    0  0.85127538891E+01 -0.16476514886E+02 -0.29427713762E+01  0.18777710855E+02  0.00000000000E+00 0. -1.
</event>
<event>
 7    1  0.5761011E-013  0.5930197E+02  0.7816164E-02  0.1266605E+00
        -11   -1    0    0    0    0  0.00000000000E+00  0.00000000000E+00  0.45593999997E+02  0.45594000000E+02  0.51100000000E-03 0.  1.
         11   -1    0    0    0    0 -0.00000000000E+00 -0.00000000000E+00 -0.45593999997E+02  0.45594000000E+02  0.51100000000E-03 0. -1.
    9900012    2    1    2    0    0  0.21983416328E+02 -0.64504679925E+01  0.22177461020E+02  0.59301970017E+02  0.50000047399E+02 0.  0.
        -12    1    1    2    0    0 -0.21983416328E+02  0.64504679925E+01 -0.22177461020E+02  0.31886029983E+02  0.00000000000E+00 0.  1.
         11    1    3    3    0    0  0.76428582033E+01  0.10284203770E+02 -0.37949613751E+01  0.13363377597E+02  0.51100000000E-03 0. -1.
        -11    1    3    3    0    0  0.23859496856E+02 -0.12603288506E+02  0.22043064570E+02  0.34842720435E+02  0.51100000000E-03 0.  1.
        -12    1    3    3    0    0 -0.95189387316E+01 -0.41313832571E+01  0.39293578250E+01  0.11095871985E+02  0.00000000000E+00 0.  1.
</event>
<event>
 7    1  0.5761011E-013  0.5930191E+02  0.7816164E-02  0.1266605E+00
        -11   -1    0    0    0    0  0.00000000000E+00  0.00000000000E+00  0.45593999997E+02  0.45594000000E+02  0.51100000000E-03 0. -1.
         11   -1    0    0    0    0 -0.00000000000E+00 -0.00000000000E+00 -0.45593999997E+02  0.45594000000E+02  0.51100000000E-03 0.  1.
    9900012    2    1    2    0    0 -0.62292004640E+01  0.10014977060E+02  0.29624647774E+02  0.59301914325E+02  0.49999945829E+02 0.  0.
        -12    1    1    2    0    0  0.62292004640E+01 -0.10014977060E+02 -0.29624647774E+02  0.31886085675E+02  0.00000000000E+00 0.  1.
         11    1    3    3    0    0 -0.14423800146E+02  0.10290775066E+02  0.48948645558E+01  0.18382213180E+02  0.51100000000E-03 0.  1.
        -11    1    3    3    0    0  0.47084337708E+01 -0.15894244864E+02  0.11835258370E+02  0.20368350677E+02  0.51100000000E-03 0. -1.
         12    1    3    3    0    0  0.34861659112E+01  0.15618446857E+02  0.12894524849E+02  0.20551350468E+02  0.00000000000E+00 0. -1.
</event>
<event>
 7    1  0.5761011E-013  0.5930195E+02  0.7816164E-02  0.1266605E+00
        -11   -1    0    0    0    0  0.00000000000E+00  0.00000000000E+00  0.45593999997E+02  0.45594000000E+02  0.51100000000E-03 0.  1.
         11   -1    0    0    0    0 -0.00000000000E+00 -0.00000000000E+00 -0.45593999997E+02  0.45594000000E+02  0.51100000000E-03 0. -1.
    9900012    2    1    2    0    0  0.29349240200E+02  0.38969309362E+01  0.11838765066E+02  0.59301947730E+02  0.50000006753E+02 0.  0.
        -12    1    1    2    0    0 -0.29349240200E+02 -0.38969309362E+01 -0.11838765066E+02  0.31886052270E+02  0.00000000000E+00 0.  1.
         11    1    3    3    0    0  0.17356544779E+02 -0.88013155461E+01  0.31811983156E+01  0.19718844413E+02  0.51100000000E-03 0. -1.
        -11    1    3    3    0    0 -0.70070185507E+00  0.21407578587E+01  0.19630411808E+02  0.19759223044E+02  0.51100000000E-03 0.  1.
        -12    1    3    3    0    0  0.12693397276E+02  0.10557488624E+02 -0.10972845057E+02  0.19823880273E+02  0.00000000000E+00 0.  1.
</event>
<event>
 7    1  0.5761011E-013  0.5930195E+02  0.7816164E-02  0.1266605E+00
        -11   -1    0    0    0    0  0.00000000000E+00  0.00000000000E+00  0.45593999997E+02  0.45594000000E+02  0.51100000000E-03 0.  1.
         11   -1    0    0    0    0 -0.00000000000E+00 -0.00000000000E+00 -0.45593999997E+02  0.45594000000E+02  0.51100000000E-03 0. -1.
    9900012    2    1    2    0    0  0.22432013272E+02  0.54000804140E+01 -0.22008277912E+02  0.59301946864E+02  0.50000005173E+02 0.  0.
        -12    1    1    2    0    0 -0.22432013272E+02 -0.54000804140E+01  0.22008277912E+02  0.31886053136E+02  0.00000000000E+00 0.  1.
         11    1    3    3    0    0  0.85997457004E+01  0.71352564640E+01  0.40441106447E+01  0.11883700690E+02  0.51100000000E-03 0. -1.
        -11    1    3    3    0    0  0.72572118787E+01  0.10878574846E+02 -0.29940594972E+02  0.32671849389E+02  0.51100000000E-03 0.  1.
        -12    1    3    3    0    0  0.65750556926E+01 -0.12613750896E+02  0.38882064154E+01  0.14746396786E+02  0.00000000000E+00 0.  1.
</event>
<event>
 7    1  0.5761011E-013  0.5930207E+02  0.7816164E-02  0.1266604E+00
        -11   -1    0    0    0    0  0.00000000000E+00  0.00000000000E+00  0.45593999997E+02  0.45594000000E+02  0.51100000000E-03 0.  1.
         11   -1    0    0    0    0 -0.00000000000E+00 -0.00000000000E+00 -0.45593999997E+02  0.45594000000E+02  0.51100000000E-03 0. -1.
    9900012    2    1    2    0    0  0.18727620391E+02  0.38088409608E+01 -0.25524130701E+02  0.59302073904E+02  0.50000236863E+02 0.  0.
        -12    1    1    2    0    0 -0.18727620391E+02 -0.38088409608E+01  0.25524130701E+02  0.31885926096E+02  0.00000000000E+00 0.  1.
         11    1    3    3    0    0  0.44574883594E+01 -0.12018243321E+02 -0.71905507428E+01  0.14697326126E+02  0.51100000000E-03 0. -1.
        -11    1    3    3    0    0  0.11121440313E+02  0.26350920768E+02 -0.17627249230E+02  0.33597282265E+02  0.51100000000E-03 0.  1.
        -12    1    3    3    0    0  0.31486917186E+01 -0.10523836486E+02 -0.70633072777E+00  0.11007465513E+02  0.00000000000E+00 0.  1.
</event>
<event>
 7    1  0.5761011E-013  0.5930193E+02  0.7816164E-02  0.1266605E+00
        -11   -1    0    0    0    0  0.00000000000E+00  0.00000000000E+00  0.45593999997E+02  0.45594000000E+02  0.51100000000E-03 0.  1.
         11   -1    0    0    0    0 -0.00000000000E+00 -0.00000000000E+00 -0.45593999997E+02  0.45594000000E+02  0.51100000000E-03 0. -1.
    9900012    2    1    2    0    0 -0.30543257519E+02  0.31422273177E+01 -0.85998344581E+01  0.59301932116E+02  0.49999978277E+02 0.  0.
        -12    1    1    2    0    0  0.30543257519E+02 -0.31422273177E+01  0.85998344581E+01  0.31886067884E+02  0.00000000000E+00 0.  1.
         11    1    3    3    0    0 -0.50323467706E+01 -0.94654375353E+00 -0.77513390927E+01  0.92899793911E+01  0.51100000000E-03 0. -1.
        -11    1    3    3    0    0 -0.32009903911E+02 -0.32775054175E+01  0.11555486750E+02  0.34189256565E+02  0.51100000000E-03 0.  1.
        -12    1    3    3    0    0  0.64989931634E+01  0.73662764888E+01 -0.12403982116E+02  0.15822696160E+02  0.00000000000E+00 0.  1.
</event>
<event>
 7    1  0.5761011E-013  0.5930194E+02  0.7816164E-02  0.1266605E+00
        -11   -1    0    0    0    0  0.00000000000E+00  0.00000000000E+00  0.45593999997E+02  0.45594000000E+02  0.51100000000E-03 0. -1.
         11   -1    0    0    0    0 -0.00000000000E+00 -0.00000000000E+00 -0.45593999997E+02  0.45594000000E+02  0.51100000000E-03 0.  1.
    9900012    2    1    2    0    0  0.34941876731E+00  0.56869230548E+01  0.31372884224E+02  0.59301936401E+02  0.49999986091E+02 0.  0.
        -12    1    1    2    0    0 -0.34941876731E+00 -0.56869230548E+01 -0.31372884224E+02  0.31886063599E+02  0.00000000000E+00 0.  1.
         11    1    3    3    0    0 -0.42299655555E+01  0.33066207366E+01  0.19554845675E+02  0.20278519150E+02  0.51100000000E-03 0. -1.
        -11    1    3    3    0    0  0.15430060223E+02 -0.11162024053E+02  0.21667659566E+01  0.19166961533E+02  0.51100000000E-03 0.  1.
         12    1    3    3    0    0 -0.10850675900E+02  0.13542326371E+02  0.96512725919E+01  0.19856455718E+02  0.00000000000E+00 0. -1.
</event>
<event>
 7    1  0.5761011E-013  0.5930196E+02  0.7816164E-02  0.1266605E+00
        -11   -1    0    0    0    0  0.00000000000E+00  0.00000000000E+00  0.45593999997E+02  0.45594000000E+02  0.51100000000E-03 0.  1.
         11   -1    0    0    0    0 -0.00000000000E+00 -0.00000000000E+00 -0.45593999997E+02  0.45594000000E+02  0.51100000000E-03 0. -1.
    9900012    2    1    2    0    0 -0.81616306248E+01 -0.47327607386E+01 -0.30458308390E+02  0.59301956209E+02  0.50000022216E+02 0.  0.
        -12    1    1    2    0    0  0.81616306248E+01  0.47327607386E+01  0.30458308390E+02  0.31886043791E+02  0.00000000000E+00 0.  1.
         11    1    3    3    0    0  0.39668100701E+01  0.20717045632E+02 -0.14658178692E+02  0.25686450995E+02  0.51100000000E-03 0. -1.
        -11    1    3    3    0    0 -0.12119124842E+02 -0.16574209899E+02 -0.89233756031E+01  0.22387591499E+02  0.51100000000E-03 0.  1.
         12    1    3    3    0    0 -0.93158525795E-02 -0.88755964722E+01 -0.68767540947E+01  0.11227913715E+02  0.00000000000E+00 0. -1.
</event>
<event>
 7    1  0.5761011E-013  0.5930194E+02  0.7816164E-02  0.1266605E+00
        -11   -1    0    0    0    0  0.00000000000E+00  0.00000000000E+00  0.45593999997E+02  0.45594000000E+02  0.51100000000E-03 0. -1.
         11   -1    0    0    0    0 -0.00000000000E+00 -0.00000000000E+00 -0.45593999997E+02  0.45594000000E+02  0.51100000000E-03 0.  1.
    9900012    2    1    2    0    0 -0.24748714232E+02 -0.13108613328E+02 -0.15244226332E+02  0.59301936649E+02  0.49999986544E+02 0.  0.
        -12    1    1    2    0    0  0.24748714232E+02  0.13108613328E+02  0.15244226332E+02  0.31886063351E+02  0.00000000000E+00 0.  1.
         11    1    3    3    0    0 -0.34822726232E+01 -0.65672550836E+01 -0.23302941760E+02  0.24459806967E+02  0.51100000000E-03 0. -1.
        -11    1    3    3    0    0  0.35713584372E+01  0.37705747451E+01  0.59031861469E+01  0.78625340661E+01  0.51100000000E-03 0.  1.
         12    1    3    3    0    0 -0.24837800046E+02 -0.10311932990E+02  0.21555292812E+01  0.26979595616E+02  0.00000000000E+00 0. -1.
</event>
<event>
 7    1  0.5761011E-013  0.5930200E+02  0.7816164E-02  0.1266605E+00
        -11   -1    0    0    0    0  0.00000000000E+00  0.00000000000E+00  0.45593999997E+02  0.45594000000E+02  0.51100000000E-03 0.  1.
         11   -1    0    0    0    0 -0.00000000000E+00 -0.00000000000E+00 -0.45593999997E+02  0.45594000000E+02  0.51100000000E-03 0. -1.
    9900012    2    1    2    0    0 -0.10568055180E+02  0.14077969440E+01 -0.30050810908E+02  0.59302001212E+02  0.50000104290E+02 0.  0.
        -12    1    1    2    0    0  0.10568055180E+02 -0.14077969440E+01  0.30050810908E+02  0.31885998788E+02  0.00000000000E+00 0.  1.
         11    1    3    3    0    0 -0.13732294033E-01 -0.92903719448E+01  0.52614748047E+01  0.10676812110E+02  0.51100000000E-03 0.  1.
        -11    1    3    3    0    0 -0.10523850875E+02  0.17361079340E+02 -0.36586248160E+02  0.41841511299E+02  0.51100000000E-03 0. -1.
         12    1    3    3    0    0 -0.30472010643E-01 -0.66629104508E+01  0.12739624475E+01  0.67836778032E+01  0.00000000000E+00 0. -1.
</event>
<event>
 7    1  0.5761011E-013  0.5930195E+02  0.7816164E-02  0.1266605E+00
        -11   -1    0    0    0    0  0.00000000000E+00  0.00000000000E+00  0.45593999997E+02  0.45594000000E+02  0.51100000000E-03 0.  1.
         11   -1    0    0    0    0 -0.00000000000E+00 -0.00000000000E+00 -0.45593999997E+02  0.45594000000E+02  0.51100000000E-03 0. -1.
    9900012    2    1    2    0    0 -0.13903245081E+02  0.22539081813E+02 -0.17759784302E+02  0.59301947074E+02  0.50000005556E+02 0.  0.
        -12    1    1    2    0    0  0.13903245081E+02 -0.22539081813E+02  0.17759784302E+02  0.31886052926E+02  0.00000000000E+00 0.  1.
         11    1    3    3    0    0 -0.24494642707E+02  0.68504639414E+00 -0.19119485722E+02  0.31080726254E+02  0.51100000000E-03 0. -1.
        -11    1    3    3    0    0 -0.13406019430E+01  0.11936421237E+02  0.36126093730E+01  0.12542978604E+02  0.51100000000E-03 0.  1.
         12    1    3    3    0    0  0.11931999569E+02  0.99176141811E+01 -0.22529079523E+01  0.15678242216E+02  0.00000000000E+00 0. -1.
</event>
<event>
 7    1  0.5761011E-013  0.5930181E+02  0.7816164E-02  0.1266605E+00
        -11   -1    0    0    0    0  0.00000000000E+00  0.00000000000E+00  0.45593999997E+02  0.45594000000E+02  0.51100000000E-03 0.  1.
         11   -1    0    0    0    0 -0.00000000000E+00 -0.00000000000E+00 -0.45593999997E+02  0.45594000000E+02  0.51100000000E-03 0. -1.
    9900012    2    1    2    0    0 -0.16705790606E+02 -0.80549773406E+01 -0.25937671759E+02  0.59301813084E+02  0.49999761190E+02 0.  0.
        -12    1    1    2    0    0  0.16705790606E+02  0.80549773406E+01  0.25937671759E+02  0.31886186916E+02  0.00000000000E+00 0.  1.
         11    1    3    3    0    0  0.14045398214E+02 -0.59581445889E+01 -0.13615336507E+02  0.20448718454E+02  0.51100000000E-03 0. -1.
        -11    1    3    3    0    0 -0.24580752169E+01 -0.59975756531E+01  0.21576632874E+01  0.68314389853E+01  0.51100000000E-03 0.  1.
         12    1    3    3    0    0 -0.28293113603E+02  0.39007429014E+01 -0.14479998539E+02  0.32021655645E+02  0.00000000000E+00 0. -1.
</event>
<event>
 7    1  0.5761011E-013  0.5930201E+02  0.7816164E-02  0.1266605E+00
        -11   -1    0    0    0    0  0.00000000000E+00  0.00000000000E+00  0.45593999997E+02  0.45594000000E+02  0.51100000000E-03 0.  1.
         11   -1    0    0    0    0 -0.00000000000E+00 -0.00000000000E+00 -0.45593999997E+02  0.45594000000E+02  0.51100000000E-03 0. -1.
    9900012    2    1    2    0    0 -0.27628223867E+02 -0.97454491883E+01  0.12586653884E+02  0.59302009504E+02  0.50000119413E+02 0.  0.
        -12    1    1    2    0    0  0.27628223867E+02  0.97454491883E+01 -0.12586653884E+02  0.31885990496E+02  0.00000000000E+00 0.  1.
         11    1    3    3    0    0  0.70959244449E+00 -0.17147299737E+01 -0.44633880844E+01  0.48338032410E+01  0.51100000000E-03 0. -1.
        -11    1    3    3    0    0  0.24435916956E+01 -0.10881696280E+02  0.20526038493E+02  0.23360237815E+02  0.51100000000E-03 0.  1.
        -12    1    3    3    0    0 -0.30781408007E+02  0.28509770656E+01 -0.34759965246E+01  0.31107968448E+02  0.00000000000E+00 0.  1.
</event>
<event>
 7    1  0.5761011E-013  0.5930193E+02  0.7816164E-02  0.1266605E+00
        -11   -1    0    0    0    0  0.00000000000E+00  0.00000000000E+00  0.45593999997E+02  0.45594000000E+02  0.51100000000E-03 0. -1.
         11   -1    0    0    0    0 -0.00000000000E+00 -0.00000000000E+00 -0.45593999997E+02  0.45594000000E+02  0.51100000000E-03 0.  1.
    9900012    2    1    2    0    0 -0.23641385520E+01 -0.42654450513E+01  0.31510919567E+02  0.59301933693E+02  0.49999981152E+02 0.  0.
        -12    1    1    2    0    0  0.23641385520E+01  0.42654450513E+01 -0.31510919567E+02  0.31886066307E+02  0.00000000000E+00 0.  1.
         11    1    3    3    0    0 -0.49455698327E+01  0.91682454181E+01  0.20382692643E+02  0.22890381051E+02  0.51100000000E-03 0. -1.
        -11    1    3    3    0    0 -0.13846028763E+02 -0.42864848125E+01 -0.13250052541E+00  0.14494965374E+02  0.51100000000E-03 0.  1.
        -12    1    3    3    0    0  0.16427460043E+02 -0.91472056569E+01  0.11260727449E+02  0.21916587268E+02  0.00000000000E+00 0.  1.
</event>
<event>
 7    1  0.5761011E-013  0.5930197E+02  0.7816164E-02  0.1266605E+00
        -11   -1    0    0    0    0  0.00000000000E+00  0.00000000000E+00  0.45593999997E+02  0.45594000000E+02  0.51100000000E-03 0. -1.
         11   -1    0    0    0    0 -0.00000000000E+00 -0.00000000000E+00 -0.45593999997E+02  0.45594000000E+02  0.51100000000E-03 0.  1.
    9900012    2    1    2    0    0 -0.12369149984E+02 -0.80850954986E+00  0.29378038685E+02  0.59301973029E+02  0.50000052892E+02 0.  0.
        -12    1    1    2    0    0  0.12369149984E+02  0.80850954986E+00 -0.29378038685E+02  0.31886026971E+02  0.00000000000E+00 0.  1.
         11    1    3    3    0    0  0.12570007225E+02 -0.19290994421E+01  0.13403998378E+02  0.18476841696E+02  0.51100000000E-03 0. -1.
        -11    1    3    3    0    0 -0.11033331653E+02  0.14532001087E+02  0.74280990784E+01  0.19700003024E+02  0.51100000000E-03 0.  1.
         12    1    3    3    0    0 -0.13905825555E+02 -0.13411411195E+02  0.85459412285E+01  0.21125128310E+02  0.00000000000E+00 0. -1.
</event>
<event>
 7    1  0.5761011E-013  0.5930170E+02  0.7816164E-02  0.1266606E+00
        -11   -1    0    0    0    0  0.00000000000E+00  0.00000000000E+00  0.45593999997E+02  0.45594000000E+02  0.51100000000E-03 0. -1.
         11   -1    0    0    0    0 -0.00000000000E+00 -0.00000000000E+00 -0.45593999997E+02  0.45594000000E+02  0.51100000000E-03 0.  1.
    9900012    2    1    2    0    0  0.15262737656E+02 -0.11388184391E+02  0.25575262939E+02  0.59301702334E+02  0.49999559206E+02 0.  0.
        -12    1    1    2    0    0 -0.15262737656E+02  0.11388184391E+02 -0.25575262939E+02  0.31886297666E+02  0.00000000000E+00 0.  1.
         11    1    3    3    0    0  0.37207421183E+01  0.11871584925E+02  0.90815012186E+01  0.15402990463E+02  0.51100000000E-03 0. -1.
        -11    1    3    3    0    0  0.20195531468E+02 -0.14736215928E+02  0.21346188382E+01  0.25091276353E+02  0.51100000000E-03 0.  1.
         12    1    3    3    0    0 -0.86535359307E+01 -0.85235533883E+01  0.14359142882E+02  0.18807435518E+02  0.00000000000E+00 0. -1.
</event>
<event>
 7    1  0.5761011E-013  0.5930195E+02  0.7816164E-02  0.1266605E+00
        -11   -1    0    0    0    0  0.00000000000E+00  0.00000000000E+00  0.45593999997E+02  0.45594000000E+02  0.51100000000E-03 0.  1.
         11   -1    0    0    0    0 -0.00000000000E+00 -0.00000000000E+00 -0.45593999997E+02  0.45594000000E+02  0.51100000000E-03 0. -1.
    9900012    2    1    2    0    0 -0.14120029573E+02 -0.18332214220E+02 -0.21937975737E+02  0.59301951440E+02  0.50000013518E+02 0.  0.
        -12    1    1    2    0    0  0.14120029573E+02  0.18332214220E+02  0.21937975737E+02  0.31886048560E+02  0.00000000000E+00 0.  1.
         11    1    3    3    0    0 -0.23286579996E+02 -0.17878006672E+02  0.91759530520E+00  0.29372264330E+02  0.51100000000E-03 0. -1.
        -11    1    3    3    0    0 -0.12070411442E+00  0.46090151315E+01 -0.17453729564E+02  0.18052431025E+02  0.51100000000E-03 0.  1.
        -12    1    3    3    0    0  0.92872545374E+01 -0.50632226800E+01 -0.54018414782E+01  0.11877256085E+02  0.00000000000E+00 0.  1.
</event>
<event>
 7    1  0.5761011E-013  0.5930198E+02  0.7816164E-02  0.1266605E+00
        -11   -1    0    0    0    0  0.00000000000E+00  0.00000000000E+00  0.45593999997E+02  0.45594000000E+02  0.51100000000E-03 0.  1.
         11   -1    0    0    0    0 -0.00000000000E+00 -0.00000000000E+00 -0.45593999997E+02  0.45594000000E+02  0.51100000000E-03 0. -1.
    9900012    2    1    2    0    0 -0.11887338429E+02  0.24143246433E+02  0.17103018115E+02  0.59301978112E+02  0.50000062161E+02 0.  0.
        -12    1    1    2    0    0  0.11887338429E+02 -0.24143246433E+02 -0.17103018115E+02  0.31886021888E+02  0.00000000000E+00 0.  1.
         11    1    3    3    0    0  0.10915461408E+02  0.90629298877E+01 -0.10284543010E+02  0.17523008334E+02  0.51100000000E-03 0. -1.
        -11    1    3    3    0    0 -0.13610042164E+02  0.79972550655E+01  0.49937614444E+01  0.16556780784E+02  0.51100000000E-03 0.  1.
         12    1    3    3    0    0 -0.91927576721E+01  0.70830614797E+01  0.22393799680E+02  0.25222188994E+02  0.00000000000E+00 0. -1.
</event>
<event>
 7    1  0.5761011E-013  0.5930196E+02  0.7816164E-02  0.1266605E+00
        -11   -1    0    0    0    0  0.00000000000E+00  0.00000000000E+00  0.45593999997E+02  0.45594000000E+02  0.51100000000E-03 0.  1.
         11   -1    0    0    0    0 -0.00000000000E+00 -0.00000000000E+00 -0.45593999997E+02  0.45594000000E+02  0.51100000000E-03 0. -1.
    9900012    2    1    2    0    0 -0.90849727844E+01  0.23953517717E+02 -0.18984519467E+02  0.59301957271E+02  0.50000024153E+02 0.  0.
        -12    1    1    2    0    0  0.90849727844E+01 -0.23953517717E+02  0.18984519467E+02  0.31886042729E+02  0.00000000000E+00 0.  1.
         11    1    3    3    0    0 -0.59977761943E+01  0.13367738412E+02 -0.32507537058E+02  0.35656832660E+02  0.51100000000E-03 0. -1.
        -11    1    3    3    0    0 -0.17666750874E+01 -0.29195972535E+01  0.85276341659E+01  0.91850821289E+01  0.51100000000E-03 0.  1.
         12    1    3    3    0    0 -0.13205215027E+01  0.13505376558E+02  0.49953834246E+01  0.14460042482E+02  0.00000000000E+00 0. -1.
</event>
<event>
 7    1  0.5761011E-013  0.5930194E+02  0.7816164E-02  0.1266605E+00
        -11   -1    0    0    0    0  0.00000000000E+00  0.00000000000E+00  0.45593999997E+02  0.45594000000E+02  0.51100000000E-03 0.  1.
         11   -1    0    0    0    0 -0.00000000000E+00 -0.00000000000E+00 -0.45593999997E+02  0.45594000000E+02  0.51100000000E-03 0. -1.
    9900012    2    1    2    0    0  0.13437189985E+02 -0.21118282894E+02 -0.19753001205E+02  0.59301937156E+02  0.49999987468E+02 0.  0.
        -12    1    1    2    0    0 -0.13437189985E+02  0.21118282894E+02  0.19753001205E+02  0.31886062844E+02  0.00000000000E+00 0.  1.
         11    1    3    3    0    0 -0.16955380299E+02 -0.98001515088E+01 -0.90184185991E+01  0.21560606786E+02  0.51100000000E-03 0. -1.
        -11    1    3    3    0    0  0.12542998530E+02 -0.12448212460E+02 -0.18420992167E+01  0.17767333378E+02  0.51100000000E-03 0.  1.
         12    1    3    3    0    0  0.17849571754E+02  0.11300810749E+01 -0.88924833888E+01  0.19973996992E+02  0.00000000000E+00 0. -1.
</event>
<event>
 7    1  0.5761011E-013  0.5930196E+02  0.7816164E-02  0.1266605E+00
        -11   -1    0    0    0    0  0.00000000000E+00  0.00000000000E+00  0.45593999997E+02  0.45594000000E+02  0.51100000000E-03 0.  1.
         11   -1    0    0    0    0 -0.00000000000E+00 -0.00000000000E+00 -0.45593999997E+02  0.45594000000E+02  0.51100000000E-03 0. -1.
    9900012    2    1    2    0    0  0.24358675966E+02  0.20039826667E+02 -0.46668984060E+01  0.59301957782E+02  0.50000025084E+02 0.  0.
        -12    1    1    2    0    0 -0.24358675966E+02 -0.20039826667E+02  0.46668984060E+01  0.31886042218E+02  0.00000000000E+00 0.  1.
         11    1    3    3    0    0 -0.20420860334E+01  0.81390219677E+01 -0.59600422302E+01  0.10292516583E+02  0.51100000000E-03 0. -1.
        -11    1    3    3    0    0  0.32568018393E+02  0.18479943584E+02 -0.53267220437E+01  0.37822719427E+02  0.51100000000E-03 0.  1.
        -12    1    3    3    0    0 -0.61672563936E+01 -0.65791388845E+01  0.66198658679E+01  0.11186721772E+02  0.00000000000E+00 0.  1.
</event>
<event>
 7    1  0.5761011E-013  0.5930194E+02  0.7816164E-02  0.1266605E+00
        -11   -1    0    0    0    0  0.00000000000E+00  0.00000000000E+00  0.45593999997E+02  0.45594000000E+02  0.51100000000E-03 0. -1.
         11   -1    0    0    0    0 -0.00000000000E+00 -0.00000000000E+00 -0.45593999997E+02  0.45594000000E+02  0.51100000000E-03 0.  1.
    9900012    2    1    2    0    0  0.18397401455E+02  0.22785434289E+02 -0.12612697411E+02  0.59301944552E+02  0.50000000956E+02 0.  0.
        -12    1    1    2    0    0 -0.18397401455E+02 -0.22785434289E+02  0.12612697411E+02  0.31886055448E+02  0.00000000000E+00 0.  1.
         11    1    3    3    0    0 -0.93164479384E+01  0.25578547273E+01  0.15355521590E+01  0.97824712465E+01  0.51100000000E-03 0.  1.
        -11    1    3    3    0    0  0.33253997575E+02  0.20069584116E+02 -0.17960576568E+02  0.42792509534E+02  0.51100000000E-03 0. -1.
         12    1    3    3    0    0 -0.55401481820E+01  0.15799544576E+00  0.38123269981E+01  0.67269637713E+01  0.00000000000E+00 0. -1.
</event>
<event>
 7    1  0.5761011E-013  0.5930202E+02  0.7816164E-02  0.1266605E+00
        -11   -1    0    0    0    0  0.00000000000E+00  0.00000000000E+00  0.45593999997E+02  0.45594000000E+02  0.51100000000E-03 0.  1.
         11   -1    0    0    0    0 -0.00000000000E+00 -0.00000000000E+00 -0.45593999997E+02  0.45594000000E+02  0.51100000000E-03 0. -1.
    9900012    2    1    2    0    0 -0.31220088026E+02  0.57331748678E+01 -0.30253327508E+01  0.59302018305E+02  0.50000135464E+02 0.  0.
        -12    1    1    2    0    0  0.31220088026E+02 -0.57331748678E+01  0.30253327508E+01  0.31885981695E+02  0.00000000000E+00 0.  1.
         11    1    3    3    0    0 -0.33621033918E+02 -0.73581586603E+01  0.72085723444E+01  0.35163616653E+02  0.51100000000E-03 0. -1.
        -11    1    3    3    0    0 -0.47442088889E+01  0.10426421430E+02 -0.11698684705E+02  0.16373057317E+02  0.51100000000E-03 0.  1.
         12    1    3    3    0    0  0.71451547813E+01  0.26649120980E+01  0.14647796099E+01  0.77653443352E+01  0.00000000000E+00 0. -1.
</event>
<event>
 7    1  0.5761011E-013  0.5930192E+02  0.7816164E-02  0.1266605E+00
        -11   -1    0    0    0    0  0.00000000000E+00  0.00000000000E+00  0.45593999997E+02  0.45594000000E+02  0.51100000000E-03 0. -1.
         11   -1    0    0    0    0 -0.00000000000E+00 -0.00000000000E+00 -0.45593999997E+02  0.45594000000E+02  0.51100000000E-03 0.  1.
    9900012    2    1    2    0    0 -0.23527807994E+02 -0.18960656680E+02  0.10181234552E+02  0.59301924861E+02  0.49999965045E+02 0.  0.
        -12    1    1    2    0    0  0.23527807994E+02  0.18960656680E+02 -0.10181234552E+02  0.31886075139E+02  0.00000000000E+00 0.  1.
         11    1    3    3    0    0 -0.15827331848E+02 -0.12607688754E+02  0.45915080039E+01  0.20749462526E+02  0.51100000000E-03 0. -1.
        -11    1    3    3    0    0  0.97323331212E+01  0.20119585705E+01  0.14243951572E+02  0.17368259611E+02  0.51100000000E-03 0.  1.
        -12    1    3    3    0    0 -0.17432809267E+02 -0.83649264970E+01 -0.86542250239E+01  0.21184202723E+02  0.00000000000E+00 0.  1.
</event>
<event>
 7    1  0.5761011E-013  0.5930172E+02  0.7816164E-02  0.1266606E+00
        -11   -1    0    0    0    0  0.00000000000E+00  0.00000000000E+00  0.45593999997E+02  0.45594000000E+02  0.51100000000E-03 0. -1.
         11   -1    0    0    0    0 -0.00000000000E+00 -0.00000000000E+00 -0.45593999997E+02  0.45594000000E+02  0.51100000000E-03 0.  1.
    9900012    2    1    2    0    0 -0.20949571319E+02  0.14020310320E+02  0.19526431489E+02  0.59301715071E+02  0.49999582436E+02 0.  0.
        -12    1    1    2    0    0  0.20949571319E+02 -0.14020310320E+02 -0.19526431489E+02  0.31886284929E+02  0.00000000000E+00 0.  1.
         11    1    3    3    0    0 -0.65308071938E+01  0.26777891507E+02  0.61202383252E+01  0.28234097003E+02  0.51100000000E-03 0. -1.
        -11    1    3    3    0    0 -0.35611718195E+01 -0.16062013768E+02  0.98448542726E+01  0.19172672921E+02  0.51100000000E-03 0.  1.
        -12    1    3    3    0    0 -0.10857592305E+02  0.33044325808E+01  0.35613388908E+01  0.11894945147E+02  0.00000000000E+00 0.  1.
</event>
<event>
 7    1  0.5761011E-013  0.5930188E+02  0.7816164E-02  0.1266605E+00
        -11   -1    0    0    0    0  0.00000000000E+00  0.00000000000E+00  0.45593999997E+02  0.45594000000E+02  0.51100000000E-03 0.  1.
         11   -1    0    0    0    0 -0.00000000000E+00 -0.00000000000E+00 -0.45593999997E+02  0.45594000000E+02  0.51100000000E-03 0. -1.
    9900012    2    1    2    0    0  0.27426346346E+02 -0.12283724474E+02 -0.10659739380E+02  0.59301883829E+02  0.49999890212E+02 0.  0.
        -12    1    1    2    0    0 -0.27426346346E+02  0.12283724474E+02  0.10659739380E+02  0.31886116171E+02  0.00000000000E+00 0.  1.
         11    1    3    3    0    0 -0.45000599748E+01 -0.27686989699E+01 -0.48935956640E+00  0.53061951349E+01  0.51100000000E-03 0. -1.
        -11    1    3    3    0    0  0.13441527429E+02  0.16163206660E+02 -0.71834483139E+01  0.22215441456E+02  0.51100000000E-03 0.  1.
        -12    1    3    3    0    0  0.18484878892E+02 -0.25678232164E+02 -0.29869314996E+01  0.31780247238E+02  0.00000000000E+00 0.  1.
</event>
<event>
 7    1  0.5761011E-013  0.5930194E+02  0.7816164E-02  0.1266605E+00
        -11   -1    0    0    0    0  0.00000000000E+00  0.00000000000E+00  0.45593999997E+02  0.45594000000E+02  0.51100000000E-03 0.  1.
         11   -1    0    0    0    0 -0.00000000000E+00 -0.00000000000E+00 -0.45593999997E+02  0.45594000000E+02  0.51100000000E-03 0. -1.
    9900012    2    1    2    0    0  0.28424538986E+01  0.20449129702E+02 -0.24299678202E+02  0.59301940187E+02  0.49999992995E+02 0.  0.
        -12    1    1    2    0    0 -0.28424538986E+01 -0.20449129702E+02  0.24299678202E+02  0.31886059813E+02  0.00000000000E+00 0.  1.
         11    1    3    3    0    0 -0.22570056825E+02  0.12242268238E+02 -0.17302269764E+02  0.30962059621E+02  0.51100000000E-03 0.  1.
        -11    1    3    3    0    0  0.14434198673E+02  0.46346276388E+01 -0.72230344666E+01  0.16792798809E+02  0.51100000000E-03 0. -1.
        -12    1    3    3    0    0  0.10978312051E+02  0.35722338248E+01  0.22562602927E+00  0.11547081757E+02  0.00000000000E+00 0.  1.
</event>
<event>
 7    1  0.5761011E-013  0.5930193E+02  0.7816164E-02  0.1266605E+00
        -11   -1    0    0    0    0  0.00000000000E+00  0.00000000000E+00  0.45593999997E+02  0.45594000000E+02  0.51100000000E-03 0.  1.
         11   -1    0    0    0    0 -0.00000000000E+00 -0.00000000000E+00 -0.45593999997E+02  0.45594000000E+02  0.51100000000E-03 0. -1.
    9900012    2    1    2    0    0  0.13080969644E+02 -0.93215809229E+01 -0.27544832636E+02  0.59301930272E+02  0.49999974913E+02 0.  0.
        -12    1    1    2    0    0 -0.13080969644E+02  0.93215809229E+01  0.27544832636E+02  0.31886069728E+02  0.00000000000E+00 0.  1.
         11    1    3    3    0    0  0.57428641775E+01 -0.23700674807E+02 -0.11009439789E+02  0.26756499023E+02  0.51100000000E-03 0. -1.
        -11    1    3    3    0    0  0.15347164978E+02  0.68237357318E+01 -0.79438852732E+01  0.18579670495E+02  0.51100000000E-03 0.  1.
         12    1    3    3    0    0 -0.80090595111E+01  0.75553581520E+01 -0.85915075737E+01  0.13965760754E+02  0.00000000000E+00 0. -1.
</event>
<event>
 7    1  0.5761011E-013  0.5930195E+02  0.7816164E-02  0.1266605E+00
        -11   -1    0    0    0    0  0.00000000000E+00  0.00000000000E+00  0.45593999997E+02  0.45594000000E+02  0.51100000000E-03 0.  1.
         11   -1    0    0    0    0 -0.00000000000E+00 -0.00000000000E+00 -0.45593999997E+02  0.45594000000E+02  0.51100000000E-03 0. -1.
    9900012    2    1    2    0    0  0.14956672345E+02  0.28158041652E+02  0.37761663093E+00  0.59301953653E+02  0.50000017555E+02 0.  0.
        -12    1    1    2    0    0 -0.14956672345E+02 -0.28158041652E+02 -0.37761663093E+00  0.31886046347E+02  0.00000000000E+00 0.  1.
         11    1    3    3    0    0  0.74822179814E+01  0.18461334091E+02 -0.23805560813E+02  0.31040444072E+02  0.51100000000E-03 0. -1.
        -11    1    3    3    0    0  0.40833069086E+01  0.52163857505E+00  0.11695847316E+02  0.12399126857E+02  0.51100000000E-03 0.  1.
         12    1    3    3    0    0  0.33911474551E+01  0.91750689858E+01  0.12487330127E+02  0.15862382724E+02  0.00000000000E+00 0. -1.
</event>
<event>
 7    1  0.5761011E-013  0.5930195E+02  0.7816164E-02  0.1266605E+00
        -11   -1    0    0    0    0  0.00000000000E+00  0.00000000000E+00  0.45593999997E+02  0.45594000000E+02  0.51100000000E-03 0.  1.
         11   -1    0    0    0    0 -0.00000000000E+00 -0.00000000000E+00 -0.45593999997E+02  0.45594000000E+02  0.51100000000E-03 0. -1.
    9900012    2    1    2    0    0 -0.29493894925E+02 -0.11116678122E+02 -0.48218139039E+01  0.59301948823E+02  0.50000008746E+02 0.  0.
        -12    1    1    2    0    0  0.29493894925E+02  0.11116678122E+02  0.48218139039E+01  0.31886051177E+02  0.00000000000E+00 0.  1.
         11    1    3    3    0    0  0.13421486446E+01 -0.15847081507E+02 -0.82086843037E+01  0.17897314143E+02  0.51100000000E-03 0. -1.
        -11    1    3    3    0    0 -0.31286719393E+02 -0.48238410926E+01  0.17862520336E+01  0.31706765049E+02  0.51100000000E-03 0.  1.
         12    1    3    3    0    0  0.45067582313E+00  0.95542444775E+01  0.16006183662E+01  0.96978696314E+01  0.00000000000E+00 0. -1.
</event>
<event>
 7    1  0.5761011E-013  0.5930195E+02  0.7816164E-02  0.1266605E+00
        -11   -1    0    0    0    0  0.00000000000E+00  0.00000000000E+00  0.45593999997E+02  0.45594000000E+02  0.51100000000E-03 0. -1.
         11   -1    0    0    0    0 -0.00000000000E+00 -0.00000000000E+00 -0.45593999997E+02  0.45594000000E+02  0.51100000000E-03 0.  1.
    9900012    2    1    2    0    0 -0.84423941332E+01  0.24237395351E+02  0.18920751876E+02  0.59301949702E+02  0.50000010348E+02 0.  0.
        -12    1    1    2    0    0  0.84423941332E+01 -0.24237395351E+02 -0.18920751876E+02  0.31886050298E+02  0.00000000000E+00 0.  1.
         11    1    3    3    0    0  0.76773310084E+00  0.39253944622E+01  0.32345183784E+02  0.32591548753E+02  0.51100000000E-03 0. -1.
        -11    1    3    3    0    0 -0.44606789289E+00  0.53813013270E+01 -0.53709936187E+01  0.76160982957E+01  0.51100000000E-03 0.  1.
         12    1    3    3    0    0 -0.87640593411E+01  0.14930699561E+02 -0.80534382899E+01  0.19094302653E+02  0.00000000000E+00 0. -1.
</event>
<event>
 7    1  0.5761011E-013  0.5930214E+02  0.7816164E-02  0.1266604E+00
        -11   -1    0    0    0    0  0.00000000000E+00  0.00000000000E+00  0.45593999997E+02  0.45594000000E+02  0.51100000000E-03 0. -1.
         11   -1    0    0    0    0 -0.00000000000E+00 -0.00000000000E+00 -0.45593999997E+02  0.45594000000E+02  0.51100000000E-03 0.  1.
    9900012    2    1    2    0    0 -0.11207883951E+02  0.19591277139E+02  0.22522721181E+02  0.59302144641E+02  0.50000365869E+02 0.  0.
        -12    1    1    2    0    0  0.11207883951E+02 -0.19591277139E+02 -0.22522721181E+02  0.31885855359E+02  0.00000000000E+00 0.  1.
         11    1    3    3    0    0 -0.30008667165E+02  0.11347981367E+02  0.75064205524E+01  0.32949099167E+02  0.51100000000E-03 0. -1.
        -11    1    3    3    0    0  0.93480959255E+01  0.13104231525E+01  0.95180309234E+01  0.13405111681E+02  0.51100000000E-03 0.  1.
         12    1    3    3    0    0  0.94526872890E+01  0.69328726199E+01  0.54982697054E+01  0.12947933793E+02  0.00000000000E+00 0. -1.
</event>
<event>
 7    1  0.5761011E-013  0.5930186E+02  0.7816164E-02  0.1266605E+00
        -11   -1    0    0    0    0  0.00000000000E+00  0.00000000000E+00  0.45593999997E+02  0.45594000000E+02  0.51100000000E-03 0.  1.
         11   -1    0    0    0    0 -0.00000000000E+00 -0.00000000000E+00 -0.45593999997E+02  0.45594000000E+02  0.51100000000E-03 0. -1.
    9900012    2    1    2    0    0  0.11253873882E+02 -0.31456630326E+01 -0.29667845594E+02  0.59301859822E+02  0.49999846428E+02 0.  0.
        -12    1    1    2    0    0 -0.11253873882E+02  0.31456630326E+01  0.29667845594E+02  0.31886140178E+02  0.00000000000E+00 0.  1.
         11    1    3    3    0    0  0.62160239374E+01 -0.11817873088E+02 -0.31212759041E+02  0.33949041299E+02  0.51100000000E-03 0. -1.
        -11    1    3    3    0    0  0.14253839681E+02  0.38121665312E+01 -0.36954242005E+00  0.14759441764E+02  0.51100000000E-03 0.  1.
         12    1    3    3    0    0 -0.92159897370E+01  0.48600435243E+01  0.19144558666E+01  0.10593376759E+02  0.00000000000E+00 0. -1.
</event>
<event>
 7    1  0.5761011E-013  0.5930194E+02  0.7816164E-02  0.1266605E+00
        -11   -1    0    0    0    0  0.00000000000E+00  0.00000000000E+00  0.45593999997E+02  0.45594000000E+02  0.51100000000E-03 0.  1.
         11   -1    0    0    0    0 -0.00000000000E+00 -0.00000000000E+00 -0.45593999997E+02  0.45594000000E+02  0.51100000000E-03 0. -1.
    9900012    2    1    2    0    0  0.19362896092E+02 -0.15413489610E+02 -0.20105315541E+02  0.59301935332E+02  0.49999984141E+02 0.  0.
        -12    1    1    2    0    0 -0.19362896092E+02  0.15413489610E+02  0.20105315541E+02  0.31886064668E+02  0.00000000000E+00 0.  1.
         11    1    3    3    0    0  0.12573595980E+02 -0.10314884397E+02 -0.13396726633E+02  0.21070463705E+02  0.51100000000E-03 0. -1.
        -11    1    3    3    0    0  0.34478485774E+01  0.12967498791E+02 -0.13125820371E+02  0.18770478027E+02  0.51100000000E-03 0.  1.
        -12    1    3    3    0    0  0.33414515346E+01 -0.18066104004E+02  0.64172314633E+01  0.19460993600E+02  0.00000000000E+00 0.  1.
</event>
<event>
 7    1  0.5761011E-013  0.5930196E+02  0.7816164E-02  0.1266605E+00
        -11   -1    0    0    0    0  0.00000000000E+00  0.00000000000E+00  0.45593999997E+02  0.45594000000E+02  0.51100000000E-03 0.  1.
         11   -1    0    0    0    0 -0.00000000000E+00 -0.00000000000E+00 -0.45593999997E+02  0.45594000000E+02  0.51100000000E-03 0. -1.
    9900012    2    1    2    0    0  0.17504557122E+02 -0.24927320616E+02 -0.94307359241E+01  0.59301958960E+02  0.50000027233E+02 0.  0.
        -12    1    1    2    0    0 -0.17504557122E+02  0.24927320616E+02  0.94307359241E+01  0.31886041040E+02  0.00000000000E+00 0.  1.
         11    1    3    3    0    0 -0.11893849227E+02 -0.48220321887E+01 -0.13781197859E+02  0.18831809752E+02  0.51100000000E-03 0. -1.
        -11    1    3    3    0    0  0.68848587621E+01  0.27384754465E+01  0.39450367653E+01  0.83942744347E+01  0.51100000000E-03 0.  1.
         12    1    3    3    0    0  0.22513547587E+02 -0.22843763874E+02  0.40542516922E+00  0.32075874773E+02  0.00000000000E+00 0. -1.
</event>
<event>
 7    1  0.5761011E-013  0.5930196E+02  0.7816164E-02  0.1266605E+00
        -11   -1    0    0    0    0  0.00000000000E+00  0.00000000000E+00  0.45593999997E+02  0.45594000000E+02  0.51100000000E-03 0.  1.
         11   -1    0    0    0    0 -0.00000000000E+00 -0.00000000000E+00 -0.45593999997E+02  0.45594000000E+02  0.51100000000E-03 0. -1.
    9900012    2    1    2    0    0  0.18845354533E+02 -0.21513268307E+02 -0.14097921643E+02  0.59301960808E+02  0.50000030603E+02 0.  0.
        -12    1    1    2    0    0 -0.18845354533E+02  0.21513268307E+02  0.14097921643E+02  0.31886039192E+02  0.00000000000E+00 0.  1.
         11    1    3    3    0    0  0.19891215401E+02 -0.72062243371E+01 -0.20247332462E+02  0.29283862303E+02  0.51100000000E-03 0. -1.
        -11    1    3    3    0    0 -0.70042279187E+01  0.32087303208E+01 -0.42453820337E+01  0.87965008885E+01  0.51100000000E-03 0.  1.
         12    1    3    3    0    0  0.59583670514E+01 -0.17515774290E+02  0.10394792853E+02  0.21221597616E+02  0.00000000000E+00 0. -1.
</event>
<event>
 7    1  0.5761011E-013  0.5930192E+02  0.7816164E-02  0.1266605E+00
        -11   -1    0    0    0    0  0.00000000000E+00  0.00000000000E+00  0.45593999997E+02  0.45594000000E+02  0.51100000000E-03 0.  1.
         11   -1    0    0    0    0 -0.00000000000E+00 -0.00000000000E+00 -0.45593999997E+02  0.45594000000E+02  0.51100000000E-03 0. -1.
    9900012    2    1    2    0    0  0.83773340092E+00 -0.27107053775E+02 -0.16769844633E+02  0.59301923875E+02  0.49999963247E+02 0.  0.
        -12    1    1    2    0    0 -0.83773340092E+00  0.27107053775E+02  0.16769844633E+02  0.31886076125E+02  0.00000000000E+00 0.  1.
         11    1    3    3    0    0  0.24489096800E+01 -0.35109716433E+02 -0.26415268491E+02  0.44005178745E+02  0.51100000000E-03 0. -1.
        -11    1    3    3    0    0 -0.48386693987E+01  0.54773316548E+01  0.40329595360E+01  0.83473736280E+01  0.51100000000E-03 0.  1.
         12    1    3    3    0    0  0.32274931196E+01  0.25253310030E+01  0.56124643226E+01  0.69493715028E+01  0.00000000000E+00 0. -1.
</event>
<event>
 7    1  0.5761011E-013  0.5930220E+02  0.7816164E-02  0.1266604E+00
        -11   -1    0    0    0    0  0.00000000000E+00  0.00000000000E+00  0.45593999997E+02  0.45594000000E+02  0.51100000000E-03 0.  1.
         11   -1    0    0    0    0 -0.00000000000E+00 -0.00000000000E+00 -0.45593999997E+02  0.45594000000E+02  0.51100000000E-03 0. -1.
    9900012    2    1    2    0    0  0.21948413227E+02 -0.14692958695E+02 -0.17863046254E+02  0.59302199087E+02  0.50000465165E+02 0.  0.
        -12    1    1    2    0    0 -0.21948413227E+02  0.14692958695E+02  0.17863046254E+02  0.31885800913E+02  0.00000000000E+00 0.  1.
         11    1    3    3    0    0  0.16409335332E+02 -0.14818911570E+02 -0.29054940797E+02  0.36511039579E+02  0.51100000000E-03 0. -1.
        -11    1    3    3    0    0  0.89509400922E+00 -0.91179934029E+01  0.31502677701E+01  0.96883014128E+01  0.51100000000E-03 0.  1.
         12    1    3    3    0    0  0.46439838858E+01  0.92439462774E+01  0.80416267734E+01  0.13102858096E+02  0.00000000000E+00 0. -1.
</event>
<event>
 7    1  0.5761011E-013  0.5930198E+02  0.7816164E-02  0.1266605E+00
        -11   -1    0    0    0    0  0.00000000000E+00  0.00000000000E+00  0.45593999997E+02  0.45594000000E+02  0.51100000000E-03 0.  1.
         11   -1    0    0    0    0 -0.00000000000E+00 -0.00000000000E+00 -0.45593999997E+02  0.45594000000E+02  0.51100000000E-03 0. -1.
    9900012    2    1    2    0    0  0.13728806131E+02  0.62589463557E+01 -0.28090283495E+02  0.59301975568E+02  0.50000057522E+02 0.  0.
        -12    1    1    2    0    0 -0.13728806131E+02 -0.62589463557E+01  0.28090283495E+02  0.31886024432E+02  0.00000000000E+00 0.  1.
         11    1    3    3    0    0  0.10065161700E+02 -0.16499671997E+02  0.16108311238E+00  0.19328026389E+02  0.51100000000E-03 0. -1.
        -11    1    3    3    0    0  0.84143461456E+01  0.15652609752E+02 -0.25327223627E+02  0.30939839528E+02  0.51100000000E-03 0.  1.
        -12    1    3    3    0    0 -0.47507017156E+01  0.71060086004E+01 -0.29241429797E+01  0.90341096509E+01  0.00000000000E+00 0.  1.
</event>
<event>
 7    1  0.5761011E-013  0.5930193E+02  0.7816164E-02  0.1266605E+00
        -11   -1    0    0    0    0  0.00000000000E+00  0.00000000000E+00  0.45593999997E+02  0.45594000000E+02  0.51100000000E-03 0.  1.
         11   -1    0    0    0    0 -0.00000000000E+00 -0.00000000000E+00 -0.45593999997E+02  0.45594000000E+02  0.51100000000E-03 0. -1.
    9900012    2    1    2    0    0 -0.17624147807E+02  0.14038356078E+02 -0.22561811153E+02  0.59301931729E+02  0.49999977569E+02 0.  0.
        -12    1    1    2    0    0  0.17624147807E+02 -0.14038356078E+02  0.22561811153E+02  0.31886068271E+02  0.00000000000E+00 0.  1.
         11    1    3    3    0    0 -0.40276548210E+01  0.13378922080E+02 -0.28380429172E+02  0.31633310285E+02  0.51100000000E-03 0. -1.
        -11    1    3    3    0    0 -0.85131172134E+01 -0.10659710454E+02  0.67595459536E+01  0.15224784183E+02  0.51100000000E-03 0.  1.
        -12    1    3    3    0    0 -0.50833757727E+01  0.11319144453E+02 -0.94092793500E+00  0.12443837261E+02  0.00000000000E+00 0.  1.
</event>
<event>
 7    1  0.5761011E-013  0.5930198E+02  0.7816164E-02  0.1266605E+00
        -11   -1    0    0    0    0  0.00000000000E+00  0.00000000000E+00  0.45593999997E+02  0.45594000000E+02  0.51100000000E-03 0.  1.
         11   -1    0    0    0    0 -0.00000000000E+00 -0.00000000000E+00 -0.45593999997E+02  0.45594000000E+02  0.51100000000E-03 0. -1.
    9900012    2    1    2    0    0  0.22710352225E+02 -0.19620576514E+02 -0.10769922507E+02  0.59301978741E+02  0.50000063308E+02 0.  0.
        -12    1    1    2    0    0 -0.22710352225E+02  0.19620576514E+02  0.10769922507E+02  0.31886021259E+02  0.00000000000E+00 0.  1.
         11    1    3    3    0    0  0.22607108502E+01 -0.10877453976E+02  0.55688953371E+01  0.12427486233E+02  0.51100000000E-03 0. -1.
        -11    1    3    3    0    0 -0.38105754802E+01 -0.12874110311E+02 -0.17713383351E+02  0.22226721571E+02  0.51100000000E-03 0.  1.
        -12    1    3    3    0    0  0.24260216855E+02  0.41309877722E+01  0.13745655065E+01  0.24647770937E+02  0.00000000000E+00 0.  1.
</event>
<event>
 7    1  0.5761011E-013  0.5930193E+02  0.7816164E-02  0.1266605E+00
        -11   -1    0    0    0    0  0.00000000000E+00  0.00000000000E+00  0.45593999997E+02  0.45594000000E+02  0.51100000000E-03 0.  1.
         11   -1    0    0    0    0 -0.00000000000E+00 -0.00000000000E+00 -0.45593999997E+02  0.45594000000E+02  0.51100000000E-03 0. -1.
    9900012    2    1    2    0    0 -0.22113632197E+02 -0.55532348716E+01 -0.22290586625E+02  0.59301930964E+02  0.49999976174E+02 0.  0.
        -12    1    1    2    0    0  0.22113632197E+02  0.55532348716E+01  0.22290586625E+02  0.31886069036E+02  0.00000000000E+00 0.  1.
         11    1    3    3    0    0 -0.24014389452E+02 -0.22828209237E+02 -0.10396016784E+02  0.34726001828E+02  0.51100000000E-03 0. -1.
        -11    1    3    3    0    0 -0.18617264716E+01  0.44193135878E+01  0.20722342092E+01  0.52240322473E+01  0.51100000000E-03 0.  1.
         12    1    3    3    0    0  0.37624837264E+01  0.12855660777E+02 -0.13966804050E+02  0.19351896889E+02  0.00000000000E+00 0. -1.
</event>
<event>
 7    1  0.5761011E-013  0.5930194E+02  0.7816164E-02  0.1266605E+00
        -11   -1    0    0    0    0  0.00000000000E+00  0.00000000000E+00  0.45593999997E+02  0.45594000000E+02  0.51100000000E-03 0. -1.
         11   -1    0    0    0    0 -0.00000000000E+00 -0.00000000000E+00 -0.45593999997E+02  0.45594000000E+02  0.51100000000E-03 0.  1.
    9900012    2    1    2    0    0 -0.21929859243E+02  0.17275618990E+02  0.15406338690E+02  0.59301937061E+02  0.49999987295E+02 0.  0.
        -12    1    1    2    0    0  0.21929859243E+02 -0.17275618990E+02 -0.15406338690E+02  0.31886062939E+02  0.00000000000E+00 0.  1.
         11    1    3    3    0    0  0.22813053582E+01 -0.60183408855E-01  0.13013778849E+02  0.13212358472E+02  0.51100000000E-03 0. -1.
        -11    1    3    3    0    0 -0.30763209212E+02  0.20173130334E+02 -0.33317688572E+01  0.36938203969E+02  0.51100000000E-03 0.  1.
        -12    1    3    3    0    0  0.65520446111E+01 -0.28373279353E+01  0.57243286980E+01  0.91513746203E+01  0.00000000000E+00 0.  1.
</event>
<event>
 7    1  0.5761011E-013  0.5930196E+02  0.7816164E-02  0.1266605E+00
        -11   -1    0    0    0    0  0.00000000000E+00  0.00000000000E+00  0.45593999997E+02  0.45594000000E+02  0.51100000000E-03 0. -1.
         11   -1    0    0    0    0 -0.00000000000E+00 -0.00000000000E+00 -0.45593999997E+02  0.45594000000E+02  0.51100000000E-03 0.  1.
    9900012    2    1    2    0    0 -0.20844155566E+02  0.84811570983E+01  0.22590052094E+02  0.59301963862E+02  0.50000036173E+02 0.  0.
        -12    1    1    2    0    0  0.20844155566E+02 -0.84811570983E+01 -0.22590052094E+02  0.31886036138E+02  0.00000000000E+00 0.  1.
         11    1    3    3    0    0 -0.20164466538E+02 -0.15429298201E+02  0.23038815878E+02  0.34284923670E+02  0.51100000000E-03 0. -1.
        -11    1    3    3    0    0  0.24648634317E-01  0.16903786547E+02 -0.36310580678E+01  0.17289395309E+02  0.51100000000E-03 0.  1.
        -12    1    3    3    0    0 -0.70433766248E+00  0.70066687517E+01  0.31822942838E+01  0.77276448837E+01  0.00000000000E+00 0.  1.
</event>
<event>
 7    1  0.5761011E-013  0.5930189E+02  0.7816164E-02  0.1266605E+00
        -11   -1    0    0    0    0  0.00000000000E+00  0.00000000000E+00  0.45593999997E+02  0.45594000000E+02  0.51100000000E-03 0. -1.
         11   -1    0    0    0    0 -0.00000000000E+00 -0.00000000000E+00 -0.45593999997E+02  0.45594000000E+02  0.51100000000E-03 0.  1.
    9900012    2    1    2    0    0  0.23162682281E+02  0.17249557268E+02  0.13515440478E+02  0.59301886914E+02  0.49999895839E+02 0.  0.
        -12    1    1    2    0    0 -0.23162682281E+02 -0.17249557268E+02 -0.13515440478E+02  0.31886113086E+02  0.00000000000E+00 0.  1.
         11    1    3    3    0    0  0.18138585183E+02 -0.61934678340E+01  0.77290437870E+01  0.20666529326E+02  0.51100000000E-03 0. -1.
        -11    1    3    3    0    0 -0.48633197591E+01  0.26819210033E+02  0.13660775279E+01  0.27290805667E+02  0.51100000000E-03 0.  1.
        -12    1    3    3    0    0  0.98874168570E+01 -0.33761849310E+01  0.44203191634E+01  0.11344551921E+02  0.00000000000E+00 0.  1.
</event>
<event>
 7    1  0.5761011E-013  0.5930195E+02  0.7816164E-02  0.1266605E+00
        -11   -1    0    0    0    0  0.00000000000E+00  0.00000000000E+00  0.45593999997E+02  0.45594000000E+02  0.51100000000E-03 0. -1.
         11   -1    0    0    0    0 -0.00000000000E+00 -0.00000000000E+00 -0.45593999997E+02  0.45594000000E+02  0.51100000000E-03 0.  1.
    9900012    2    1    2    0    0  0.21546202598E+02  0.14160541644E+02  0.18760605201E+02  0.59301951428E+02  0.50000013496E+02 0.  0.
        -12    1    1    2    0    0 -0.21546202598E+02 -0.14160541644E+02 -0.18760605201E+02  0.31886048572E+02  0.00000000000E+00 0.  1.
         11    1    3    3    0    0 -0.45163388885E+01  0.83644985247E+01  0.72132599089E+01  0.11932865176E+02  0.51100000000E-03 0. -1.
        -11    1    3    3    0    0  0.27083213571E+02 -0.22261089660E+01 -0.61940689053E+01  0.27871535809E+02  0.51100000000E-03 0.  1.
        -12    1    3    3    0    0 -0.10206720847E+01  0.80221520853E+01  0.17741414197E+02  0.19497550443E+02  0.00000000000E+00 0.  1.
</event>
<event>
 7    1  0.5761011E-013  0.5930197E+02  0.7816164E-02  0.1266605E+00
        -11   -1    0    0    0    0  0.00000000000E+00  0.00000000000E+00  0.45593999997E+02  0.45594000000E+02  0.51100000000E-03 0.  1.
         11   -1    0    0    0    0 -0.00000000000E+00 -0.00000000000E+00 -0.45593999997E+02  0.45594000000E+02  0.51100000000E-03 0. -1.
    9900012    2    1    2    0    0 -0.32700669082E+01  0.18528484258E+02 -0.25743359742E+02  0.59301974264E+02  0.50000055143E+02 0.  0.
        -12    1    1    2    0    0  0.32700669082E+01 -0.18528484258E+02  0.25743359742E+02  0.31886025736E+02  0.00000000000E+00 0.  1.
         11    1    3    3    0    0  0.16562831324E+02 -0.12741516936E+01 -0.18673947774E+02  0.24993342508E+02  0.51100000000E-03 0. -1.
        -11    1    3    3    0    0 -0.16214562987E+02  0.22636329287E+02 -0.27133507829E+01  0.27976378057E+02  0.51100000000E-03 0.  1.
        -12    1    3    3    0    0 -0.36183352445E+01 -0.28336933355E+01 -0.43560611847E+01  0.63322536988E+01  0.00000000000E+00 0.  1.
</event>
<event>
 7    1  0.5761011E-013  0.5930195E+02  0.7816164E-02  0.1266605E+00
        -11   -1    0    0    0    0  0.00000000000E+00  0.00000000000E+00  0.45593999997E+02  0.45594000000E+02  0.51100000000E-03 0.  1.
         11   -1    0    0    0    0 -0.00000000000E+00 -0.00000000000E+00 -0.45593999997E+02  0.45594000000E+02  0.51100000000E-03 0. -1.
    9900012    2    1    2    0    0 -0.83395477974E+01  0.22970716266E+02 -0.20482140979E+02  0.59301953486E+02  0.50000017249E+02 0.  0.
        -12    1    1    2    0    0  0.83395477974E+01 -0.22970716266E+02  0.20482140979E+02  0.31886046514E+02  0.00000000000E+00 0.  1.
         11    1    3    3    0    0 -0.29709640028E+01  0.23219350864E+02 -0.21182585789E+01  0.23504295380E+02  0.51100000000E-03 0. -1.
        -11    1    3    3    0    0 -0.16401327318E+02 -0.68905879631E+01 -0.11757143382E+02  0.21324027786E+02  0.51100000000E-03 0.  1.
        -12    1    3    3    0    0  0.11032743523E+02  0.66419533652E+01 -0.66067390179E+01  0.14473630319E+02  0.00000000000E+00 0.  1.
</event>
<event>
 7    1  0.5761011E-013  0.5930194E+02  0.7816164E-02  0.1266605E+00
        -11   -1    0    0    0    0  0.00000000000E+00  0.00000000000E+00  0.45593999997E+02  0.45594000000E+02  0.51100000000E-03 0.  1.
         11   -1    0    0    0    0 -0.00000000000E+00 -0.00000000000E+00 -0.45593999997E+02  0.45594000000E+02  0.51100000000E-03 0. -1.
    9900012    2    1    2    0    0 -0.14106405476E+02  0.23030869563E+02 -0.16950193218E+02  0.59301942257E+02  0.49999996770E+02 0.  0.
        -12    1    1    2    0    0  0.14106405476E+02 -0.23030869563E+02  0.16950193218E+02  0.31886057743E+02  0.00000000000E+00 0.  1.
         11    1    3    3    0    0  0.81287522329E+01  0.16263911480E+02 -0.18056801757E+00  0.18183069999E+02  0.51100000000E-03 0.  1.
        -11    1    3    3    0    0 -0.23416707776E+02  0.14175928043E+02 -0.60489702635E+01  0.28033715067E+02  0.51100000000E-03 0. -1.
        -12    1    3    3    0    0  0.11815500675E+01 -0.74089699605E+01 -0.10720654937E+02  0.13085157191E+02  0.00000000000E+00 0.  1.
</event>
<event>
 7    1  0.5761011E-013  0.5930194E+02  0.7816164E-02  0.1266605E+00
        -11   -1    0    0    0    0  0.00000000000E+00  0.00000000000E+00  0.45593999997E+02  0.45594000000E+02  0.51100000000E-03 0.  1.
         11   -1    0    0    0    0 -0.00000000000E+00 -0.00000000000E+00 -0.45593999997E+02  0.45594000000E+02  0.51100000000E-03 0. -1.
    9900012    2    1    2    0    0 -0.11883804818E+01  0.11687050924E+02 -0.29643232997E+02  0.59301942389E+02  0.49999997012E+02 0.  0.
        -12    1    1    2    0    0  0.11883804818E+01 -0.11687050924E+02  0.29643232997E+02  0.31886057611E+02  0.00000000000E+00 0.  1.
         11    1    3    3    0    0 -0.21807943973E+02  0.15578650405E+02 -0.19505756219E+02  0.33147477954E+02  0.51100000000E-03 0. -1.
        -11    1    3    3    0    0  0.86772920854E+01  0.10911871645E+01 -0.99034127641E+01  0.13212254615E+02  0.51100000000E-03 0.  1.
         12    1    3    3    0    0  0.11942271406E+02 -0.49827866457E+01 -0.23406401362E+00  0.12942209821E+02  0.00000000000E+00 0. -1.
</event>
<event>
 7    1  0.5761011E-013  0.5930199E+02  0.7816164E-02  0.1266605E+00
        -11   -1    0    0    0    0  0.00000000000E+00  0.00000000000E+00  0.45593999997E+02  0.45594000000E+02  0.51100000000E-03 0. -1.
         11   -1    0    0    0    0 -0.00000000000E+00 -0.00000000000E+00 -0.45593999997E+02  0.45594000000E+02  0.51100000000E-03 0.  1.
    9900012    2    1    2    0    0 -0.19377507005E+02 -0.22445355159E+02  0.11723305016E+02  0.59301990114E+02  0.50000084050E+02 0.  0.
        -12    1    1    2    0    0  0.19377507005E+02  0.22445355159E+02 -0.11723305016E+02  0.31886009886E+02  0.00000000000E+00 0.  1.
         11    1    3    3    0    0 -0.68750312187E+01  0.54373189819E+01 -0.14235061443E+02  0.16717280476E+02  0.51100000000E-03 0. -1.
        -11    1    3    3    0    0 -0.10649116311E+02 -0.16532275135E+02  0.79374205719E+01  0.21206660391E+02  0.51100000000E-03 0.  1.
         12    1    3    3    0    0 -0.18533594751E+01 -0.11350399006E+02  0.18020945887E+02  0.21378049247E+02  0.00000000000E+00 0. -1.
</event>
<event>
 7    1  0.5761011E-013  0.5930194E+02  0.7816164E-02  0.1266605E+00
        -11   -1    0    0    0    0  0.00000000000E+00  0.00000000000E+00  0.45593999997E+02  0.45594000000E+02  0.51100000000E-03 0.  1.
         11   -1    0    0    0    0 -0.00000000000E+00 -0.00000000000E+00 -0.45593999997E+02  0.45594000000E+02  0.51100000000E-03 0. -1.
    9900012    2    1    2    0    0 -0.14608835045E+02  0.22987814228E+02 -0.16579001066E+02  0.59301938144E+02  0.49999989270E+02 0.  0.
        -12    1    1    2    0    0  0.14608835045E+02 -0.22987814228E+02  0.16579001066E+02  0.31886061856E+02  0.00000000000E+00 0.  1.
         11    1    3    3    0    0  0.11467269811E+02  0.18274819422E+02 -0.36894963553E+01  0.21887889013E+02  0.51100000000E-03 0.  1.
        -11    1    3    3    0    0 -0.98820928200E+00 -0.49202626837E+01 -0.89390177983E+01  0.10251418532E+02  0.51100000000E-03 0. -1.
         12    1    3    3    0    0 -0.25087895574E+02  0.96332574889E+01 -0.39504869126E+01  0.27162630599E+02  0.00000000000E+00 0. -1.
</event>
<event>
 7    1  0.5761011E-013  0.5930194E+02  0.7816164E-02  0.1266605E+00
        -11   -1    0    0    0    0  0.00000000000E+00  0.00000000000E+00  0.45593999997E+02  0.45594000000E+02  0.51100000000E-03 0.  1.
         11   -1    0    0    0    0 -0.00000000000E+00 -0.00000000000E+00 -0.45593999997E+02  0.45594000000E+02  0.51100000000E-03 0. -1.
    9900012    2    1    2    0    0  0.65278643040E+01  0.20945057966E+01 -0.31140337412E+02  0.59301943784E+02  0.49999999555E+02 0.  0.
        -12    1    1    2    0    0 -0.65278643040E+01 -0.20945057966E+01  0.31140337412E+02  0.31886056216E+02  0.00000000000E+00 0.  1.
         11    1    3    3    0    0  0.12974064587E+02 -0.31582980861E+01 -0.23366780505E+02  0.26912963979E+02  0.51100000000E-03 0. -1.
        -11    1    3    3    0    0 -0.14862752007E+02  0.10062085815E+02 -0.12230890460E+02  0.21719614405E+02  0.51100000000E-03 0.  1.
        -12    1    3    3    0    0  0.84165517246E+01 -0.48092819321E+01  0.44573335535E+01  0.10669365400E+02  0.00000000000E+00 0.  1.
</event>
<event>
 7    1  0.5761011E-013  0.5930195E+02  0.7816164E-02  0.1266605E+00
        -11   -1    0    0    0    0  0.00000000000E+00  0.00000000000E+00  0.45593999997E+02  0.45594000000E+02  0.51100000000E-03 0.  1.
         11   -1    0    0    0    0 -0.00000000000E+00 -0.00000000000E+00 -0.45593999997E+02  0.45594000000E+02  0.51100000000E-03 0. -1.
    9900012    2    1    2    0    0  0.23544318242E+02 -0.21538583088E+01 -0.21395003642E+02  0.59301949634E+02  0.50000010225E+02 0.  0.
        -12    1    1    2    0    0 -0.23544318242E+02  0.21538583088E+01  0.21395003642E+02  0.31886050366E+02  0.00000000000E+00 0.  1.
         11    1    3    3    0    0 -0.61731329935E+01 -0.43510715632E+00  0.30274718995E+01  0.68893015289E+01  0.51100000000E-03 0. -1.
        -11    1    3    3    0    0  0.37647336740E+02 -0.44905820644E+01 -0.21003033086E+02  0.43342988937E+02  0.51100000000E-03 0.  1.
        -12    1    3    3    0    0 -0.79298855046E+01  0.27718309120E+01 -0.34194424553E+01  0.90696591681E+01  0.00000000000E+00 0.  1.
</event>
<event>
 7    1  0.5761011E-013  0.5930192E+02  0.7816164E-02  0.1266605E+00
        -11   -1    0    0    0    0  0.00000000000E+00  0.00000000000E+00  0.45593999997E+02  0.45594000000E+02  0.51100000000E-03 0.  1.
         11   -1    0    0    0    0 -0.00000000000E+00 -0.00000000000E+00 -0.45593999997E+02  0.45594000000E+02  0.51100000000E-03 0. -1.
    9900012    2    1    2    0    0 -0.18983261689E+02  0.25595071969E+02 -0.11180199267E+01  0.59301923069E+02  0.49999961777E+02 0.  0.
        -12    1    1    2    0    0  0.18983261689E+02 -0.25595071969E+02  0.11180199267E+01  0.31886076931E+02  0.00000000000E+00 0.  1.
         11    1    3    3    0    0 -0.16274428925E+02  0.22875313076E+02 -0.17171584453E+02  0.32908969872E+02  0.51100000000E-03 0. -1.
        -11    1    3    3    0    0  0.84013419024E+01 -0.84592145421E+00  0.10489771566E+02  0.13466010421E+02  0.51100000000E-03 0.  1.
         12    1    3    3    0    0 -0.11110174666E+02  0.35656803478E+01  0.55637929594E+01  0.12926942777E+02  0.00000000000E+00 0. -1.
</event>
<event>
 7    1  0.5761011E-013  0.5930192E+02  0.7816164E-02  0.1266605E+00
        -11   -1    0    0    0    0  0.00000000000E+00  0.00000000000E+00  0.45593999997E+02  0.45594000000E+02  0.51100000000E-03 0.  1.
         11   -1    0    0    0    0 -0.00000000000E+00 -0.00000000000E+00 -0.45593999997E+02  0.45594000000E+02  0.51100000000E-03 0. -1.
    9900012    2    1    2    0    0 -0.31841997168E+01 -0.71628182970E+01 -0.30907552197E+02  0.59301923468E+02  0.49999962505E+02 0.  0.
        -12    1    1    2    0    0  0.31841997168E+01  0.71628182970E+01  0.30907552197E+02  0.31886076532E+02  0.00000000000E+00 0.  1.
         11    1    3    3    0    0 -0.90974924656E+01  0.31565442856E+01 -0.21402520977E+02  0.23469044408E+02  0.51100000000E-03 0. -1.
        -11    1    3    3    0    0 -0.62764981733E+01 -0.18635452323E+02 -0.69555940370E+01  0.20857967333E+02  0.51100000000E-03 0.  1.
        -12    1    3    3    0    0  0.12189790922E+02  0.83160897406E+01 -0.25494371829E+01  0.14974911728E+02  0.00000000000E+00 0.  1.
</event>
<event>
 7    1  0.5761011E-013  0.5930197E+02  0.7816164E-02  0.1266605E+00
        -11   -1    0    0    0    0  0.00000000000E+00  0.00000000000E+00  0.45593999997E+02  0.45594000000E+02  0.51100000000E-03 0.  1.
         11   -1    0    0    0    0 -0.00000000000E+00 -0.00000000000E+00 -0.45593999997E+02  0.45594000000E+02  0.51100000000E-03 0. -1.
    9900012    2    1    2    0    0  0.25206499463E+02 -0.71579015245E+01 -0.18169093107E+02  0.59301966792E+02  0.50000041517E+02 0.  0.
        -12    1    1    2    0    0 -0.25206499463E+02  0.71579015245E+01  0.18169093107E+02  0.31886033208E+02  0.00000000000E+00 0.  1.
         11    1    3    3    0    0  0.67445959200E-01 -0.19689315990E+01 -0.22383435844E+02  0.22469967536E+02  0.51100000000E-03 0. -1.
        -11    1    3    3    0    0  0.49245349493E+01 -0.78261737864E+01  0.11878403926E+02  0.15053123287E+02  0.51100000000E-03 0.  1.
         12    1    3    3    0    0  0.20214518555E+02  0.26372038609E+01 -0.76640611880E+01  0.21778875970E+02  0.00000000000E+00 0. -1.
</event>
<event>
 7    1  0.5761011E-013  0.5930196E+02  0.7816164E-02  0.1266605E+00
        -11   -1    0    0    0    0  0.00000000000E+00  0.00000000000E+00  0.45593999997E+02  0.45594000000E+02  0.51100000000E-03 0.  1.
         11   -1    0    0    0    0 -0.00000000000E+00 -0.00000000000E+00 -0.45593999997E+02  0.45594000000E+02  0.51100000000E-03 0. -1.
    9900012    2    1    2    0    0 -0.98717657410E+01 -0.14443305543E+02 -0.26658178308E+02  0.59301963800E+02  0.50000036060E+02 0.  0.
        -12    1    1    2    0    0  0.98717657410E+01  0.14443305543E+02  0.26658178308E+02  0.31886036200E+02  0.00000000000E+00 0.  1.
         11    1    3    3    0    0  0.10211183946E+02 -0.16281589091E+00  0.70042285417E+01  0.12383618386E+02  0.51100000000E-03 0. -1.
        -11    1    3    3    0    0 -0.17392029453E+02 -0.34661353524E+01 -0.90702651051E+01  0.19918998271E+02  0.51100000000E-03 0.  1.
         12    1    3    3    0    0 -0.26909202346E+01 -0.10814354299E+02 -0.24592141744E+02  0.26999347144E+02  0.00000000000E+00 0. -1.
</event>
<event>
 7    1  0.5761011E-013  0.5930194E+02  0.7816164E-02  0.1266605E+00
        -11   -1    0    0    0    0  0.00000000000E+00  0.00000000000E+00  0.45593999997E+02  0.45594000000E+02  0.51100000000E-03 0. -1.
         11   -1    0    0    0    0 -0.00000000000E+00 -0.00000000000E+00 -0.45593999997E+02  0.45594000000E+02  0.51100000000E-03 0.  1.
    9900012    2    1    2    0    0 -0.14114257198E+01  0.16759837893E+02  0.27089417219E+02  0.59301940131E+02  0.49999992893E+02 0.  0.
        -12    1    1    2    0    0  0.14114257198E+01 -0.16759837893E+02 -0.27089417219E+02  0.31886059869E+02  0.00000000000E+00 0.  1.
         11    1    3    3    0    0 -0.19338683128E+02 -0.38471030670E+01  0.43539629432E+01  0.20192618966E+02  0.51100000000E-03 0. -1.
        -11    1    3    3    0    0  0.15168623538E+02  0.23405823296E+02  0.20024109958E+02  0.34334890186E+02  0.51100000000E-03 0.  1.
         12    1    3    3    0    0  0.27586338702E+01 -0.27988823360E+01  0.27113443178E+01  0.47744309786E+01  0.00000000000E+00 0. -1.
</event>
<event>
 7    1  0.5953152E-013  0.5930195E+02  0.7816164E-02  0.1266605E+00
        -11   -1    0    0    0    0  0.00000000000E+00  0.00000000000E+00  0.45593999997E+02  0.45594000000E+02  0.51100000000E-03 0. -1.
         11   -1    0    0    0    0 -0.00000000000E+00 -0.00000000000E+00 -0.45593999997E+02  0.45594000000E+02  0.51100000000E-03 0.  1.
    9900012    2    1    2    0    0 -0.25853303228E+02 -0.10522495298E+01  0.18633831560E+02  0.59301949829E+02  0.50000010580E+02 0.  0.
        -12    1    1    2    0    0  0.25853303228E+02  0.10522495298E+01 -0.18633831560E+02  0.31886050171E+02  0.00000000000E+00 0.  1.
         11    1    3    3    0    0 -0.14867719095E+02  0.14361215911E+01  0.19588792682E+02  0.24633966699E+02  0.51100000000E-03 0. -1.
        -11    1    3    3    0    0 -0.93721014934E+00 -0.16460383343E+02 -0.45138419043E+01  0.17093781081E+02  0.51100000000E-03 0.  1.
        -12    1    3    3    0    0 -0.10048373984E+02  0.13972012222E+02  0.35588807826E+01  0.17574202049E+02  0.00000000000E+00 0.  1.
</event>
<event>
 7    1  0.5761011E-013  0.5930200E+02  0.7816164E-02  0.1266605E+00
        -11   -1    0    0    0    0  0.00000000000E+00  0.00000000000E+00  0.45593999997E+02  0.45594000000E+02  0.51100000000E-03 0.  1.
         11   -1    0    0    0    0 -0.00000000000E+00 -0.00000000000E+00 -0.45593999997E+02  0.45594000000E+02  0.51100000000E-03 0. -1.
    9900012    2    1    2    0    0 -0.10729770165E+01 -0.70406040247E+01 -0.31080466974E+02  0.59302002885E+02  0.50000107341E+02 0.  0.
        -12    1    1    2    0    0  0.10729770165E+01  0.70406040247E+01  0.31080466974E+02  0.31885997115E+02  0.00000000000E+00 0.  1.
         11    1    3    3    0    0  0.18657849721E+02 -0.50845580765E+01 -0.14064953674E+02  0.23912151914E+02  0.51100000000E-03 0. -1.
        -11    1    3    3    0    0 -0.19957007787E+02 -0.28901998659E+01 -0.22272941465E+02  0.30045288097E+02  0.51100000000E-03 0.  1.
        -12    1    3    3    0    0  0.22618104911E+00  0.93415391773E+00  0.52574281644E+01  0.53445628739E+01  0.00000000000E+00 0.  1.
</event>
<event>
 7    1  0.5761011E-013  0.5930195E+02  0.7816164E-02  0.1266605E+00
        -11   -1    0    0    0    0  0.00000000000E+00  0.00000000000E+00  0.45593999997E+02  0.45594000000E+02  0.51100000000E-03 0. -1.
         11   -1    0    0    0    0 -0.00000000000E+00 -0.00000000000E+00 -0.45593999997E+02  0.45594000000E+02  0.51100000000E-03 0.  1.
    9900012    2    1    2    0    0  0.19775848789E+02 -0.65257749003E+01  0.24146434780E+02  0.59301949038E+02  0.50000009138E+02 0.  0.
        -12    1    1    2    0    0 -0.19775848789E+02  0.65257749003E+01 -0.24146434780E+02  0.31886050962E+02  0.00000000000E+00 0.  1.
         11    1    3    3    0    0 -0.27990048815E+01  0.57042705991E+01  0.14061901423E+02  0.15430819916E+02  0.51100000000E-03 0.  1.
        -11    1    3    3    0    0  0.25966206600E+02 -0.58925633384E+01 -0.50641047075E+01  0.27103714591E+02  0.51100000000E-03 0. -1.
         12    1    3    3    0    0 -0.33913529296E+01 -0.63374821610E+01  0.15148638064E+02  0.16767414530E+02  0.00000000000E+00 0. -1.
</event>
<event>
 7    1  0.5761011E-013  0.5930204E+02  0.7816164E-02  0.1266604E+00
        -11   -1    0    0    0    0  0.00000000000E+00  0.00000000000E+00  0.45593999997E+02  0.45594000000E+02  0.51100000000E-03 0. -1.
         11   -1    0    0    0    0 -0.00000000000E+00 -0.00000000000E+00 -0.45593999997E+02  0.45594000000E+02  0.51100000000E-03 0.  1.
    9900012    2    1    2    0    0 -0.20447033885E+02 -0.14069000812E+02  0.20017398901E+02  0.59302043259E+02  0.50000180973E+02 0.  0.
        -12    1    1    2    0    0  0.20447033885E+02  0.14069000812E+02 -0.20017398901E+02  0.31885956741E+02  0.00000000000E+00 0.  1.
         11    1    3    3    0    0 -0.28461308935E+02 -0.14433402029E+02  0.28358183949E+01  0.32037650767E+02  0.51100000000E-03 0. -1.
        -11    1    3    3    0    0  0.63259980541E+01 -0.20567817751E+01 -0.26896378979E+01  0.71751484259E+01  0.51100000000E-03 0.  1.
         12    1    3    3    0    0  0.16882769963E+01  0.24211829915E+01  0.19871218404E+02  0.20089244066E+02  0.00000000000E+00 0. -1.
</event>
<event>
 7    1  0.5761011E-013  0.5930194E+02  0.7816164E-02  0.1266605E+00
        -11   -1    0    0    0    0  0.00000000000E+00  0.00000000000E+00  0.45593999997E+02  0.45594000000E+02  0.51100000000E-03 0.  1.
         11   -1    0    0    0    0 -0.00000000000E+00 -0.00000000000E+00 -0.45593999997E+02  0.45594000000E+02  0.51100000000E-03 0. -1.
    9900012    2    1    2    0    0 -0.26137232424E+02  0.11187471638E+02 -0.14436279310E+02  0.59301943474E+02  0.49999998990E+02 0.  0.
        -12    1    1    2    0    0  0.26137232424E+02 -0.11187471638E+02  0.14436279310E+02  0.31886056526E+02  0.00000000000E+00 0.  1.
         11    1    3    3    0    0 -0.28388007347E+02  0.12148620651E+02 -0.24709653473E+02  0.39547881358E+02  0.51100000000E-03 0. -1.
        -11    1    3    3    0    0  0.92923213607E+01 -0.25706854761E+01  0.55719826232E+01  0.11135647745E+02  0.51100000000E-03 0.  1.
        -12    1    3    3    0    0 -0.70415464379E+01  0.16095364626E+01  0.47013915393E+01  0.86184143708E+01  0.00000000000E+00 0.  1.
</event>
<event>
 7    1  0.5761011E-013  0.5930196E+02  0.7816164E-02  0.1266605E+00
        -11   -1    0    0    0    0  0.00000000000E+00  0.00000000000E+00  0.45593999997E+02  0.45594000000E+02  0.51100000000E-03 0. -1.
         11   -1    0    0    0    0 -0.00000000000E+00 -0.00000000000E+00 -0.45593999997E+02  0.45594000000E+02  0.51100000000E-03 0.  1.
    9900012    2    1    2    0    0  0.61136552610E+01 -0.24236894431E+02  0.19796864059E+02  0.59301958243E+02  0.50000025925E+02 0.  0.
        -12    1    1    2    0    0 -0.61136552610E+01  0.24236894431E+02 -0.19796864059E+02  0.31886041757E+02  0.00000000000E+00 0.  1.
         11    1    3    3    0    0 -0.69349437818E+01 -0.21353226281E+01  0.13279115934E+01  0.73767470774E+01  0.51100000000E-03 0. -1.
        -11    1    3    3    0    0  0.15998609659E+02 -0.14723082274E+02 -0.88497263257E+01  0.23474290595E+02  0.51100000000E-03 0.  1.
        -12    1    3    3    0    0 -0.29500106159E+01 -0.73784895293E+01  0.27318678792E+02  0.28450920570E+02  0.00000000000E+00 0.  1.
</event>
<event>
 7    1  0.5761011E-013  0.5930195E+02  0.7816164E-02  0.1266605E+00
        -11   -1    0    0    0    0  0.00000000000E+00  0.00000000000E+00  0.45593999997E+02  0.45594000000E+02  0.51100000000E-03 0.  1.
         11   -1    0    0    0    0 -0.00000000000E+00 -0.00000000000E+00 -0.45593999997E+02  0.45594000000E+02  0.51100000000E-03 0. -1.
    9900012    2    1    2    0    0 -0.63740093083E+01 -0.26974930646E+02 -0.15762143471E+02  0.59301952193E+02  0.50000014891E+02 0.  0.
        -12    1    1    2    0    0  0.63740093083E+01  0.26974930646E+02  0.15762143471E+02  0.31886047807E+02  0.00000000000E+00 0.  1.
         11    1    3    3    0    0  0.13219096828E+01 -0.20493910032E+02 -0.79158350010E+01  0.22009276172E+02  0.51100000000E-03 0. -1.
        -11    1    3    3    0    0 -0.18044787635E+02  0.65863902743E+01 -0.88842597773E+00  0.19229773754E+02  0.51100000000E-03 0.  1.
        -12    1    3    3    0    0  0.10348868644E+02 -0.13067410888E+02 -0.69578824919E+01  0.18062902267E+02  0.00000000000E+00 0.  1.
</event>
<event>
 7    1  0.5761011E-013  0.5930190E+02  0.7816164E-02  0.1266605E+00
        -11   -1    0    0    0    0  0.00000000000E+00  0.00000000000E+00  0.45593999997E+02  0.45594000000E+02  0.51100000000E-03 0. -1.
         11   -1    0    0    0    0 -0.00000000000E+00 -0.00000000000E+00 -0.45593999997E+02  0.45594000000E+02  0.51100000000E-03 0.  1.
    9900012    2    1    2    0    0 -0.31108517775E+02 -0.40571042801E+01  0.57029333882E+01  0.59301899227E+02  0.49999918293E+02 0.  0.
        -12    1    1    2    0    0  0.31108517775E+02  0.40571042801E+01 -0.57029333882E+01  0.31886100773E+02  0.00000000000E+00 0.  1.
         11    1    3    3    0    0  0.43833879832E+01 -0.14027806582E+02  0.13786988937E+02  0.20151290577E+02  0.51100000000E-03 0. -1.
        -11    1    3    3    0    0 -0.30216408499E+01  0.42289319952E+01  0.10737377685E-01  0.51975277583E+01  0.51100000000E-03 0.  1.
         12    1    3    3    0    0 -0.32470264908E+02  0.57417703065E+01 -0.80947929266E+01  0.33953080891E+02  0.00000000000E+00 0. -1.
</event>
<event>
 7    1  0.5761011E-013  0.5930195E+02  0.7816164E-02  0.1266605E+00
        -11   -1    0    0    0    0  0.00000000000E+00  0.00000000000E+00  0.45593999997E+02  0.45594000000E+02  0.51100000000E-03 0.  1.
         11   -1    0    0    0    0 -0.00000000000E+00 -0.00000000000E+00 -0.45593999997E+02  0.45594000000E+02  0.51100000000E-03 0. -1.
    9900012    2    1    2    0    0 -0.22599021023E+02 -0.55661670928E+01 -0.21794999412E+02  0.59301953418E+02  0.50000017125E+02 0.  0.
        -12    1    1    2    0    0  0.22599021023E+02  0.55661670928E+01  0.21794999412E+02  0.31886046582E+02  0.00000000000E+00 0.  1.
         11    1    3    3    0    0  0.51301173731E+01  0.87263431136E+01 -0.12650527916E+02  0.16201945106E+02  0.51100000000E-03 0. -1.
        -11    1    3    3    0    0 -0.15225602581E+02 -0.15786690798E+02 -0.17439469604E+02  0.28020950745E+02  0.51100000000E-03 0.  1.
         12    1    3    3    0    0 -0.12503535815E+02  0.14941805917E+01  0.82949981076E+01  0.15079057567E+02  0.00000000000E+00 0. -1.
</event>
<event>
 7    1  0.5761011E-013  0.5930198E+02  0.7816164E-02  0.1266605E+00
        -11   -1    0    0    0    0  0.00000000000E+00  0.00000000000E+00  0.45593999997E+02  0.45594000000E+02  0.51100000000E-03 0. -1.
         11   -1    0    0    0    0 -0.00000000000E+00 -0.00000000000E+00 -0.45593999997E+02  0.45594000000E+02  0.51100000000E-03 0.  1.
    9900012    2    1    2    0    0 -0.41517201278E+01 -0.31032358618E+02 -0.60393948983E+01  0.59301978734E+02  0.50000063296E+02 0.  0.
        -12    1    1    2    0    0  0.41517201278E+01  0.31032358618E+02  0.60393948983E+01  0.31886021266E+02  0.00000000000E+00 0.  1.
         11    1    3    3    0    0 -0.44512879807E+00  0.77667294568E+01  0.77018417885E+01  0.10947081497E+02  0.51100000000E-03 0. -1.
        -11    1    3    3    0    0 -0.92863476545E+01 -0.35277085714E+02 -0.41514422890E+01  0.36714350091E+02  0.51100000000E-03 0.  1.
        -12    1    3    3    0    0  0.55797563248E+01 -0.35220023612E+01 -0.95897943978E+01  0.11640547146E+02  0.00000000000E+00 0.  1.
</event>
<event>
 7    1  0.5761011E-013  0.5930202E+02  0.7816164E-02  0.1266605E+00
        -11   -1    0    0    0    0  0.00000000000E+00  0.00000000000E+00  0.45593999997E+02  0.45594000000E+02  0.51100000000E-03 0.  1.
         11   -1    0    0    0    0 -0.00000000000E+00 -0.00000000000E+00 -0.45593999997E+02  0.45594000000E+02  0.51100000000E-03 0. -1.
    9900012    2    1    2    0    0  0.21886406670E+01 -0.27080371068E+02 -0.16690692745E+02  0.59302017665E+02  0.50000134296E+02 0.  0.
        -12    1    1    2    0    0 -0.21886406670E+01  0.27080371068E+02  0.16690692745E+02  0.31885982335E+02  0.00000000000E+00 0.  1.
         11    1    3    3    0    0 -0.10283439380E+02 -0.63279821448E+01 -0.19725796893E+02  0.23127895426E+02  0.51100000000E-03 0. -1.
        -11    1    3    3    0    0  0.95793820953E+01  0.83599614219E+00  0.94354937139E+01  0.13471896406E+02  0.51100000000E-03 0.  1.
        -12    1    3    3    0    0  0.28926979515E+01 -0.21588385066E+02 -0.64003895656E+01  0.22702225833E+02  0.00000000000E+00 0.  1.
</event>
<event>
 7    1  0.5761011E-013  0.5930193E+02  0.7816164E-02  0.1266605E+00
        -11   -1    0    0    0    0  0.00000000000E+00  0.00000000000E+00  0.45593999997E+02  0.45594000000E+02  0.51100000000E-03 0. -1.
         11   -1    0    0    0    0 -0.00000000000E+00 -0.00000000000E+00 -0.45593999997E+02  0.45594000000E+02  0.51100000000E-03 0.  1.
    9900012    2    1    2    0    0  0.24426938347E+01  0.19914820084E+02  0.24782146171E+02  0.59301928104E+02  0.49999970959E+02 0.  0.
        -12    1    1    2    0    0 -0.24426938347E+01 -0.19914820084E+02 -0.24782146171E+02  0.31886071896E+02  0.00000000000E+00 0.  1.
         11    1    3    3    0    0  0.43201666275E+01 -0.13666793868E+02 -0.39384255063E+01  0.14864598550E+02  0.51100000000E-03 0.  1.
        -11    1    3    3    0    0  0.56255183053E+00  0.20075902966E+02  0.18725673303E+02  0.27459227691E+02  0.51100000000E-03 0. -1.
        -12    1    3    3    0    0 -0.24400246233E+01  0.13505710985E+02  0.99948983747E+01  0.16978101864E+02  0.00000000000E+00 0.  1.
</event>
<event>
 7    1  0.5761011E-013  0.5930194E+02  0.7816164E-02  0.1266605E+00
        -11   -1    0    0    0    0  0.00000000000E+00  0.00000000000E+00  0.45593999997E+02  0.45594000000E+02  0.51100000000E-03 0. -1.
         11   -1    0    0    0    0 -0.00000000000E+00 -0.00000000000E+00 -0.45593999997E+02  0.45594000000E+02  0.51100000000E-03 0.  1.
    9900012    2    1    2    0    0  0.40632275542E+01 -0.19704609234E+02  0.24737407212E+02  0.59301940996E+02  0.49999994471E+02 0.  0.
        -12    1    1    2    0    0 -0.40632275542E+01  0.19704609234E+02 -0.24737407212E+02  0.31886059004E+02  0.00000000000E+00 0.  1.
         11    1    3    3    0    0  0.86753809028E+01 -0.11098981069E+02  0.10646409902E+02  0.17657736510E+02  0.51100000000E-03 0. -1.
        -11    1    3    3    0    0 -0.14744062630E+02  0.93017503976E+01  0.14431501709E+01  0.17492644911E+02  0.51100000000E-03 0.  1.
        -12    1    3    3    0    0  0.10131909281E+02 -0.17907378562E+02  0.12647847139E+02  0.24151559575E+02  0.00000000000E+00 0.  1.
</event>
<event>
 7    1  0.5761011E-013  0.5930191E+02  0.7816164E-02  0.1266605E+00
        -11   -1    0    0    0    0  0.00000000000E+00  0.00000000000E+00  0.45593999997E+02  0.45594000000E+02  0.51100000000E-03 0.  1.
         11   -1    0    0    0    0 -0.00000000000E+00 -0.00000000000E+00 -0.45593999997E+02  0.45594000000E+02  0.51100000000E-03 0. -1.
    9900012    2    1    2    0    0  0.50069525113E+01 -0.21387767585E+02 -0.23113122031E+02  0.59301912348E+02  0.49999942224E+02 0.  0.
        -12    1    1    2    0    0 -0.50069525113E+01  0.21387767585E+02  0.23113122031E+02  0.31886087652E+02  0.00000000000E+00 0.  1.
         11    1    3    3    0    0 -0.92355511493E+01 -0.16826449432E+02 -0.32918266980E+01  0.19474622687E+02  0.51100000000E-03 0. -1.
        -11    1    3    3    0    0  0.11649603318E+02 -0.17467814808E+02 -0.15016718372E+02  0.25813555403E+02  0.51100000000E-03 0.  1.
        -12    1    3    3    0    0  0.25929003427E+01  0.12906496655E+02 -0.48045769609E+01  0.14013734258E+02  0.00000000000E+00 0.  1.
</event>
<event>
 7    1  0.5761011E-013  0.5930194E+02  0.7816164E-02  0.1266605E+00
        -11   -1    0    0    0    0  0.00000000000E+00  0.00000000000E+00  0.45593999997E+02  0.45594000000E+02  0.51100000000E-03 0. -1.
         11   -1    0    0    0    0 -0.00000000000E+00 -0.00000000000E+00 -0.45593999997E+02  0.45594000000E+02  0.51100000000E-03 0.  1.
    9900012    2    1    2    0    0 -0.77834480360E+01  0.21040865856E+02  0.22658787754E+02  0.59301940949E+02  0.49999994386E+02 0.  0.
        -12    1    1    2    0    0  0.77834480360E+01 -0.21040865856E+02 -0.22658787754E+02  0.31886059051E+02  0.00000000000E+00 0.  1.
         11    1    3    3    0    0  0.79844430302E+01  0.66312386379E+01  0.21397941927E+01  0.10597328712E+02  0.51100000000E-03 0. -1.
        -11    1    3    3    0    0 -0.22687471480E+02  0.14384809612E+02  0.27800997584E+02  0.38659275429E+02  0.51100000000E-03 0.  1.
        -12    1    3    3    0    0  0.69195804137E+01  0.24817605988E-01 -0.72820040230E+01  0.10045336809E+02  0.00000000000E+00 0.  1.
</event>
<event>
 7    1  0.5761011E-013  0.5930194E+02  0.7816164E-02  0.1266605E+00
        -11   -1    0    0    0    0  0.00000000000E+00  0.00000000000E+00  0.45593999997E+02  0.45594000000E+02  0.51100000000E-03 0.  1.
         11   -1    0    0    0    0 -0.00000000000E+00 -0.00000000000E+00 -0.45593999997E+02  0.45594000000E+02  0.51100000000E-03 0. -1.
    9900012    2    1    2    0    0 -0.24561625829E+02  0.35849979993E+01 -0.20014877445E+02  0.59301937321E+02  0.49999987769E+02 0.  0.
        -12    1    1    2    0    0  0.24561625829E+02 -0.35849979993E+01  0.20014877445E+02  0.31886062679E+02  0.00000000000E+00 0.  1.
         11    1    3    3    0    0 -0.39953828863E+01  0.18253314574E+02 -0.20833493325E+02  0.27985371567E+02  0.51100000000E-03 0. -1.
        -11    1    3    3    0    0 -0.66345943374E+01 -0.10080563617E+02  0.84984455887E+01  0.14760053609E+02  0.51100000000E-03 0.  1.
         12    1    3    3    0    0 -0.13931648605E+02 -0.45877529578E+01 -0.76798297080E+01  0.16556512145E+02  0.00000000000E+00 0. -1.
</event>
<event>
 7    1  0.5761011E-013  0.5930200E+02  0.7816164E-02  0.1266605E+00
        -11   -1    0    0    0    0  0.00000000000E+00  0.00000000000E+00  0.45593999997E+02  0.45594000000E+02  0.51100000000E-03 0.  1.
         11   -1    0    0    0    0 -0.00000000000E+00 -0.00000000000E+00 -0.45593999997E+02  0.45594000000E+02  0.51100000000E-03 0. -1.
    9900012    2    1    2    0    0 -0.16014594323E+02 -0.21752628653E+02 -0.16943225572E+02  0.59302000291E+02  0.50000102611E+02 0.  0.
        -12    1    1    2    0    0  0.16014594323E+02  0.21752628653E+02  0.16943225572E+02  0.31885999709E+02  0.00000000000E+00 0.  1.
         11    1    3    3    0    0  0.73871433261E+01 -0.22730504971E+02  0.43489002478E+01  0.24293181685E+02  0.51100000000E-03 0.  1.
        -11    1    3    3    0    0 -0.13387742601E+02  0.44767828925E+01 -0.19769994243E+02  0.24292507274E+02  0.51100000000E-03 0. -1.
        -12    1    3    3    0    0 -0.10013995048E+02 -0.34989065738E+01 -0.15221315769E+01  0.10716311332E+02  0.00000000000E+00 0.  1.
</event>
<event>
 7    1  0.5761011E-013  0.5930195E+02  0.7816164E-02  0.1266605E+00
        -11   -1    0    0    0    0  0.00000000000E+00  0.00000000000E+00  0.45593999997E+02  0.45594000000E+02  0.51100000000E-03 0. -1.
         11   -1    0    0    0    0 -0.00000000000E+00 -0.00000000000E+00 -0.45593999997E+02  0.45594000000E+02  0.51100000000E-03 0.  1.
    9900012    2    1    2    0    0 -0.51539900441E+01  0.30584004509E+02  0.74010376675E+01  0.59301948132E+02  0.50000007486E+02 0.  0.
        -12    1    1    2    0    0  0.51539900441E+01 -0.30584004509E+02 -0.74010376675E+01  0.31886051868E+02  0.00000000000E+00 0.  1.
         11    1    3    3    0    0 -0.26043728414E+02  0.16764170780E+02  0.51445698524E+01  0.31397130615E+02  0.51100000000E-03 0. -1.
        -11    1    3    3    0    0  0.12334534870E+02  0.68283439375E+01 -0.46850721145E+01  0.14856545102E+02  0.51100000000E-03 0.  1.
         12    1    3    3    0    0  0.85552034997E+01  0.69914897912E+01  0.69415399296E+01  0.13048272415E+02  0.00000000000E+00 0. -1.
</event>
<event>
 7    1  0.5761011E-013  0.5930190E+02  0.7816164E-02  0.1266605E+00
        -11   -1    0    0    0    0  0.00000000000E+00  0.00000000000E+00  0.45593999997E+02  0.45594000000E+02  0.51100000000E-03 0. -1.
         11   -1    0    0    0    0 -0.00000000000E+00 -0.00000000000E+00 -0.45593999997E+02  0.45594000000E+02  0.51100000000E-03 0.  1.
    9900012    2    1    2    0    0  0.15292747883E+02 -0.10538483754E+02  0.25919017603E+02  0.59301901914E+02  0.49999923195E+02 0.  0.
        -12    1    1    2    0    0 -0.15292747883E+02  0.10538483754E+02 -0.25919017603E+02  0.31886098086E+02  0.00000000000E+00 0.  1.
         11    1    3    3    0    0 -0.25000760211E+01 -0.30445935415E+01  0.29827937082E+02  0.30086969950E+02  0.51100000000E-03 0. -1.
        -11    1    3    3    0    0  0.14249156060E+01 -0.44060058185E+01 -0.10363822510E+02  0.11351303407E+02  0.51100000000E-03 0.  1.
         12    1    3    3    0    0  0.16367908298E+02 -0.30878843940E+01  0.64549030314E+01  0.17863628557E+02  0.00000000000E+00 0. -1.
</event>
<event>
 7    1  0.5761011E-013  0.5930195E+02  0.7816164E-02  0.1266605E+00
        -11   -1    0    0    0    0  0.00000000000E+00  0.00000000000E+00  0.45593999997E+02  0.45594000000E+02  0.51100000000E-03 0. -1.
         11   -1    0    0    0    0 -0.00000000000E+00 -0.00000000000E+00 -0.45593999997E+02  0.45594000000E+02  0.51100000000E-03 0.  1.
    9900012    2    1    2    0    0  0.25002852805E+02 -0.51505581435E+01 -0.19106270698E+02  0.59301945406E+02  0.50000002513E+02 0.  0.
        -12    1    1    2    0    0 -0.25002852805E+02  0.51505581435E+01  0.19106270698E+02  0.31886054594E+02  0.00000000000E+00 0.  1.
         11    1    3    3    0    0  0.29024477109E+01 -0.73003326629E+01  0.73489495456E+01  0.10757607512E+02  0.51100000000E-03 0. -1.
        -11    1    3    3    0    0  0.15683817754E+02 -0.40208951575E+01 -0.33489701908E+02  0.37198250919E+02  0.51100000000E-03 0.  1.
        -12    1    3    3    0    0  0.64165873401E+01  0.61706696769E+01  0.70344816647E+01  0.11346086975E+02  0.00000000000E+00 0.  1.
</event>
<event>
 7    1  0.5761011E-013  0.5930198E+02  0.7816164E-02  0.1266605E+00
        -11   -1    0    0    0    0  0.00000000000E+00  0.00000000000E+00  0.45593999997E+02  0.45594000000E+02  0.51100000000E-03 0.  1.
         11   -1    0    0    0    0 -0.00000000000E+00 -0.00000000000E+00 -0.45593999997E+02  0.45594000000E+02  0.51100000000E-03 0. -1.
    9900012    2    1    2    0    0 -0.33524649960E+01  0.31603127953E+02 -0.25925898411E+01  0.59301980492E+02  0.50000066502E+02 0.  0.
        -12    1    1    2    0    0  0.33524649960E+01 -0.31603127953E+02  0.25925898411E+01  0.31886019508E+02  0.00000000000E+00 0.  1.
         11    1    3    3    0    0 -0.74687537710E+01  0.60258178206E+01 -0.20048297325E+02  0.22226717913E+02  0.51100000000E-03 0. -1.
        -11    1    3    3    0    0 -0.25334965832E+01  0.23760236251E+02  0.18344611573E+02  0.30124611295E+02  0.51100000000E-03 0.  1.
        -12    1    3    3    0    0  0.66497853583E+01  0.18170738817E+01 -0.88890408930E+00  0.69506512848E+01  0.00000000000E+00 0.  1.
</event>
<event>
 7    1  0.5761011E-013  0.5930180E+02  0.7816164E-02  0.1266605E+00
        -11   -1    0    0    0    0  0.00000000000E+00  0.00000000000E+00  0.45593999997E+02  0.45594000000E+02  0.51100000000E-03 0. -1.
         11   -1    0    0    0    0 -0.00000000000E+00 -0.00000000000E+00 -0.45593999997E+02  0.45594000000E+02  0.51100000000E-03 0.  1.
    9900012    2    1    2    0    0  0.11229002080E+02 -0.28795332271E+02 -0.78401747018E+01  0.59301796280E+02  0.49999730544E+02 0.  0.
        -12    1    1    2    0    0 -0.11229002080E+02  0.28795332271E+02  0.78401747018E+01  0.31886203720E+02  0.00000000000E+00 0.  1.
         11    1    3    3    0    0  0.87265609599E-01 -0.32611417460E+02  0.40144914406E+01  0.32857697817E+02  0.51100000000E-03 0. -1.
        -11    1    3    3    0    0  0.63814295925E+01  0.40485908621E+01 -0.17496357157E+02  0.19058757715E+02  0.51100000000E-03 0.  1.
         12    1    3    3    0    0  0.47603068779E+01 -0.23250567301E+00  0.56416910151E+01  0.73853407484E+01  0.00000000000E+00 0. -1.
</event>
<event>
 7    1  0.5761011E-013  0.5930195E+02  0.7816164E-02  0.1266605E+00
        -11   -1    0    0    0    0  0.00000000000E+00  0.00000000000E+00  0.45593999997E+02  0.45594000000E+02  0.51100000000E-03 0.  1.
         11   -1    0    0    0    0 -0.00000000000E+00 -0.00000000000E+00 -0.45593999997E+02  0.45594000000E+02  0.51100000000E-03 0. -1.
    9900012    2    1    2    0    0  0.26452224556E+02 -0.42195534671E+01 -0.17297259037E+02  0.59301953120E+02  0.50000016583E+02 0.  0.
        -12    1    1    2    0    0 -0.26452224556E+02  0.42195534671E+01  0.17297259037E+02  0.31886046880E+02  0.00000000000E+00 0.  1.
         11    1    3    3    0    0 -0.73494291868E+01  0.69193524896E+01 -0.12344199264E+02  0.15945871064E+02  0.51100000000E-03 0. -1.
        -11    1    3    3    0    0  0.33681736408E+02 -0.19205792900E+01 -0.51933879435E+01  0.34133843482E+02  0.51100000000E-03 0.  1.
        -12    1    3    3    0    0  0.11991733508E+00 -0.92183266667E+01  0.24032817039E+00  0.92222385748E+01  0.00000000000E+00 0.  1.
</event>
<event>
 7    1  0.5761011E-013  0.5930195E+02  0.7816164E-02  0.1266605E+00
        -11   -1    0    0    0    0  0.00000000000E+00  0.00000000000E+00  0.45593999997E+02  0.45594000000E+02  0.51100000000E-03 0. -1.
         11   -1    0    0    0    0 -0.00000000000E+00 -0.00000000000E+00 -0.45593999997E+02  0.45594000000E+02  0.51100000000E-03 0.  1.
    9900012    2    1    2    0    0  0.27349458622E+02  0.16047913106E+02  0.33454031281E+01  0.59301950949E+02  0.50000012623E+02 0.  0.
        -12    1    1    2    0    0 -0.27349458622E+02 -0.16047913106E+02 -0.33454031281E+01  0.31886049051E+02  0.00000000000E+00 0.  1.
         11    1    3    3    0    0  0.19218676751E+00  0.33336580177E+01  0.51173932370E+01  0.61104766864E+01  0.51100000000E-03 0. -1.
        -11    1    3    3    0    0  0.25197421659E+02 -0.21079217255E+01 -0.18066859975E+02  0.31076756940E+02  0.51100000000E-03 0.  1.
        -12    1    3    3    0    0  0.19598501949E+01  0.14822176814E+02  0.16294869867E+02  0.22114717323E+02  0.00000000000E+00 0.  1.
</event>
<event>
 7    1  0.5761011E-013  0.5930195E+02  0.7816164E-02  0.1266605E+00
        -11   -1    0    0    0    0  0.00000000000E+00  0.00000000000E+00  0.45593999997E+02  0.45594000000E+02  0.51100000000E-03 0. -1.
         11   -1    0    0    0    0 -0.00000000000E+00 -0.00000000000E+00 -0.45593999997E+02  0.45594000000E+02  0.51100000000E-03 0.  1.
    9900012    2    1    2    0    0 -0.24620048041E+02 -0.19742847404E+02  0.45599819161E+01  0.59301949378E+02  0.50000009758E+02 0.  0.
        -12    1    1    2    0    0  0.24620048041E+02  0.19742847404E+02 -0.45599819161E+01  0.31886050622E+02  0.00000000000E+00 0.  1.
         11    1    3    3    0    0 -0.42734805182E+01  0.19431858767E+01  0.29793253024E+01  0.55601246937E+01  0.51100000000E-03 0. -1.
        -11    1    3    3    0    0  0.37340756251E+00 -0.11958003935E+02 -0.19333695149E+02  0.22735986006E+02  0.51100000000E-03 0.  1.
        -12    1    3    3    0    0 -0.20719975085E+02 -0.97280293461E+01  0.20914351763E+02  0.31005838678E+02  0.00000000000E+00 0.  1.
</event>
<event>
 7    1  0.5761011E-013  0.5930190E+02  0.7816164E-02  0.1266605E+00
        -11   -1    0    0    0    0  0.00000000000E+00  0.00000000000E+00  0.45593999997E+02  0.45594000000E+02  0.51100000000E-03 0. -1.
         11   -1    0    0    0    0 -0.00000000000E+00 -0.00000000000E+00 -0.45593999997E+02  0.45594000000E+02  0.51100000000E-03 0.  1.
    9900012    2    1    2    0    0 -0.10116707551E+02 -0.26243120909E+02  0.15022451146E+02  0.59301902635E+02  0.49999924510E+02 0.  0.
        -12    1    1    2    0    0  0.10116707551E+02  0.26243120909E+02 -0.15022451146E+02  0.31886097365E+02  0.00000000000E+00 0.  1.
         11    1    3    3    0    0 -0.74084246338E+01 -0.30739078794E+01  0.24313613648E+02  0.25602450548E+02  0.51100000000E-03 0. -1.
        -11    1    3    3    0    0 -0.63418746963E+01 -0.26614863591E+02 -0.83349517999E+01  0.28601429342E+02  0.51100000000E-03 0.  1.
        -12    1    3    3    0    0  0.36335917789E+01  0.34456505611E+01 -0.95621070200E+00  0.50980227453E+01  0.00000000000E+00 0.  1.
</event>
<event>
 7    1  0.5761011E-013  0.5930196E+02  0.7816164E-02  0.1266605E+00
        -11   -1    0    0    0    0  0.00000000000E+00  0.00000000000E+00  0.45593999997E+02  0.45594000000E+02  0.51100000000E-03 0.  1.
         11   -1    0    0    0    0 -0.00000000000E+00 -0.00000000000E+00 -0.45593999997E+02  0.45594000000E+02  0.51100000000E-03 0. -1.
    9900012    2    1    2    0    0 -0.20050593566E+02 -0.11303691164E+01 -0.24767223652E+02  0.59301962239E+02  0.50000033212E+02 0.  0.
        -12    1    1    2    0    0  0.20050593566E+02  0.11303691164E+01  0.24767223652E+02  0.31886037761E+02  0.00000000000E+00 0.  1.
         11    1    3    3    0    0 -0.50073180647E+01 -0.68296842898E+01 -0.21794883532E+02  0.23382360235E+02  0.51100000000E-03 0. -1.
        -11    1    3    3    0    0 -0.10866123130E+01  0.11701219466E+02  0.10390639344E+02  0.15686447958E+02  0.51100000000E-03 0.  1.
        -12    1    3    3    0    0 -0.13956663189E+02 -0.60019042922E+01 -0.13362979464E+02  0.20233154046E+02  0.00000000000E+00 0.  1.
</event>
<event>
 7    1  0.5761011E-013  0.5930195E+02  0.7816164E-02  0.1266605E+00
        -11   -1    0    0    0    0  0.00000000000E+00  0.00000000000E+00  0.45593999997E+02  0.45594000000E+02  0.51100000000E-03 0. -1.
         11   -1    0    0    0    0 -0.00000000000E+00 -0.00000000000E+00 -0.45593999997E+02  0.45594000000E+02  0.51100000000E-03 0.  1.
    9900012    2    1    2    0    0 -0.10160102326E+02  0.15143172356E+02  0.26156769998E+02  0.59301953443E+02  0.50000017172E+02 0.  0.
        -12    1    1    2    0    0  0.10160102326E+02 -0.15143172356E+02 -0.26156769998E+02  0.31886046557E+02  0.00000000000E+00 0.  1.
         11    1    3    3    0    0 -0.28014208795E+02  0.67053675143E+01  0.24061880351E+02  0.37533077868E+02  0.51100000000E-03 0. -1.
        -11    1    3    3    0    0  0.67810961336E+01  0.13188622569E+01 -0.31577015833E+01  0.75956396687E+01  0.51100000000E-03 0.  1.
         12    1    3    3    0    0  0.11073010336E+02  0.71189425853E+01  0.52525912308E+01  0.14173235907E+02  0.00000000000E+00 0. -1.
</event>
<event>
 7    1  0.5761011E-013  0.5930193E+02  0.7816164E-02  0.1266605E+00
        -11   -1    0    0    0    0  0.00000000000E+00  0.00000000000E+00  0.45593999997E+02  0.45594000000E+02  0.51100000000E-03 0.  1.
         11   -1    0    0    0    0 -0.00000000000E+00 -0.00000000000E+00 -0.45593999997E+02  0.45594000000E+02  0.51100000000E-03 0. -1.
    9900012    2    1    2    0    0 -0.12191272633E+02  0.16350411450E+02 -0.24510374283E+02  0.59301928895E+02  0.49999972402E+02 0.  0.
        -12    1    1    2    0    0  0.12191272633E+02 -0.16350411450E+02  0.24510374283E+02  0.31886071105E+02  0.00000000000E+00 0.  1.
         11    1    3    3    0    0 -0.24131457308E+02  0.20519310528E+02 -0.17898072967E+02  0.36382830463E+02  0.51100000000E-03 0. -1.
        -11    1    3    3    0    0  0.14699545329E+02 -0.14341096361E+01  0.54062445981E+00  0.14779227937E+02  0.51100000000E-03 0.  1.
        -12    1    3    3    0    0 -0.27593606546E+01 -0.27347894421E+01 -0.71529257765E+01  0.81398704952E+01  0.00000000000E+00 0.  1.
</event>
<event>
 7    1  0.5761011E-013  0.5930194E+02  0.7816164E-02  0.1266605E+00
        -11   -1    0    0    0    0  0.00000000000E+00  0.00000000000E+00  0.45593999997E+02  0.45594000000E+02  0.51100000000E-03 0. -1.
         11   -1    0    0    0    0 -0.00000000000E+00 -0.00000000000E+00 -0.45593999997E+02  0.45594000000E+02  0.51100000000E-03 0.  1.
    9900012    2    1    2    0    0 -0.24255763258E+02 -0.16873141716E+02  0.11986496879E+02  0.59301936116E+02  0.49999985570E+02 0.  0.
        -12    1    1    2    0    0  0.24255763258E+02  0.16873141716E+02 -0.11986496879E+02  0.31886063884E+02  0.00000000000E+00 0.  1.
         11    1    3    3    0    0  0.13841813323E+01 -0.15556547586E+02  0.64304436062E+01  0.16890018828E+02  0.51100000000E-03 0. -1.
        -11    1    3    3    0    0 -0.32118584696E+02  0.19142827690E+01  0.10267697214E+02  0.33774155322E+02  0.51100000000E-03 0.  1.
        -12    1    3    3    0    0  0.64786401052E+01 -0.32308768991E+01 -0.47116439415E+01  0.86377619659E+01  0.00000000000E+00 0.  1.
</event>
<event>
 7    1  0.5761011E-013  0.5930190E+02  0.7816164E-02  0.1266605E+00
        -11   -1    0    0    0    0  0.00000000000E+00  0.00000000000E+00  0.45593999997E+02  0.45594000000E+02  0.51100000000E-03 0.  1.
         11   -1    0    0    0    0 -0.00000000000E+00 -0.00000000000E+00 -0.45593999997E+02  0.45594000000E+02  0.51100000000E-03 0. -1.
    9900012    2    1    2    0    0 -0.14001092035E+02 -0.19099432692E+02  0.21351920317E+02  0.59301899446E+02  0.49999918693E+02 0.  0.
        -12    1    1    2    0    0  0.14001092035E+02  0.19099432692E+02 -0.21351920317E+02  0.31886100554E+02  0.00000000000E+00 0.  1.
         11    1    3    3    0    0 -0.30739515659E+01  0.95914402790E+01  0.22508194552E+01  0.10320421180E+02  0.51100000000E-03 0. -1.
        -11    1    3    3    0    0 -0.13994008877E+02 -0.30057762665E+02  0.38655146124E+01  0.33380287362E+02  0.51100000000E-03 0.  1.
        -12    1    3    3    0    0  0.30668684079E+01  0.13668896940E+01  0.15235586249E+02  0.15601190904E+02  0.00000000000E+00 0.  1.
</event>
<event>
 7    1  0.5761011E-013  0.5930193E+02  0.7816164E-02  0.1266605E+00
        -11   -1    0    0    0    0  0.00000000000E+00  0.00000000000E+00  0.45593999997E+02  0.45594000000E+02  0.51100000000E-03 0. -1.
         11   -1    0    0    0    0 -0.00000000000E+00 -0.00000000000E+00 -0.45593999997E+02  0.45594000000E+02  0.51100000000E-03 0.  1.
    9900012    2    1    2    0    0  0.36777385929E+01 -0.18087862265E+02  0.26000485340E+02  0.59301925291E+02  0.49999965828E+02 0.  0.
        -12    1    1    2    0    0 -0.36777385929E+01  0.18087862265E+02 -0.26000485340E+02  0.31886074709E+02  0.00000000000E+00 0.  1.
         11    1    3    3    0    0 -0.15529957418E+02 -0.41681107874E+01  0.15754695800E+02  0.22511400777E+02  0.51100000000E-03 0. -1.
        -11    1    3    3    0    0  0.14025837448E+02 -0.16187241941E+01 -0.63598845728E+01  0.15485235425E+02  0.51100000000E-03 0.  1.
        -12    1    3    3    0    0  0.51818585633E+01 -0.12301027283E+02  0.16605674113E+02  0.21305289088E+02  0.00000000000E+00 0.  1.
</event>
<event>
 7    1  0.5761011E-013  0.5930193E+02  0.7816164E-02  0.1266605E+00
        -11   -1    0    0    0    0  0.00000000000E+00  0.00000000000E+00  0.45593999997E+02  0.45594000000E+02  0.51100000000E-03 0.  1.
         11   -1    0    0    0    0 -0.00000000000E+00 -0.00000000000E+00 -0.45593999997E+02  0.45594000000E+02  0.51100000000E-03 0. -1.
    9900012    2    1    2    0    0  0.24746797691E+02 -0.14184903706E+02 -0.14251519997E+02  0.59301932332E+02  0.49999978670E+02 0.  0.
        -12    1    1    2    0    0 -0.24746797691E+02  0.14184903706E+02  0.14251519997E+02  0.31886067668E+02  0.00000000000E+00 0.  1.
         11    1    3    3    0    0  0.17326901096E+02  0.63813885275E+01 -0.13204435016E+02  0.22700236242E+02  0.51100000000E-03 0. -1.
        -11    1    3    3    0    0  0.14083181942E+01 -0.18337998725E+02  0.12071896039E+02  0.21999914354E+02  0.51100000000E-03 0.  1.
        -12    1    3    3    0    0  0.60115784011E+01 -0.22282935083E+01 -0.13118981020E+02  0.14601781735E+02  0.00000000000E+00 0.  1.
</event>
<event>
 7    1  0.5761011E-013  0.5930194E+02  0.7816164E-02  0.1266605E+00
        -11   -1    0    0    0    0  0.00000000000E+00  0.00000000000E+00  0.45593999997E+02  0.45594000000E+02  0.51100000000E-03 0.  1.
         11   -1    0    0    0    0 -0.00000000000E+00 -0.00000000000E+00 -0.45593999997E+02  0.45594000000E+02  0.51100000000E-03 0. -1.
    9900012    2    1    2    0    0 -0.29920671654E+02 -0.97641519899E+01  0.51123193768E+01  0.59301936183E+02  0.49999985693E+02 0.  0.
        -12    1    1    2    0    0  0.29920671654E+02  0.97641519899E+01 -0.51123193768E+01  0.31886063817E+02  0.00000000000E+00 0.  1.
         11    1    3    3    0    0  0.13629900330E+02 -0.48498050593E+00  0.51661878393E+01  0.14584199880E+02  0.51100000000E-03 0.  1.
        -11    1    3    3    0    0 -0.28500533986E+02 -0.80487837803E+01 -0.24545672548E+00  0.29616272674E+02  0.51100000000E-03 0. -1.
         12    1    3    3    0    0 -0.15050037999E+02 -0.12303877037E+01  0.19158826296E+00  0.15101463629E+02  0.00000000000E+00 0. -1.
</event>
<event>
 7    1  0.5761011E-013  0.5930192E+02  0.7816164E-02  0.1266605E+00
        -11   -1    0    0    0    0  0.00000000000E+00  0.00000000000E+00  0.45593999997E+02  0.45594000000E+02  0.51100000000E-03 0. -1.
         11   -1    0    0    0    0 -0.00000000000E+00 -0.00000000000E+00 -0.45593999997E+02  0.45594000000E+02  0.51100000000E-03 0.  1.
    9900012    2    1    2    0    0 -0.30729574584E+02 -0.44523797824E+01  0.72520290425E+01  0.59301915808E+02  0.49999948534E+02 0.  0.
        -12    1    1    2    0    0  0.30729574584E+02  0.44523797824E+01 -0.72520290425E+01  0.31886084192E+02  0.00000000000E+00 0.  1.
         11    1    3    3    0    0 -0.12319364043E+00 -0.68422524772E+01  0.17657205661E+02  0.18936961416E+02  0.51100000000E-03 0. -1.
        -11    1    3    3    0    0 -0.17508000811E+01  0.48572334740E+01 -0.10167234751E+02  0.11403099609E+02  0.51100000000E-03 0.  1.
         12    1    3    3    0    0 -0.28855580863E+02 -0.24673607792E+01 -0.23794186723E+00  0.28961854783E+02  0.00000000000E+00 0. -1.
</event>
<event>
 7    1  0.5761011E-013  0.5930209E+02  0.7816164E-02  0.1266604E+00
        -11   -1    0    0    0    0  0.00000000000E+00  0.00000000000E+00  0.45593999997E+02  0.45594000000E+02  0.51100000000E-03 0.  1.
         11   -1    0    0    0    0 -0.00000000000E+00 -0.00000000000E+00 -0.45593999997E+02  0.45594000000E+02  0.51100000000E-03 0. -1.
    9900012    2    1    2    0    0 -0.20464955796E+02  0.23479305831E+02 -0.68278019199E+01  0.59302092500E+02  0.50000270776E+02 0.  0.
        -12    1    1    2    0    0  0.20464955796E+02 -0.23479305831E+02  0.68278019199E+01  0.31885907500E+02  0.00000000000E+00 0.  1.
         11    1    3    3    0    0 -0.22059219870E+02  0.21639647775E+02  0.31687667051E+01  0.31063235823E+02  0.51100000000E-03 0. -1.
        -11    1    3    3    0    0 -0.87781787229E+01 -0.81720765150E+01 -0.44231101745E+01  0.12782924553E+02  0.51100000000E-03 0.  1.
         12    1    3    3    0    0  0.10372442797E+02  0.10011734572E+02 -0.55734584505E+01  0.15455932123E+02  0.00000000000E+00 0. -1.
</event>
<event>
 7    1  0.5761011E-013  0.5930196E+02  0.7816164E-02  0.1266605E+00
        -11   -1    0    0    0    0  0.00000000000E+00  0.00000000000E+00  0.45593999997E+02  0.45594000000E+02  0.51100000000E-03 0.  1.
         11   -1    0    0    0    0 -0.00000000000E+00 -0.00000000000E+00 -0.45593999997E+02  0.45594000000E+02  0.51100000000E-03 0. -1.
    9900012    2    1    2    0    0  0.42308366385E+01  0.28871059717E+01 -0.31471959590E+02  0.59301959167E+02  0.50000027611E+02 0.  0.
        -12    1    1    2    0    0 -0.42308366385E+01 -0.28871059717E+01  0.31471959590E+02  0.31886040833E+02  0.00000000000E+00 0.  1.
         11    1    3    3    0    0  0.91443817494E+01 -0.16563910221E+02 -0.25068920257E+02  0.31407540536E+02  0.51100000000E-03 0. -1.
        -11    1    3    3    0    0 -0.10918275109E+02  0.83927882769E+01 -0.66846201936E+01  0.15307899066E+02  0.51100000000E-03 0.  1.
         12    1    3    3    0    0  0.60047299982E+01  0.11058227916E+02  0.28158086029E+00  0.12586519566E+02  0.00000000000E+00 0. -1.
</event>
<event>
 7    1  0.5761011E-013  0.5930203E+02  0.7816164E-02  0.1266604E+00
        -11   -1    0    0    0    0  0.00000000000E+00  0.00000000000E+00  0.45593999997E+02  0.45594000000E+02  0.51100000000E-03 0.  1.
         11   -1    0    0    0    0 -0.00000000000E+00 -0.00000000000E+00 -0.45593999997E+02  0.45594000000E+02  0.51100000000E-03 0. -1.
    9900012    2    1    2    0    0 -0.24422478996E+02 -0.20341980928E+02 -0.25419345819E+01  0.59302029734E+02  0.50000156307E+02 0.  0.
        -12    1    1    2    0    0  0.24422478996E+02  0.20341980928E+02  0.25419345819E+01  0.31885970266E+02  0.00000000000E+00 0.  1.
         11    1    3    3    0    0 -0.18361797568E+02  0.83882323641E+01 -0.16494334411E+02  0.26068776727E+02  0.51100000000E-03 0. -1.
        -11    1    3    3    0    0 -0.17643470346E+01 -0.11578813151E+02  0.19769193803E+01  0.11878133058E+02  0.51100000000E-03 0.  1.
         12    1    3    3    0    0 -0.42963343931E+01 -0.17151400142E+02  0.11975480449E+02  0.21355119949E+02  0.00000000000E+00 0. -1.
</event>
<event>
 7    1  0.5761011E-013  0.5930196E+02  0.7816164E-02  0.1266605E+00
        -11   -1    0    0    0    0  0.00000000000E+00  0.00000000000E+00  0.45593999997E+02  0.45594000000E+02  0.51100000000E-03 0.  1.
         11   -1    0    0    0    0 -0.00000000000E+00 -0.00000000000E+00 -0.45593999997E+02  0.45594000000E+02  0.51100000000E-03 0. -1.
    9900012    2    1    2    0    0 -0.14836693414E+02  0.22766789817E+02 -0.16681295181E+02  0.59301956048E+02  0.50000021921E+02 0.  0.
        -12    1    1    2    0    0  0.14836693414E+02 -0.22766789817E+02  0.16681295181E+02  0.31886043952E+02  0.00000000000E+00 0.  1.
         11    1    3    3    0    0 -0.29133135797E+02  0.17312805950E+02 -0.14812646535E+02  0.36984961118E+02  0.51100000000E-03 0. -1.
        -11    1    3    3    0    0  0.14157355923E+02  0.47352148572E+00  0.39021590566E+01  0.14692916487E+02  0.51100000000E-03 0.  1.
         12    1    3    3    0    0  0.13908646028E+00  0.49804623804E+01 -0.57708077026E+01  0.76240784431E+01  0.00000000000E+00 0. -1.
</event>
<event>
 7    1  0.5761011E-013  0.5930196E+02  0.7816164E-02  0.1266605E+00
        -11   -1    0    0    0    0  0.00000000000E+00  0.00000000000E+00  0.45593999997E+02  0.45594000000E+02  0.51100000000E-03 0.  1.
         11   -1    0    0    0    0 -0.00000000000E+00 -0.00000000000E+00 -0.45593999997E+02  0.45594000000E+02  0.51100000000E-03 0. -1.
    9900012    2    1    2    0    0 -0.15918738418E+02 -0.23318009715E+02 -0.14818367999E+02  0.59301955403E+02  0.50000020746E+02 0.  0.
        -12    1    1    2    0    0  0.15918738418E+02  0.23318009715E+02  0.14818367999E+02  0.31886044597E+02  0.00000000000E+00 0.  1.
         11    1    3    3    0    0 -0.20409769848E+02 -0.27214850004E+01 -0.36226333621E+01  0.20906665411E+02  0.51100000000E-03 0. -1.
        -11    1    3    3    0    0  0.77777857656E+01 -0.96068506944E+01 -0.20288893916E+02  0.23757625055E+02  0.51100000000E-03 0.  1.
        -12    1    3    3    0    0 -0.32867543353E+01 -0.10989674021E+02  0.90931592790E+01  0.14637664937E+02  0.00000000000E+00 0.  1.
</event>
<event>
 7    1  0.5761011E-013  0.5930198E+02  0.7816164E-02  0.1266605E+00
        -11   -1    0    0    0    0  0.00000000000E+00  0.00000000000E+00  0.45593999997E+02  0.45594000000E+02  0.51100000000E-03 0. -1.
         11   -1    0    0    0    0 -0.00000000000E+00 -0.00000000000E+00 -0.45593999997E+02  0.45594000000E+02  0.51100000000E-03 0.  1.
    9900012    2    1    2    0    0 -0.31152574430E+02  0.64610949720E+01  0.21187998448E+01  0.59301984968E+02  0.50000074665E+02 0.  0.
        -12    1    1    2    0    0  0.31152574430E+02 -0.64610949720E+01 -0.21187998448E+01  0.31886015032E+02  0.00000000000E+00 0.  1.
         11    1    3    3    0    0 -0.14446898543E+02  0.24400161551E+02  0.30125372496E+01  0.28515892800E+02  0.51100000000E-03 0. -1.
        -11    1    3    3    0    0 -0.44772357677E+01 -0.37052570956E+01 -0.86994594877E+01  0.10462082293E+02  0.51100000000E-03 0.  1.
         12    1    3    3    0    0 -0.12228440119E+02 -0.14233809484E+02  0.78057220828E+01  0.20324009875E+02  0.00000000000E+00 0. -1.
</event>
<event>
 7    1  0.6314777E-013  0.5930200E+02  0.7816164E-02  0.1266605E+00
        -11   -1    0    0    0    0  0.00000000000E+00  0.00000000000E+00  0.45593999997E+02  0.45594000000E+02  0.51100000000E-03 0. -1.
         11   -1    0    0    0    0 -0.00000000000E+00 -0.00000000000E+00 -0.45593999997E+02  0.45594000000E+02  0.51100000000E-03 0.  1.
    9900012    2    1    2    0    0  0.90408503903E+01 -0.26116277698E+02  0.15903452582E+02  0.59302004005E+02  0.50000109385E+02 0.  0.
        -12    1    1    2    0    0 -0.90408503903E+01  0.26116277698E+02 -0.15903452582E+02  0.31885995995E+02  0.00000000000E+00 0.  1.
         11    1    3    3    0    0  0.15708463742E+02 -0.11225738648E+02  0.12906001337E+02  0.23223649845E+02  0.51100000000E-03 0. -1.
        -11    1    3    3    0    0 -0.63864496639E+01  0.90046582599E+01 -0.30010435860E+01  0.11440143030E+02  0.51100000000E-03 0.  1.
        -12    1    3    3    0    0 -0.28116368788E+00 -0.23895197310E+02  0.59984948302E+01  0.24638211130E+02  0.00000000000E+00 0.  1.
</event>
<event>
 7    1  0.5761011E-013  0.5930191E+02  0.7816164E-02  0.1266605E+00
        -11   -1    0    0    0    0  0.00000000000E+00  0.00000000000E+00  0.45593999997E+02  0.45594000000E+02  0.51100000000E-03 0.  1.
         11   -1    0    0    0    0 -0.00000000000E+00 -0.00000000000E+00 -0.45593999997E+02  0.45594000000E+02  0.51100000000E-03 0. -1.
    9900012    2    1    2    0    0 -0.11646796324E+02  0.20650050596E+02 -0.21322522585E+02  0.59301914891E+02  0.49999946861E+02 0.  0.
        -12    1    1    2    0    0  0.11646796324E+02 -0.20650050596E+02  0.21322522585E+02  0.31886085109E+02  0.00000000000E+00 0.  1.
         11    1    3    3    0    0  0.99804039104E+01  0.16893197664E+02 -0.20146898922E+02  0.28122697700E+02  0.51100000000E-03 0. -1.
        -11    1    3    3    0    0 -0.79631263027E+01 -0.79631637471E+01  0.47569194497E+01  0.12225041525E+02  0.51100000000E-03 0.  1.
        -12    1    3    3    0    0 -0.13664073932E+02  0.11720016679E+02 -0.59325431126E+01  0.18954175665E+02  0.00000000000E+00 0.  1.
</event>
<event>
 7    1  0.5761011E-013  0.5930192E+02  0.7816164E-02  0.1266605E+00
        -11   -1    0    0    0    0  0.00000000000E+00  0.00000000000E+00  0.45593999997E+02  0.45594000000E+02  0.51100000000E-03 0. -1.
         11   -1    0    0    0    0 -0.00000000000E+00 -0.00000000000E+00 -0.45593999997E+02  0.45594000000E+02  0.51100000000E-03 0.  1.
    9900012    2    1    2    0    0  0.12194510287E+02 -0.18669085202E+02  0.22792136834E+02  0.59301916438E+02  0.49999949684E+02 0.  0.
        -12    1    1    2    0    0 -0.12194510287E+02  0.18669085202E+02 -0.22792136834E+02  0.31886083562E+02  0.00000000000E+00 0.  1.
         11    1    3    3    0    0  0.14191761156E+02  0.42388114667E+01  0.28614579637E+02  0.32220611034E+02  0.51100000000E-03 0. -1.
        -11    1    3    3    0    0  0.13245354451E+01 -0.17481702813E+02  0.12401537526E+01  0.17575616887E+02  0.51100000000E-03 0.  1.
         12    1    3    3    0    0 -0.33217863136E+01 -0.54261938564E+01 -0.70625965556E+01  0.95056885173E+01  0.00000000000E+00 0. -1.
</event>
<event>
 7    1  0.5761011E-013  0.5930196E+02  0.7816164E-02  0.1266605E+00
        -11   -1    0    0    0    0  0.00000000000E+00  0.00000000000E+00  0.45593999997E+02  0.45594000000E+02  0.51100000000E-03 0. -1.
         11   -1    0    0    0    0 -0.00000000000E+00 -0.00000000000E+00 -0.45593999997E+02  0.45594000000E+02  0.51100000000E-03 0.  1.
    9900012    2    1    2    0    0  0.92626859546E+01 -0.20019039392E+01  0.30445276061E+02  0.59301955954E+02  0.50000021751E+02 0.  0.
        -12    1    1    2    0    0 -0.92626859546E+01  0.20019039392E+01 -0.30445276061E+02  0.31886044046E+02  0.00000000000E+00 0.  1.
         11    1    3    3    0    0 -0.67072167166E-01  0.67218975372E-02  0.13303808476E+02  0.13303979257E+02  0.51100000000E-03 0. -1.
        -11    1    3    3    0    0  0.67413022796E+01 -0.21748151398E+02  0.95662070453E+01  0.24696954532E+02  0.51100000000E-03 0.  1.
        -12    1    3    3    0    0  0.25884558422E+01  0.19739525561E+02  0.75752605397E+01  0.21301022165E+02  0.00000000000E+00 0.  1.
</event>
<event>
 7    1  0.5761011E-013  0.5930195E+02  0.7816164E-02  0.1266605E+00
        -11   -1    0    0    0    0  0.00000000000E+00  0.00000000000E+00  0.45593999997E+02  0.45594000000E+02  0.51100000000E-03 0. -1.
         11   -1    0    0    0    0 -0.00000000000E+00 -0.00000000000E+00 -0.45593999997E+02  0.45594000000E+02  0.51100000000E-03 0.  1.
    9900012    2    1    2    0    0  0.17641446843E+02 -0.11857908754E+01  0.26534763389E+02  0.59301946390E+02  0.50000004308E+02 0.  0.
        -12    1    1    2    0    0 -0.17641446843E+02  0.11857908754E+01 -0.26534763389E+02  0.31886053610E+02  0.00000000000E+00 0.  1.
         11    1    3    3    0    0  0.10209235438E+02  0.10796618584E+02 -0.92712453088E+01  0.17514321308E+02  0.51100000000E-03 0. -1.
        -11    1    3    3    0    0  0.76889496652E+01 -0.11801661569E+02  0.13600534242E+02  0.19579930916E+02  0.51100000000E-03 0.  1.
         12    1    3    3    0    0 -0.25673825975E+00 -0.18074788984E+00  0.22205474456E+02  0.22207694165E+02  0.00000000000E+00 0. -1.
</event>
<event>
 7    1  0.5761011E-013  0.5930193E+02  0.7816164E-02  0.1266605E+00
        -11   -1    0    0    0    0  0.00000000000E+00  0.00000000000E+00  0.45593999997E+02  0.45594000000E+02  0.51100000000E-03 0.  1.
         11   -1    0    0    0    0 -0.00000000000E+00 -0.00000000000E+00 -0.45593999997E+02  0.45594000000E+02  0.51100000000E-03 0. -1.
    9900012    2    1    2    0    0  0.28945226718E+02 -0.12274229005E+02 -0.53139970562E+01  0.59301930751E+02  0.49999975787E+02 0.  0.
        -12    1    1    2    0    0 -0.28945226718E+02  0.12274229005E+02  0.53139970562E+01  0.31886069249E+02  0.00000000000E+00 0.  1.
         11    1    3    3    0    0  0.11497941772E+02  0.99077637103E+01 -0.46068535196E+01  0.15861574523E+02  0.51100000000E-03 0. -1.
        -11    1    3    3    0    0  0.15547138867E+02 -0.20844735914E+02  0.13323447633E+02  0.29218672101E+02  0.51100000000E-03 0.  1.
        -12    1    3    3    0    0  0.19001460790E+01 -0.13372568013E+01 -0.14030591169E+02  0.14221684128E+02  0.00000000000E+00 0.  1.
</event>
<event>
 7    1  0.5761011E-013  0.5930191E+02  0.7816164E-02  0.1266605E+00
        -11   -1    0    0    0    0  0.00000000000E+00  0.00000000000E+00  0.45593999997E+02  0.45594000000E+02  0.51100000000E-03 0.  1.
         11   -1    0    0    0    0 -0.00000000000E+00 -0.00000000000E+00 -0.45593999997E+02  0.45594000000E+02  0.51100000000E-03 0. -1.
    9900012    2    1    2    0    0  0.14203029334E+01 -0.25408311209E+02 -0.19212573821E+02  0.59301913195E+02  0.49999943769E+02 0.  0.
        -12    1    1    2    0    0 -0.14203029334E+01  0.25408311209E+02  0.19212573821E+02  0.31886086805E+02  0.00000000000E+00 0.  1.
         11    1    3    3    0    0 -0.36025182940E+01 -0.11707228433E+02 -0.22573128024E+02  0.25682356681E+02  0.51100000000E-03 0. -1.
        -11    1    3    3    0    0  0.15990187057E+02 -0.14937516668E+02 -0.60965269697E+00  0.21890344058E+02  0.51100000000E-03 0.  1.
        -12    1    3    3    0    0 -0.10967365829E+02  0.12364338921E+01  0.39702069006E+01  0.11729212456E+02  0.00000000000E+00 0.  1.
</event>
<event>
 7    1  0.5761011E-013  0.5930193E+02  0.7816164E-02  0.1266605E+00
        -11   -1    0    0    0    0  0.00000000000E+00  0.00000000000E+00  0.45593999997E+02  0.45594000000E+02  0.51100000000E-03 0.  1.
         11   -1    0    0    0    0 -0.00000000000E+00 -0.00000000000E+00 -0.45593999997E+02  0.45594000000E+02  0.51100000000E-03 0. -1.
    9900012    2    1    2    0    0  0.18929521127E+02 -0.12287626022E+02 -0.22525736289E+02  0.59301932216E+02  0.49999978458E+02 0.  0.
        -12    1    1    2    0    0 -0.18929521127E+02  0.12287626022E+02  0.22525736289E+02  0.31886067784E+02  0.00000000000E+00 0.  1.
         11    1    3    3    0    0  0.12608902476E+02 -0.14224927965E+02 -0.17576266109E+02  0.25889343906E+02  0.51100000000E-03 0. -1.
        -11    1    3    3    0    0  0.15506750257E+02 -0.37750862420E+01  0.68829992296E+01  0.17380628824E+02  0.51100000000E-03 0.  1.
        -12    1    3    3    0    0 -0.91861316055E+01  0.57123881851E+01 -0.11832469409E+02  0.16031959486E+02  0.00000000000E+00 0.  1.
</event>
<event>
 7    1  0.5761011E-013  0.5930197E+02  0.7816164E-02  0.1266605E+00
        -11   -1    0    0    0    0  0.00000000000E+00  0.00000000000E+00  0.45593999997E+02  0.45594000000E+02  0.51100000000E-03 0. -1.
         11   -1    0    0    0    0 -0.00000000000E+00 -0.00000000000E+00 -0.45593999997E+02  0.45594000000E+02  0.51100000000E-03 0.  1.
    9900012    2    1    2    0    0 -0.30226262377E+02 -0.45110908154E+01  0.90962778019E+01  0.59301966263E+02  0.50000040551E+02 0.  0.
        -12    1    1    2    0    0  0.30226262377E+02  0.45110908154E+01 -0.90962778019E+01  0.31886033737E+02  0.00000000000E+00 0.  1.
         11    1    3    3    0    0  0.50402465064E+01  0.59186064655E+01  0.31785039695E+01  0.83986234041E+01  0.51100000000E-03 0. -1.
        -11    1    3    3    0    0 -0.27309637783E+02 -0.16858154394E+01 -0.11641391937E+02  0.29735169346E+02  0.51100000000E-03 0.  1.
        -12    1    3    3    0    0 -0.79568711007E+01 -0.87438818415E+01  0.17559165769E+02  0.21168173513E+02  0.00000000000E+00 0.  1.
</event>
<event>
 7    1  0.5761011E-013  0.5930197E+02  0.7816164E-02  0.1266605E+00
        -11   -1    0    0    0    0  0.00000000000E+00  0.00000000000E+00  0.45593999997E+02  0.45594000000E+02  0.51100000000E-03 0. -1.
         11   -1    0    0    0    0 -0.00000000000E+00 -0.00000000000E+00 -0.45593999997E+02  0.45594000000E+02  0.51100000000E-03 0.  1.
    9900012    2    1    2    0    0  0.11313877896E+02  0.80455163474E+01  0.28705131781E+02  0.59301972388E+02  0.50000051722E+02 0.  0.
        -12    1    1    2    0    0 -0.11313877896E+02 -0.80455163474E+01 -0.28705131781E+02  0.31886027612E+02  0.00000000000E+00 0.  1.
         11    1    3    3    0    0 -0.14553719065E+02 -0.22941634258E+01 -0.10220456482E+01  0.14768835500E+02  0.51100000000E-03 0. -1.
        -11    1    3    3    0    0  0.16818276426E+02  0.12681538426E+02  0.11377947292E+02  0.23940207259E+02  0.51100000000E-03 0.  1.
        -12    1    3    3    0    0  0.90493205351E+01 -0.23418586524E+01  0.18349230137E+02  0.20592929629E+02  0.00000000000E+00 0.  1.
</event>
<event>
 7    1  0.5761011E-013  0.5930193E+02  0.7816164E-02  0.1266605E+00
        -11   -1    0    0    0    0  0.00000000000E+00  0.00000000000E+00  0.45593999997E+02  0.45594000000E+02  0.51100000000E-03 0.  1.
         11   -1    0    0    0    0 -0.00000000000E+00 -0.00000000000E+00 -0.45593999997E+02  0.45594000000E+02  0.51100000000E-03 0. -1.
    9900012    2    1    2    0    0 -0.17271736351E+01  0.14751079877E+02 -0.28216021214E+02  0.59301931892E+02  0.49999977866E+02 0.  0.
        -12    1    1    2    0    0  0.17271736351E+01 -0.14751079877E+02  0.28216021214E+02  0.31886068108E+02  0.00000000000E+00 0.  1.
         11    1    3    3    0    0 -0.13275071313E+02  0.25662653767E+02 -0.29292647235E+02  0.41144361692E+02  0.51100000000E-03 0. -1.
        -11    1    3    3    0    0  0.78268683555E+01 -0.95870728616E+01 -0.27281125235E+01  0.12673374945E+02  0.51100000000E-03 0.  1.
         12    1    3    3    0    0  0.37210293223E+01 -0.13245010290E+01  0.38047385447E+01  0.54841952543E+01  0.00000000000E+00 0. -1.
</event>
<event>
 7    1  0.5761011E-013  0.5930192E+02  0.7816164E-02  0.1266605E+00
        -11   -1    0    0    0    0  0.00000000000E+00  0.00000000000E+00  0.45593999997E+02  0.45594000000E+02  0.51100000000E-03 0.  1.
         11   -1    0    0    0    0 -0.00000000000E+00 -0.00000000000E+00 -0.45593999997E+02  0.45594000000E+02  0.51100000000E-03 0. -1.
    9900012    2    1    2    0    0  0.13719290714E+02 -0.27374218327E+02 -0.88969304898E+01  0.59301919355E+02  0.49999955003E+02 0.  0.
        -12    1    1    2    0    0 -0.13719290714E+02  0.27374218327E+02  0.88969304898E+01  0.31886080645E+02  0.00000000000E+00 0.  1.
         11    1    3    3    0    0 -0.31355925933E+01 -0.12967045992E+02  0.16782521943E+02  0.21438966060E+02  0.51100000000E-03 0. -1.
        -11    1    3    3    0    0  0.13822224264E+02 -0.11501520491E+01 -0.15974910015E+02  0.21155956220E+02  0.51100000000E-03 0.  1.
         12    1    3    3    0    0  0.30326590441E+01 -0.13257020286E+02 -0.97045424176E+01  0.16706997076E+02  0.00000000000E+00 0. -1.
</event>
<event>
 7    1  0.5761011E-013  0.5930190E+02  0.7816164E-02  0.1266605E+00
        -11   -1    0    0    0    0  0.00000000000E+00  0.00000000000E+00  0.45593999997E+02  0.45594000000E+02  0.51100000000E-03 0. -1.
         11   -1    0    0    0    0 -0.00000000000E+00 -0.00000000000E+00 -0.45593999997E+02  0.45594000000E+02  0.51100000000E-03 0.  1.
    9900012    2    1    2    0    0 -0.21632786624E+01  0.14709400414E+02 -0.28207748514E+02  0.59301900970E+02  0.49999921474E+02 0.  0.
        -12    1    1    2    0    0  0.21632786624E+01 -0.14709400414E+02  0.28207748514E+02  0.31886099030E+02  0.00000000000E+00 0.  1.
         11    1    3    3    0    0  0.19422477821E+02  0.13949547923E+02 -0.36665453160E+01  0.24192273287E+02  0.51100000000E-03 0. -1.
        -11    1    3    3    0    0 -0.88916135738E+01 -0.15303440626E+01 -0.21598627218E+01  0.92772707266E+01  0.51100000000E-03 0.  1.
         12    1    3    3    0    0 -0.12694142910E+02  0.22901965533E+01 -0.22381340476E+02  0.25832356957E+02  0.00000000000E+00 0. -1.
</event>
<event>
 7    1  0.5761011E-013  0.5930194E+02  0.7816164E-02  0.1266605E+00
        -11   -1    0    0    0    0  0.00000000000E+00  0.00000000000E+00  0.45593999997E+02  0.45594000000E+02  0.51100000000E-03 0. -1.
         11   -1    0    0    0    0 -0.00000000000E+00 -0.00000000000E+00 -0.45593999997E+02  0.45594000000E+02  0.51100000000E-03 0.  1.
    9900012    2    1    2    0    0 -0.24986073055E+02  0.19807622663E+02 -0.27453758580E+00  0.59301935126E+02  0.49999983766E+02 0.  0.
        -12    1    1    2    0    0  0.24986073055E+02 -0.19807622663E+02  0.27453758580E+00  0.31886064874E+02  0.00000000000E+00 0.  1.
         11    1    3    3    0    0 -0.31476552526E+02  0.12607599715E+02 -0.13814992096E+02  0.36613917250E+02  0.51100000000E-03 0. -1.
        -11    1    3    3    0    0  0.83618842318E+01  0.10631987788E+02  0.74256329323E+01  0.15430498921E+02  0.51100000000E-03 0.  1.
        -12    1    3    3    0    0 -0.18714047605E+01 -0.34319648409E+01  0.61148215783E+01  0.72575189549E+01  0.00000000000E+00 0.  1.
</event>
<event>
 7    1  0.5761011E-013  0.5930197E+02  0.7816164E-02  0.1266605E+00
        -11   -1    0    0    0    0  0.00000000000E+00  0.00000000000E+00  0.45593999997E+02  0.45594000000E+02  0.51100000000E-03 0.  1.
         11   -1    0    0    0    0 -0.00000000000E+00 -0.00000000000E+00 -0.45593999997E+02  0.45594000000E+02  0.51100000000E-03 0. -1.
    9900012    2    1    2    0    0  0.17129785512E+02  0.14519060331E+02 -0.22638164653E+02  0.59301966013E+02  0.50000040095E+02 0.  0.
        -12    1    1    2    0    0 -0.17129785512E+02 -0.14519060331E+02  0.22638164653E+02  0.31886033987E+02  0.00000000000E+00 0.  1.
         11    1    3    3    0    0 -0.56960642723E+01  0.14905052643E+02 -0.17928980255E+02  0.24001126552E+02  0.51100000000E-03 0. -1.
        -11    1    3    3    0    0  0.17842609915E+02 -0.12538967146E+02 -0.37797230953E+01  0.22133023575E+02  0.51100000000E-03 0.  1.
         12    1    3    3    0    0  0.49832398691E+01  0.12152974833E+02 -0.92946130267E+00  0.13167815886E+02  0.00000000000E+00 0. -1.
</event>
<event>
 7    1  0.5761011E-013  0.5930195E+02  0.7816164E-02  0.1266605E+00
        -11   -1    0    0    0    0  0.00000000000E+00  0.00000000000E+00  0.45593999997E+02  0.45594000000E+02  0.51100000000E-03 0.  1.
         11   -1    0    0    0    0 -0.00000000000E+00 -0.00000000000E+00 -0.45593999997E+02  0.45594000000E+02  0.51100000000E-03 0. -1.
    9900012    2    1    2    0    0  0.97141875747E+00  0.25393312681E+02 -0.19260218500E+02  0.59301952895E+02  0.50000016173E+02 0.  0.
        -12    1    1    2    0    0 -0.97141875747E+00 -0.25393312681E+02  0.19260218500E+02  0.31886047105E+02  0.00000000000E+00 0.  1.
         11    1    3    3    0    0 -0.59009181804E+01  0.12235847016E+02 -0.16322267102E+02  0.21235658482E+02  0.51100000000E-03 0. -1.
        -11    1    3    3    0    0  0.92157188704E+01  0.92550196269E+01  0.14808533153E+02  0.19745316331E+02  0.51100000000E-03 0.  1.
         12    1    3    3    0    0 -0.23433819326E+01  0.39024460377E+01 -0.17746484551E+02  0.18320978082E+02  0.00000000000E+00 0. -1.
</event>
<event>
 7    1  0.5761011E-013  0.5930194E+02  0.7816164E-02  0.1266605E+00
        -11   -1    0    0    0    0  0.00000000000E+00  0.00000000000E+00  0.45593999997E+02  0.45594000000E+02  0.51100000000E-03 0.  1.
         11   -1    0    0    0    0 -0.00000000000E+00 -0.00000000000E+00 -0.45593999997E+02  0.45594000000E+02  0.51100000000E-03 0. -1.
    9900012    2    1    2    0    0 -0.13869615658E+02 -0.24955052468E+02 -0.14198581989E+02  0.59301943287E+02  0.49999998650E+02 0.  0.
        -12    1    1    2    0    0  0.13869615658E+02  0.24955052468E+02  0.14198581989E+02  0.31886056713E+02  0.00000000000E+00 0.  1.
         11    1    3    3    0    0  0.13440355150E+02  0.47590751112E+01 -0.23226659391E+01  0.14445993209E+02  0.51100000000E-03 0. -1.
        -11    1    3    3    0    0 -0.22916859722E+02 -0.15792980359E+02 -0.35676733808E+01  0.28059383132E+02  0.51100000000E-03 0.  1.
         12    1    3    3    0    0 -0.43931110858E+01 -0.13921147221E+02 -0.83082426687E+01  0.16796566947E+02  0.00000000000E+00 0. -1.
</event>
<event>
 7    1  0.5761011E-013  0.5930191E+02  0.7816164E-02  0.1266605E+00
        -11   -1    0    0    0    0  0.00000000000E+00  0.00000000000E+00  0.45593999997E+02  0.45594000000E+02  0.51100000000E-03 0.  1.
         11   -1    0    0    0    0 -0.00000000000E+00 -0.00000000000E+00 -0.45593999997E+02  0.45594000000E+02  0.51100000000E-03 0. -1.
    9900012    2    1    2    0    0 -0.28456646161E+02 -0.13868257928E+02 -0.38227600336E+01  0.59301909256E+02  0.49999936584E+02 0.  0.
        -12    1    1    2    0    0  0.28456646161E+02  0.13868257928E+02  0.38227600336E+01  0.31886090744E+02  0.00000000000E+00 0.  1.
         11    1    3    3    0    0 -0.48134017857E+01  0.43673871483E+01 -0.14376484168E+01  0.66565562031E+01  0.51100000000E-03 0. -1.
        -11    1    3    3    0    0 -0.27027837122E+02 -0.27296190001E+02 -0.10716010319E+02  0.39880055736E+02  0.51100000000E-03 0.  1.
        -12    1    3    3    0    0  0.33845927464E+01  0.90605449254E+01  0.83308987020E+01  0.12765297317E+02  0.00000000000E+00 0.  1.
</event>
<event>
 7    1  0.5761011E-013  0.5930194E+02  0.7816164E-02  0.1266605E+00
        -11   -1    0    0    0    0  0.00000000000E+00  0.00000000000E+00  0.45593999997E+02  0.45594000000E+02  0.51100000000E-03 0.  1.
         11   -1    0    0    0    0 -0.00000000000E+00 -0.00000000000E+00 -0.45593999997E+02  0.45594000000E+02  0.51100000000E-03 0. -1.
    9900012    2    1    2    0    0 -0.44657537631E+01 -0.63561344733E+01 -0.30925347967E+02  0.59301944286E+02  0.50000000472E+02 0.  0.
        -12    1    1    2    0    0  0.44657537631E+01  0.63561344733E+01  0.30925347967E+02  0.31886055714E+02  0.00000000000E+00 0.  1.
         11    1    3    3    0    0  0.43894376596E+01 -0.16439890409E+02 -0.28321628177E+02  0.33040154093E+02  0.51100000000E-03 0. -1.
        -11    1    3    3    0    0 -0.14452922927E+02  0.56580461303E+01  0.45331330429E+01  0.16169408233E+02  0.51100000000E-03 0.  1.
        -12    1    3    3    0    0  0.55977315046E+01  0.44257098056E+01 -0.71368528326E+01  0.10092381960E+02  0.00000000000E+00 0.  1.
</event>
<event>
 7    1  0.5761011E-013  0.5930199E+02  0.7816164E-02  0.1266605E+00
        -11   -1    0    0    0    0  0.00000000000E+00  0.00000000000E+00  0.45593999997E+02  0.45594000000E+02  0.51100000000E-03 0. -1.
         11   -1    0    0    0    0 -0.00000000000E+00 -0.00000000000E+00 -0.45593999997E+02  0.45594000000E+02  0.51100000000E-03 0.  1.
    9900012    2    1    2    0    0 -0.26424371527E+01  0.27498341447E+02  0.15924079106E+02  0.59301991284E+02  0.50000086184E+02 0.  0.
        -12    1    1    2    0    0  0.26424371527E+01 -0.27498341447E+02 -0.15924079106E+02  0.31886008716E+02  0.00000000000E+00 0.  1.
         11    1    3    3    0    0 -0.60392341853E+00  0.15429046099E+02 -0.73423234955E+01  0.17097657781E+02  0.51100000000E-03 0.  1.
        -11    1    3    3    0    0 -0.76000812525E+01 -0.75787243049E+01  0.18258077869E+02  0.21179133714E+02  0.51100000000E-03 0. -1.
        -12    1    3    3    0    0  0.55615675184E+01  0.19648019654E+02  0.50083247320E+01  0.21025199790E+02  0.00000000000E+00 0.  1.
</event>
<event>
 7    1  0.5761011E-013  0.5930197E+02  0.7816164E-02  0.1266605E+00
        -11   -1    0    0    0    0  0.00000000000E+00  0.00000000000E+00  0.45593999997E+02  0.45594000000E+02  0.51100000000E-03 0. -1.
         11   -1    0    0    0    0 -0.00000000000E+00 -0.00000000000E+00 -0.45593999997E+02  0.45594000000E+02  0.51100000000E-03 0.  1.
    9900012    2    1    2    0    0 -0.25041084771E+02  0.61261024280E+01  0.18765222241E+02  0.59301974484E+02  0.50000055545E+02 0.  0.
        -12    1    1    2    0    0  0.25041084771E+02 -0.61261024280E+01 -0.18765222241E+02  0.31886025516E+02  0.00000000000E+00 0.  1.
         11    1    3    3    0    0 -0.43885968300E+01 -0.19702923234E+02  0.12455868966E+02  0.23719478031E+02  0.51100000000E-03 0. -1.
        -11    1    3    3    0    0 -0.11948974300E+02  0.19077865213E+02  0.90004336573E+01  0.24243570987E+02  0.51100000000E-03 0.  1.
        -12    1    3    3    0    0 -0.87035136405E+01  0.67511604494E+01 -0.26910803820E+01  0.11338925466E+02  0.00000000000E+00 0.  1.
</event>
<event>
 7    1  0.5761011E-013  0.5930190E+02  0.7816164E-02  0.1266605E+00
        -11   -1    0    0    0    0  0.00000000000E+00  0.00000000000E+00  0.45593999997E+02  0.45594000000E+02  0.51100000000E-03 0. -1.
         11   -1    0    0    0    0 -0.00000000000E+00 -0.00000000000E+00 -0.45593999997E+02  0.45594000000E+02  0.51100000000E-03 0.  1.
    9900012    2    1    2    0    0  0.30310900952E+02  0.68612193246E+01  0.71341857560E+01  0.59301895604E+02  0.49999911686E+02 0.  0.
        -12    1    1    2    0    0 -0.30310900952E+02 -0.68612193246E+01 -0.71341857560E+01  0.31886104396E+02  0.00000000000E+00 0.  1.
         11    1    3    3    0    0  0.56430662784E+01 -0.11245117217E+02  0.81562354922E+01  0.14994033344E+02  0.51100000000E-03 0. -1.
        -11    1    3    3    0    0  0.81564362753E+01  0.24488855289E+02 -0.46787143879E+01  0.26232076827E+02  0.51100000000E-03 0.  1.
        -12    1    3    3    0    0  0.16511398399E+02 -0.63825187472E+01  0.36566646517E+01  0.18075785433E+02  0.00000000000E+00 0.  1.
</event>
<event>
 7    1  0.5761011E-013  0.5930192E+02  0.7816164E-02  0.1266605E+00
        -11   -1    0    0    0    0  0.00000000000E+00  0.00000000000E+00  0.45593999997E+02  0.45594000000E+02  0.51100000000E-03 0.  1.
         11   -1    0    0    0    0 -0.00000000000E+00 -0.00000000000E+00 -0.45593999997E+02  0.45594000000E+02  0.51100000000E-03 0. -1.
    9900012    2    1    2    0    0  0.21313421956E+02 -0.14523906155E+02  0.18748765089E+02  0.59301921567E+02  0.49999959037E+02 0.  0.
        -12    1    1    2    0    0 -0.21313421956E+02  0.14523906155E+02 -0.18748765089E+02  0.31886078433E+02  0.00000000000E+00 0.  1.
         11    1    3    3    0    0 -0.10401616397E+02 -0.13512888875E+02  0.11063298145E+02  0.20327035090E+02  0.51100000000E-03 0. -1.
        -11    1    3    3    0    0  0.16421193789E+02  0.94934197301E+01  0.75645578768E+01  0.20420655224E+02  0.51100000000E-03 0.  1.
         12    1    3    3    0    0  0.15293844563E+02 -0.10504437010E+02  0.12090906659E+00  0.18554231254E+02  0.00000000000E+00 0. -1.
</event>
<event>
 7    1  0.5761011E-013  0.5930201E+02  0.7816164E-02  0.1266605E+00
        -11   -1    0    0    0    0  0.00000000000E+00  0.00000000000E+00  0.45593999997E+02  0.45594000000E+02  0.51100000000E-03 0.  1.
         11   -1    0    0    0    0 -0.00000000000E+00 -0.00000000000E+00 -0.45593999997E+02  0.45594000000E+02  0.51100000000E-03 0. -1.
    9900012    2    1    2    0    0 -0.17049583151E+02 -0.68798537971E+01 -0.26051783807E+02  0.59302013840E+02  0.50000127320E+02 0.  0.
        -12    1    1    2    0    0  0.17049583151E+02  0.68798537971E+01  0.26051783807E+02  0.31885986160E+02  0.00000000000E+00 0.  1.
         11    1    3    3    0    0 -0.10209403997E+02  0.12505551141E+02 -0.81022959874E+01  0.18062888469E+02  0.51100000000E-03 0. -1.
        -11    1    3    3    0    0 -0.73322966875E+01 -0.26596792514E+02 -0.19578078509E+02  0.33829766554E+02  0.51100000000E-03 0.  1.
        -12    1    3    3    0    0  0.49211753415E+00  0.72113875761E+01  0.16285906892E+01  0.74093588166E+01  0.00000000000E+00 0.  1.
</event>
<event>
 7    1  0.5761011E-013  0.5930175E+02  0.7816164E-02  0.1266605E+00
        -11   -1    0    0    0    0  0.00000000000E+00  0.00000000000E+00  0.45593999997E+02  0.45594000000E+02  0.51100000000E-03 0.  1.
         11   -1    0    0    0    0 -0.00000000000E+00 -0.00000000000E+00 -0.45593999997E+02  0.45594000000E+02  0.51100000000E-03 0. -1.
    9900012    2    1    2    0    0  0.17511724732E+02 -0.26525648055E+02 -0.25421226491E+01  0.59301750684E+02  0.49999647387E+02 0.  0.
        -12    1    1    2    0    0 -0.17511724732E+02  0.26525648055E+02  0.25421226491E+01  0.31886249316E+02  0.00000000000E+00 0.  1.
         11    1    3    3    0    0 -0.17953148716E+00 -0.96030308972E+01 -0.12585090757E+02  0.15831454247E+02  0.51100000000E-03 0. -1.
        -11    1    3    3    0    0 -0.71056693801E+01 -0.11738098599E+02  0.11770824902E+02  0.18078324458E+02  0.51100000000E-03 0.  1.
        -12    1    3    3    0    0  0.24796925600E+02 -0.51845185588E+01 -0.17278567939E+01  0.25391971979E+02  0.00000000000E+00 0.  1.
</event>
<event>
 7    1  0.5761011E-013  0.5930193E+02  0.7816164E-02  0.1266605E+00
        -11   -1    0    0    0    0  0.00000000000E+00  0.00000000000E+00  0.45593999997E+02  0.45594000000E+02  0.51100000000E-03 0. -1.
         11   -1    0    0    0    0 -0.00000000000E+00 -0.00000000000E+00 -0.45593999997E+02  0.45594000000E+02  0.51100000000E-03 0.  1.
    9900012    2    1    2    0    0 -0.82236320744E+01  0.51259659800E+01  0.30377920727E+02  0.59301925933E+02  0.49999966999E+02 0.  0.
        -12    1    1    2    0    0  0.82236320744E+01 -0.51259659800E+01 -0.30377920727E+02  0.31886074067E+02  0.00000000000E+00 0.  1.
         11    1    3    3    0    0  0.70137853666E+01 -0.27809972137E+01  0.40042817671E+01  0.85417447517E+01  0.51100000000E-03 0. -1.
        -11    1    3    3    0    0 -0.23103008522E+02  0.16315378347E+02  0.27169429085E+02  0.39218853252E+02  0.51100000000E-03 0.  1.
        -12    1    3    3    0    0  0.78655910813E+01 -0.84084151529E+01 -0.79579012468E+00  0.11541327929E+02  0.00000000000E+00 0.  1.
</event>
<event>
 7    1  0.5761011E-013  0.5930194E+02  0.7816164E-02  0.1266605E+00
        -11   -1    0    0    0    0  0.00000000000E+00  0.00000000000E+00  0.45593999997E+02  0.45594000000E+02  0.51100000000E-03 0.  1.
         11   -1    0    0    0    0 -0.00000000000E+00 -0.00000000000E+00 -0.45593999997E+02  0.45594000000E+02  0.51100000000E-03 0. -1.
    9900012    2    1    2    0    0 -0.15605508147E+02 -0.27750326882E+02  0.17630517108E+01  0.59301939128E+02  0.49999991064E+02 0.  0.
        -12    1    1    2    0    0  0.15605508147E+02  0.27750326882E+02 -0.17630517108E+01  0.31886060872E+02  0.00000000000E+00 0.  1.
         11    1    3    3    0    0 -0.15809648092E+02  0.28211786423E+01 -0.46746657473E+01  0.16725923647E+02  0.51100000000E-03 0. -1.
        -11    1    3    3    0    0  0.14282919337E+02 -0.13422819746E+02  0.49606833913E+00  0.19606630480E+02  0.51100000000E-03 0.  1.
        -12    1    3    3    0    0 -0.14078779392E+02 -0.17148685778E+02  0.59416491190E+01  0.22969385002E+02  0.00000000000E+00 0.  1.
</event>
<event>
 7    1  0.5761011E-013  0.5930197E+02  0.7816164E-02  0.1266605E+00
        -11   -1    0    0    0    0  0.00000000000E+00  0.00000000000E+00  0.45593999997E+02  0.45594000000E+02  0.51100000000E-03 0. -1.
         11   -1    0    0    0    0 -0.00000000000E+00 -0.00000000000E+00 -0.45593999997E+02  0.45594000000E+02  0.51100000000E-03 0.  1.
    9900012    2    1    2    0    0 -0.10945380549E+02 -0.96509880292E+01  0.28350942660E+02  0.59301970536E+02  0.50000048344E+02 0.  0.
        -12    1    1    2    0    0  0.10945380549E+02  0.96509880292E+01 -0.28350942660E+02  0.31886029464E+02  0.00000000000E+00 0.  1.
         11    1    3    3    0    0 -0.14776703432E+02 -0.63667916975E+00 -0.24443549528E+01  0.14991037192E+02  0.51100000000E-03 0.  1.
        -11    1    3    3    0    0  0.87643058233E+01  0.47374690650E+01  0.27617493170E+02  0.29359540170E+02  0.51100000000E-03 0. -1.
        -12    1    3    3    0    0 -0.49329829406E+01 -0.13751777924E+02  0.31778044422E+01  0.14951393174E+02  0.00000000000E+00 0.  1.
</event>
<event>
 7    1  0.5761011E-013  0.5930198E+02  0.7816164E-02  0.1266605E+00
        -11   -1    0    0    0    0  0.00000000000E+00  0.00000000000E+00  0.45593999997E+02  0.45594000000E+02  0.51100000000E-03 0.  1.
         11   -1    0    0    0    0 -0.00000000000E+00 -0.00000000000E+00 -0.45593999997E+02  0.45594000000E+02  0.51100000000E-03 0. -1.
    9900012    2    1    2    0    0  0.26700315727E+02  0.13450702494E+02 -0.11085577612E+02  0.59301979733E+02  0.50000065117E+02 0.  0.
        -12    1    1    2    0    0 -0.26700315727E+02 -0.13450702494E+02  0.11085577612E+02  0.31886020267E+02  0.00000000000E+00 0.  1.
         11    1    3    3    0    0  0.74435138530E+01  0.12006631997E+02 -0.34341326006E+01  0.14538169671E+02  0.51100000000E-03 0. -1.
        -11    1    3    3    0    0  0.23535146054E+02 -0.11221679356E+02 -0.14402669629E+02  0.29787011936E+02  0.51100000000E-03 0.  1.
        -12    1    3    3    0    0 -0.42783441801E+01  0.12665749853E+02  0.67512246182E+01  0.14976798126E+02  0.00000000000E+00 0.  1.
</event>
<event>
 7    1  0.5761011E-013  0.5930198E+02  0.7816164E-02  0.1266605E+00
        -11   -1    0    0    0    0  0.00000000000E+00  0.00000000000E+00  0.45593999997E+02  0.45594000000E+02  0.51100000000E-03 0.  1.
         11   -1    0    0    0    0 -0.00000000000E+00 -0.00000000000E+00 -0.45593999997E+02  0.45594000000E+02  0.51100000000E-03 0. -1.
    9900012    2    1    2    0    0 -0.10096346705E+02  0.19850386882E+02 -0.22819817213E+02  0.59301982159E+02  0.50000069541E+02 0.  0.
        -12    1    1    2    0    0  0.10096346705E+02 -0.19850386882E+02  0.22819817213E+02  0.31886017841E+02  0.00000000000E+00 0.  1.
         11    1    3    3    0    0 -0.17662650465E+02  0.24970956074E+02 -0.10850199024E+02  0.32453731493E+02  0.51100000000E-03 0. -1.
        -11    1    3    3    0    0 -0.76433935272E+00 -0.12622870016E+02 -0.79561928027E+01  0.14940618002E+02  0.51100000000E-03 0.  1.
        -12    1    3    3    0    0  0.83306431129E+01  0.75023008241E+01 -0.40134253868E+01  0.11907632664E+02  0.00000000000E+00 0.  1.
</event>
<event>
 7    1  0.5761011E-013  0.5930184E+02  0.7816164E-02  0.1266605E+00
        -11   -1    0    0    0    0  0.00000000000E+00  0.00000000000E+00  0.45593999997E+02  0.45594000000E+02  0.51100000000E-03 0. -1.
         11   -1    0    0    0    0 -0.00000000000E+00 -0.00000000000E+00 -0.45593999997E+02  0.45594000000E+02  0.51100000000E-03 0.  1.
    9900012    2    1    2    0    0 -0.32366567518E+01  0.28486880529E+02  0.13955248641E+02  0.59301838835E+02  0.49999808154E+02 0.  0.
        -12    1    1    2    0    0  0.32366567518E+01 -0.28486880529E+02 -0.13955248641E+02  0.31886161165E+02  0.00000000000E+00 0.  1.
         11    1    3    3    0    0 -0.20448437611E+01  0.49161685718E+01  0.16555292581E+02  0.17390451752E+02  0.51100000000E-03 0. -1.
        -11    1    3    3    0    0 -0.48749689133E+01  0.19845657696E+02 -0.17003767130E+02  0.26584648731E+02  0.51100000000E-03 0.  1.
        -12    1    3    3    0    0  0.36831559226E+01  0.37250542608E+01  0.14403723189E+02  0.15326738352E+02  0.00000000000E+00 0.  1.
</event>
<event>
 7    1  0.5761011E-013  0.5930195E+02  0.7816164E-02  0.1266605E+00
        -11   -1    0    0    0    0  0.00000000000E+00  0.00000000000E+00  0.45593999997E+02  0.45594000000E+02  0.51100000000E-03 0.  1.
         11   -1    0    0    0    0 -0.00000000000E+00 -0.00000000000E+00 -0.45593999997E+02  0.45594000000E+02  0.51100000000E-03 0. -1.
    9900012    2    1    2    0    0  0.26370622722E+01 -0.20251046149E+01 -0.31712219522E+02  0.59301952689E+02  0.50000015796E+02 0.  0.
        -12    1    1    2    0    0 -0.26370622722E+01  0.20251046149E+01  0.31712219522E+02  0.31886047311E+02  0.00000000000E+00 0.  1.
         11    1    3    3    0    0  0.78584377511E+01 -0.13729385896E+02 -0.36416332652E+02  0.39703908688E+02  0.51100000000E-03 0. -1.
        -11    1    3    3    0    0 -0.94975507422E+01  0.76763536014E+01  0.59632950672E+01  0.13590097977E+02  0.51100000000E-03 0.  1.
         12    1    3    3    0    0  0.42761752634E+01  0.40279276797E+01 -0.12591819367E+01  0.60079460239E+01  0.00000000000E+00 0. -1.
</event>
<event>
 7    1  0.5761011E-013  0.5930195E+02  0.7816164E-02  0.1266605E+00
        -11   -1    0    0    0    0  0.00000000000E+00  0.00000000000E+00  0.45593999997E+02  0.45594000000E+02  0.51100000000E-03 0. -1.
         11   -1    0    0    0    0 -0.00000000000E+00 -0.00000000000E+00 -0.45593999997E+02  0.45594000000E+02  0.51100000000E-03 0.  1.
    9900012    2    1    2    0    0 -0.14037617647E+02 -0.13773198477E+02  0.25099096364E+02  0.59301947504E+02  0.50000006340E+02 0.  0.
        -12    1    1    2    0    0  0.14037617647E+02  0.13773198477E+02 -0.25099096364E+02  0.31886052496E+02  0.00000000000E+00 0.  1.
         11    1    3    3    0    0  0.50090105677E+01 -0.46653064630E+01  0.14754292903E+02  0.16264821874E+02  0.51100000000E-03 0. -1.
        -11    1    3    3    0    0 -0.21202106041E+02  0.77959128639E+01 -0.92170690530E+00  0.22608739501E+02  0.51100000000E-03 0.  1.
        -12    1    3    3    0    0  0.21554778263E+01 -0.16903804878E+02  0.11266510366E+02  0.20428386129E+02  0.00000000000E+00 0.  1.
</event>
<event>
 7    1  0.5761011E-013  0.5930196E+02  0.7816164E-02  0.1266605E+00
        -11   -1    0    0    0    0  0.00000000000E+00  0.00000000000E+00  0.45593999997E+02  0.45594000000E+02  0.51100000000E-03 0. -1.
         11   -1    0    0    0    0 -0.00000000000E+00 -0.00000000000E+00 -0.45593999997E+02  0.45594000000E+02  0.51100000000E-03 0.  1.
    9900012    2    1    2    0    0 -0.22028373849E+02 -0.22891100041E+02  0.27327357394E+01  0.59301959792E+02  0.50000028750E+02 0.  0.
        -12    1    1    2    0    0  0.22028373849E+02  0.22891100041E+02 -0.27327357394E+01  0.31886040208E+02  0.00000000000E+00 0.  1.
         11    1    3    3    0    0 -0.20648752279E+02 -0.11578336669E+02  0.13785390892E+02  0.27394631828E+02  0.51100000000E-03 0. -1.
        -11    1    3    3    0    0  0.35062453081E+01 -0.73667186617E+01 -0.19640755313E+02  0.21267852960E+02  0.51100000000E-03 0.  1.
        -12    1    3    3    0    0 -0.48858668788E+01 -0.39460447101E+01  0.85881001596E+01  0.10639475004E+02  0.00000000000E+00 0.  1.
</event>
<event>
 7    1  0.5761011E-013  0.5930192E+02  0.7816164E-02  0.1266605E+00
        -11   -1    0    0    0    0  0.00000000000E+00  0.00000000000E+00  0.45593999997E+02  0.45594000000E+02  0.51100000000E-03 0.  1.
         11   -1    0    0    0    0 -0.00000000000E+00 -0.00000000000E+00 -0.45593999997E+02  0.45594000000E+02  0.51100000000E-03 0. -1.
    9900012    2    1    2    0    0 -0.29223157981E+02 -0.12751975976E+02 -0.34121417041E+00  0.59301917130E+02  0.49999950945E+02 0.  0.
        -12    1    1    2    0    0  0.29223157981E+02  0.12751975976E+02  0.34121417041E+00  0.31886082870E+02  0.00000000000E+00 0.  1.
         11    1    3    3    0    0 -0.34392827449E+02 -0.56379463676E+01  0.10408098494E+02  0.36372813112E+02  0.51100000000E-03 0.  1.
        -11    1    3    3    0    0  0.84568716859E+01 -0.60954223872E+01  0.12005882342E+01  0.10493534446E+02  0.51100000000E-03 0. -1.
         12    1    3    3    0    0 -0.32872022185E+01 -0.10186072210E+01 -0.11949900899E+02  0.12435569573E+02  0.00000000000E+00 0. -1.
</event>
<event>
 7    1  0.5761011E-013  0.5930196E+02  0.7816164E-02  0.1266605E+00
        -11   -1    0    0    0    0  0.00000000000E+00  0.00000000000E+00  0.45593999997E+02  0.45594000000E+02  0.51100000000E-03 0.  1.
         11   -1    0    0    0    0 -0.00000000000E+00 -0.00000000000E+00 -0.45593999997E+02  0.45594000000E+02  0.51100000000E-03 0. -1.
    9900012    2    1    2    0    0 -0.31065178745E+02  0.71832818168E+01 -0.27345971251E+00  0.59301958409E+02  0.50000026228E+02 0.  0.
        -12    1    1    2    0    0  0.31065178745E+02 -0.71832818168E+01  0.27345971251E+00  0.31886041591E+02  0.00000000000E+00 0.  1.
         11    1    3    3    0    0 -0.36714933374E+01  0.93326565419E+01 -0.19603071751E+02  0.22019508709E+02  0.51100000000E-03 0. -1.
        -11    1    3    3    0    0 -0.14773934044E+02 -0.64262229976E+01  0.33135549899E+01  0.16448255715E+02  0.51100000000E-03 0.  1.
         12    1    3    3    0    0 -0.12619751364E+02  0.42768482725E+01  0.16016057048E+02  0.20834193985E+02  0.00000000000E+00 0. -1.
</event>
<event>
 7    1  0.5761011E-013  0.5930192E+02  0.7816164E-02  0.1266605E+00
        -11   -1    0    0    0    0  0.00000000000E+00  0.00000000000E+00  0.45593999997E+02  0.45594000000E+02  0.51100000000E-03 0.  1.
         11   -1    0    0    0    0 -0.00000000000E+00 -0.00000000000E+00 -0.45593999997E+02  0.45594000000E+02  0.51100000000E-03 0. -1.
    9900012    2    1    2    0    0 -0.27899003253E+02  0.13427089853E+02  0.76210845286E+01  0.59301920689E+02  0.49999957437E+02 0.  0.
        -12    1    1    2    0    0  0.27899003253E+02 -0.13427089853E+02 -0.76210845286E+01  0.31886079311E+02  0.00000000000E+00 0.  1.
         11    1    3    3    0    0 -0.15095835353E+02 -0.42947089286E+01  0.21884409098E+02  0.26930579860E+02  0.51100000000E-03 0. -1.
        -11    1    3    3    0    0 -0.27562265688E+01  0.11512140919E+02  0.22694126154E+01  0.12053066303E+02  0.51100000000E-03 0.  1.
         12    1    3    3    0    0 -0.10046941331E+02  0.62096578623E+01 -0.16532737185E+02  0.20318274526E+02  0.00000000000E+00 0. -1.
</event>
<event>
 7    1  0.5761011E-013  0.5930190E+02  0.7816164E-02  0.1266605E+00
        -11   -1    0    0    0    0  0.00000000000E+00  0.00000000000E+00  0.45593999997E+02  0.45594000000E+02  0.51100000000E-03 0.  1.
         11   -1    0    0    0    0 -0.00000000000E+00 -0.00000000000E+00 -0.45593999997E+02  0.45594000000E+02  0.51100000000E-03 0. -1.
    9900012    2    1    2    0    0 -0.31464848582E+02 -0.35915394914E+01 -0.37131654279E+01  0.59301898800E+02  0.49999917516E+02 0.  0.
        -12    1    1    2    0    0  0.31464848582E+02  0.35915394914E+01  0.37131654279E+01  0.31886101200E+02  0.00000000000E+00 0.  1.
         11    1    3    3    0    0 -0.20540583432E+02 -0.10331864130E+02 -0.11638987831E+01  0.23022112083E+02  0.51100000000E-03 0. -1.
        -11    1    3    3    0    0 -0.74781725003E+01  0.19453412555E+02 -0.75843171769E+01  0.22178372151E+02  0.51100000000E-03 0.  1.
        -12    1    3    3    0    0 -0.34460926501E+01 -0.12713087916E+02  0.50350505321E+01  0.14101414567E+02  0.00000000000E+00 0.  1.
</event>
<event>
 7    1  0.5761011E-013  0.5930194E+02  0.7816164E-02  0.1266605E+00
        -11   -1    0    0    0    0  0.00000000000E+00  0.00000000000E+00  0.45593999997E+02  0.45594000000E+02  0.51100000000E-03 0.  1.
         11   -1    0    0    0    0 -0.00000000000E+00 -0.00000000000E+00 -0.45593999997E+02  0.45594000000E+02  0.51100000000E-03 0. -1.
    9900012    2    1    2    0    0  0.24112054900E+02 -0.20425487241E+02 -0.42578039478E+01  0.59301943251E+02  0.49999998583E+02 0.  0.
        -12    1    1    2    0    0 -0.24112054900E+02  0.20425487241E+02  0.42578039478E+01  0.31886056749E+02  0.00000000000E+00 0.  1.
         11    1    3    3    0    0 -0.24684363473E+01  0.11010504199E+02  0.85387020802E+01  0.14150399789E+02  0.51100000000E-03 0. -1.
        -11    1    3    3    0    0  0.14757194988E+01 -0.10523005585E+02 -0.31027228723E+01  0.11069701173E+02  0.51100000000E-03 0.  1.
         12    1    3    3    0    0  0.25104771749E+02 -0.20912985855E+02 -0.96937831557E+01  0.34081842289E+02  0.00000000000E+00 0. -1.
</event>
<event>
 7    1  0.5761011E-013  0.5930191E+02  0.7816164E-02  0.1266605E+00
        -11   -1    0    0    0    0  0.00000000000E+00  0.00000000000E+00  0.45593999997E+02  0.45594000000E+02  0.51100000000E-03 0. -1.
         11   -1    0    0    0    0 -0.00000000000E+00 -0.00000000000E+00 -0.45593999997E+02  0.45594000000E+02  0.51100000000E-03 0.  1.
    9900012    2    1    2    0    0  0.30270368032E+02 -0.78626304712E+01  0.62134089547E+01  0.59301912288E+02  0.49999942114E+02 0.  0.
        -12    1    1    2    0    0 -0.30270368032E+02  0.78626304712E+01 -0.62134089547E+01  0.31886087712E+02  0.00000000000E+00 0.  1.
         11    1    3    3    0    0  0.12560881908E+02  0.10716792443E+02  0.13054821177E+02  0.21048842030E+02  0.51100000000E-03 0. -1.
        -11    1    3    3    0    0  0.22819241567E+02 -0.20310132703E+02 -0.98229646106E+01  0.32089093320E+02  0.51100000000E-03 0.  1.
         12    1    3    3    0    0 -0.51097554421E+01  0.17307097883E+01  0.29815523883E+01  0.61639769381E+01  0.00000000000E+00 0. -1.
</event>
<event>
 7    1  0.5761011E-013  0.5930195E+02  0.7816164E-02  0.1266605E+00
        -11   -1    0    0    0    0  0.00000000000E+00  0.00000000000E+00  0.45593999997E+02  0.45594000000E+02  0.51100000000E-03 0. -1.
         11   -1    0    0    0    0 -0.00000000000E+00 -0.00000000000E+00 -0.45593999997E+02  0.45594000000E+02  0.51100000000E-03 0.  1.
    9900012    2    1    2    0    0 -0.12954980133E+02  0.13241888076E+02  0.25952669592E+02  0.59301950245E+02  0.50000011338E+02 0.  0.
        -12    1    1    2    0    0  0.12954980133E+02 -0.13241888076E+02 -0.25952669592E+02  0.31886049755E+02  0.00000000000E+00 0.  1.
         11    1    3    3    0    0 -0.59241394641E+01  0.22729951181E+02 -0.90477279857E+00  0.23506695284E+02  0.51100000000E-03 0. -1.
        -11    1    3    3    0    0  0.71297055243E+01 -0.53161763385E+01  0.96474005361E+01  0.13121233520E+02  0.51100000000E-03 0.  1.
         12    1    3    3    0    0 -0.14160546193E+02 -0.41718867665E+01  0.17210041854E+02  0.22674021441E+02  0.00000000000E+00 0. -1.
</event>
<event>
 7    1  0.5761011E-013  0.5930195E+02  0.7816164E-02  0.1266605E+00
        -11   -1    0    0    0    0  0.00000000000E+00  0.00000000000E+00  0.45593999997E+02  0.45594000000E+02  0.51100000000E-03 0.  1.
         11   -1    0    0    0    0 -0.00000000000E+00 -0.00000000000E+00 -0.45593999997E+02  0.45594000000E+02  0.51100000000E-03 0. -1.
    9900012    2    1    2    0    0 -0.18792838979E+02 -0.21599012326E+02 -0.14036811702E+02  0.59301949553E+02  0.50000010077E+02 0.  0.
        -12    1    1    2    0    0  0.18792838979E+02  0.21599012326E+02  0.14036811702E+02  0.31886050447E+02  0.00000000000E+00 0.  1.
         11    1    3    3    0    0 -0.19344594686E+02 -0.21177360447E+02 -0.11050056912E+01  0.28703919191E+02  0.51100000000E-03 0. -1.
        -11    1    3    3    0    0  0.76978191010E+01 -0.43024140941E+01 -0.18668355485E+02  0.20646420579E+02  0.51100000000E-03 0.  1.
        -12    1    3    3    0    0 -0.71460633941E+01  0.38807622154E+01  0.57365494747E+01  0.99516097834E+01  0.00000000000E+00 0.  1.
</event>
<event>
 7    1  0.5761011E-013  0.5930197E+02  0.7816164E-02  0.1266605E+00
        -11   -1    0    0    0    0  0.00000000000E+00  0.00000000000E+00  0.45593999997E+02  0.45594000000E+02  0.51100000000E-03 0.  1.
         11   -1    0    0    0    0 -0.00000000000E+00 -0.00000000000E+00 -0.45593999997E+02  0.45594000000E+02  0.51100000000E-03 0. -1.
    9900012    2    1    2    0    0  0.16990788856E+02  0.25902911155E+02  0.75545528109E+01  0.59301968882E+02  0.50000045328E+02 0.  0.
        -12    1    1    2    0    0 -0.16990788856E+02 -0.25902911155E+02 -0.75545528109E+01  0.31886031118E+02  0.00000000000E+00 0.  1.
         11    1    3    3    0    0 -0.12804886032E+02  0.14737184349E+02 -0.46554382765E+01  0.20070446299E+02  0.51100000000E-03 0. -1.
        -11    1    3    3    0    0  0.30914216540E+01  0.72015519407E+01  0.91720688744E+01  0.12064248252E+02  0.51100000000E-03 0.  1.
         12    1    3    3    0    0  0.26704253235E+02  0.39641748652E+01  0.30379222130E+01  0.27167274331E+02  0.00000000000E+00 0. -1.
</event>
<event>
 7    1  0.5761011E-013  0.5930194E+02  0.7816164E-02  0.1266605E+00
        -11   -1    0    0    0    0  0.00000000000E+00  0.00000000000E+00  0.45593999997E+02  0.45594000000E+02  0.51100000000E-03 0.  1.
         11   -1    0    0    0    0 -0.00000000000E+00 -0.00000000000E+00 -0.45593999997E+02  0.45594000000E+02  0.51100000000E-03 0. -1.
    9900012    2    1    2    0    0  0.22731811717E+02 -0.18245692683E+02  0.12925962980E+02  0.59301935891E+02  0.49999985161E+02 0.  0.
        -12    1    1    2    0    0 -0.22731811717E+02  0.18245692683E+02 -0.12925962980E+02  0.31886064109E+02  0.00000000000E+00 0.  1.
         11    1    3    3    0    0  0.84393600224E+01 -0.18380260073E+02  0.28294154915E+01  0.20422104451E+02  0.51100000000E-03 0. -1.
        -11    1    3    3    0    0  0.32660487854E+01  0.12927889946E+02  0.16145620390E+02  0.20939877535E+02  0.51100000000E-03 0.  1.
        -12    1    3    3    0    0  0.11026402909E+02 -0.12793322556E+02 -0.60490729016E+01  0.17939953905E+02  0.00000000000E+00 0.  1.
</event>
<event>
 7    1  0.5761011E-013  0.5930192E+02  0.7816164E-02  0.1266605E+00
        -11   -1    0    0    0    0  0.00000000000E+00  0.00000000000E+00  0.45593999997E+02  0.45594000000E+02  0.51100000000E-03 0.  1.
         11   -1    0    0    0    0 -0.00000000000E+00 -0.00000000000E+00 -0.45593999997E+02  0.45594000000E+02  0.51100000000E-03 0. -1.
    9900012    2    1    2    0    0  0.15205045306E+02 -0.26659784693E+02 -0.86478120229E+01  0.59301918782E+02  0.49999953958E+02 0.  0.
        -12    1    1    2    0    0 -0.15205045306E+02  0.26659784693E+02  0.86478120229E+01  0.31886081218E+02  0.00000000000E+00 0.  1.
         11    1    3    3    0    0  0.26209688603E+02 -0.11513849577E+02 -0.16321437147E+02  0.32953085129E+02  0.51100000000E-03 0. -1.
        -11    1    3    3    0    0  0.31287582093E+01 -0.33725391271E+01  0.64379260707E+01  0.79126506589E+01  0.51100000000E-03 0.  1.
         12    1    3    3    0    0 -0.14133401506E+02 -0.11773395989E+02  0.12356990535E+01  0.18436182994E+02  0.00000000000E+00 0. -1.
</event>
<event>
 7    1  0.6799451E-013  0.5930193E+02  0.7816164E-02  0.1266605E+00
        -11   -1    0    0    0    0  0.00000000000E+00  0.00000000000E+00  0.45593999997E+02  0.45594000000E+02  0.51100000000E-03 0. -1.
         11   -1    0    0    0    0 -0.00000000000E+00 -0.00000000000E+00 -0.45593999997E+02  0.45594000000E+02  0.51100000000E-03 0.  1.
    9900012    2    1    2    0    0  0.11207274751E+02 -0.74412084109E+01  0.28909291193E+02  0.59301926123E+02  0.49999967347E+02 0.  0.
        -12    1    1    2    0    0 -0.11207274751E+02  0.74412084109E+01 -0.28909291193E+02  0.31886073877E+02  0.00000000000E+00 0.  1.
         11    1    3    3    0    0  0.17319142655E+01 -0.13563157441E+02  0.30788294943E+02  0.33687948477E+02  0.51100000000E-03 0. -1.
        -11    1    3    3    0    0  0.12195861643E+02  0.12002645503E+02  0.31661874582E+01  0.17401933329E+02  0.51100000000E-03 0.  1.
        -12    1    3    3    0    0 -0.27205011572E+01 -0.58806964730E+01 -0.50451912084E+01  0.82120443181E+01  0.00000000000E+00 0.  1.
</event>
<event>
 7    1  0.5761011E-013  0.5930196E+02  0.7816164E-02  0.1266605E+00
        -11   -1    0    0    0    0  0.00000000000E+00  0.00000000000E+00  0.45593999997E+02  0.45594000000E+02  0.51100000000E-03 0. -1.
         11   -1    0    0    0    0 -0.00000000000E+00 -0.00000000000E+00 -0.45593999997E+02  0.45594000000E+02  0.51100000000E-03 0.  1.
    9900012    2    1    2    0    0 -0.27587737595E+02  0.10816875255E+02  0.11774194662E+02  0.59301957351E+02  0.50000024299E+02 0.  0.
        -12    1    1    2    0    0  0.27587737595E+02 -0.10816875255E+02 -0.11774194662E+02  0.31886042649E+02  0.00000000000E+00 0.  1.
         11    1    3    3    0    0 -0.58944782224E+01  0.17783055071E+02 -0.14207472501E+02  0.23512426423E+02  0.51100000000E-03 0.  1.
        -11    1    3    3    0    0 -0.16139079032E+02 -0.18920412723E+01  0.21776329921E+02  0.27170907921E+02  0.51100000000E-03 0. -1.
         12    1    3    3    0    0 -0.55541803403E+01 -0.50741385440E+01  0.42053372415E+01  0.86186230067E+01  0.00000000000E+00 0. -1.
</event>
<event>
 7    1  0.5761011E-013  0.5930195E+02  0.7816164E-02  0.1266605E+00
        -11   -1    0    0    0    0  0.00000000000E+00  0.00000000000E+00  0.45593999997E+02  0.45594000000E+02  0.51100000000E-03 0. -1.
         11   -1    0    0    0    0 -0.00000000000E+00 -0.00000000000E+00 -0.45593999997E+02  0.45594000000E+02  0.51100000000E-03 0.  1.
    9900012    2    1    2    0    0 -0.22062041855E+02 -0.67564454064E+01  0.22007649255E+02  0.59301954916E+02  0.50000019858E+02 0.  0.
        -12    1    1    2    0    0  0.22062041855E+02  0.67564454064E+01 -0.22007649255E+02  0.31886045084E+02  0.00000000000E+00 0.  1.
         11    1    3    3    0    0 -0.22708395118E+02 -0.96888738195E+01 -0.17472328942E+01  0.24750723379E+02  0.51100000000E-03 0.  1.
        -11    1    3    3    0    0  0.59471134281E+01  0.11987937582E+02  0.18454072297E+02  0.22795429151E+02  0.51100000000E-03 0. -1.
        -12    1    3    3    0    0 -0.53007601654E+01 -0.90555091690E+01  0.53008098529E+01  0.11755802386E+02  0.00000000000E+00 0.  1.
</event>
<event>
 7    1  0.5761011E-013  0.5930198E+02  0.7816164E-02  0.1266605E+00
        -11   -1    0    0    0    0  0.00000000000E+00  0.00000000000E+00  0.45593999997E+02  0.45594000000E+02  0.51100000000E-03 0.  1.
         11   -1    0    0    0    0 -0.00000000000E+00 -0.00000000000E+00 -0.45593999997E+02  0.45594000000E+02  0.51100000000E-03 0. -1.
    9900012    2    1    2    0    0  0.39283289233E+01 -0.96956859560E+01 -0.30121093718E+02  0.59301978281E+02  0.50000062470E+02 0.  0.
        -12    1    1    2    0    0 -0.39283289233E+01  0.96956859560E+01  0.30121093718E+02  0.31886021719E+02  0.00000000000E+00 0.  1.
         11    1    3    3    0    0 -0.94706865351E+01  0.81360195633E+01 -0.66799894929E+01  0.14160189888E+02  0.51100000000E-03 0. -1.
        -11    1    3    3    0    0  0.18866011452E+02 -0.60491865451E+01 -0.17893358891E+01  0.19892731566E+02  0.51100000000E-03 0.  1.
        -12    1    3    3    0    0 -0.54669959934E+01 -0.11782518974E+02 -0.21651768336E+02  0.25249056827E+02  0.00000000000E+00 0.  1.
</event>
<event>
 7    1  0.5761011E-013  0.5930194E+02  0.7816164E-02  0.1266605E+00
        -11   -1    0    0    0    0  0.00000000000E+00  0.00000000000E+00  0.45593999997E+02  0.45594000000E+02  0.51100000000E-03 0.  1.
         11   -1    0    0    0    0 -0.00000000000E+00 -0.00000000000E+00 -0.45593999997E+02  0.45594000000E+02  0.51100000000E-03 0. -1.
    9900012    2    1    2    0    0  0.31782038153E+01  0.31212823011E+02 -0.56903081564E+01  0.59301938676E+02  0.49999990240E+02 0.  0.
        -12    1    1    2    0    0 -0.31782038153E+01 -0.31212823011E+02  0.56903081564E+01  0.31886061324E+02  0.00000000000E+00 0.  1.
         11    1    3    3    0    0  0.13137059731E+02  0.34745387174E+01 -0.16489107464E+02  0.21366923571E+02  0.51100000000E-03 0. -1.
        -11    1    3    3    0    0 -0.16184074581E+02  0.24135885029E+02  0.98321531886E+01  0.30677947336E+02  0.51100000000E-03 0.  1.
        -12    1    3    3    0    0  0.62252186645E+01  0.36023992645E+01  0.96664611895E+00  0.72570677688E+01  0.00000000000E+00 0.  1.
</event>
<event>
 7    1  0.5761011E-013  0.5930194E+02  0.7816164E-02  0.1266605E+00
        -11   -1    0    0    0    0  0.00000000000E+00  0.00000000000E+00  0.45593999997E+02  0.45594000000E+02  0.51100000000E-03 0.  1.
         11   -1    0    0    0    0 -0.00000000000E+00 -0.00000000000E+00 -0.45593999997E+02  0.45594000000E+02  0.51100000000E-03 0. -1.
    9900012    2    1    2    0    0 -0.71559331862E+01 -0.85605111320E+01 -0.29870233943E+02  0.59301943386E+02  0.49999998830E+02 0.  0.
        -12    1    1    2    0    0  0.71559331862E+01  0.85605111320E+01  0.29870233943E+02  0.31886056614E+02  0.00000000000E+00 0.  1.
         11    1    3    3    0    0  0.14088656469E+02 -0.57067525559E+01 -0.23233555726E+02  0.27764282410E+02  0.51100000000E-03 0. -1.
        -11    1    3    3    0    0 -0.47798788998E+01 -0.78650778019E+00  0.80386082063E+01  0.93853640814E+01  0.51100000000E-03 0.  1.
         12    1    3    3    0    0 -0.16464710755E+02 -0.20672507959E+01 -0.14675286423E+02  0.22152296895E+02  0.00000000000E+00 0. -1.
</event>
<event>
 7    1  0.5761011E-013  0.5930195E+02  0.7816164E-02  0.1266605E+00
        -11   -1    0    0    0    0  0.00000000000E+00  0.00000000000E+00  0.45593999997E+02  0.45594000000E+02  0.51100000000E-03 0.  1.
         11   -1    0    0    0    0 -0.00000000000E+00 -0.00000000000E+00 -0.45593999997E+02  0.45594000000E+02  0.51100000000E-03 0. -1.
    9900012    2    1    2    0    0  0.32402591707E+00 -0.30227157357E+02 -0.10145660142E+02  0.59301945769E+02  0.50000003177E+02 0.  0.
        -12    1    1    2    0    0 -0.32402591707E+00  0.30227157357E+02  0.10145660142E+02  0.31886054231E+02  0.00000000000E+00 0.  1.
         11    1    3    3    0    0  0.12411215103E+02 -0.11249464935E+02 -0.13321521441E+02  0.21402141374E+02  0.51100000000E-03 0. -1.
        -11    1    3    3    0    0 -0.17814046357E+02 -0.10613487070E+01  0.61106908600E+01  0.18862853753E+02  0.51100000000E-03 0.  1.
        -12    1    3    3    0    0  0.57268571711E+01 -0.17916343715E+02 -0.29348295606E+01  0.19036950642E+02  0.00000000000E+00 0.  1.
</event>
<event>
 7    1  0.5761011E-013  0.5930193E+02  0.7816164E-02  0.1266605E+00
        -11   -1    0    0    0    0  0.00000000000E+00  0.00000000000E+00  0.45593999997E+02  0.45594000000E+02  0.51100000000E-03 0.  1.
         11   -1    0    0    0    0 -0.00000000000E+00 -0.00000000000E+00 -0.45593999997E+02  0.45594000000E+02  0.51100000000E-03 0. -1.
    9900012    2    1    2    0    0  0.26114626684E+02  0.36342640742E+00 -0.18292496541E+02  0.59301933524E+02  0.49999980843E+02 0.  0.
        -12    1    1    2    0    0 -0.26114626684E+02 -0.36342640742E+00  0.18292496541E+02  0.31886066476E+02  0.00000000000E+00 0.  1.
         11    1    3    3    0    0  0.20691088227E+02 -0.13958238662E+01 -0.14261908894E+02  0.25168859764E+02  0.51100000000E-03 0. -1.
        -11    1    3    3    0    0 -0.33331580769E+01  0.26887945506E+01  0.13690506503E+02  0.14344668957E+02  0.51100000000E-03 0.  1.
        -12    1    3    3    0    0  0.87566965346E+01 -0.92954427705E+00 -0.17721094150E+02  0.19788404803E+02  0.00000000000E+00 0.  1.
</event>
<event>
 7    1  0.5761011E-013  0.5930199E+02  0.7816164E-02  0.1266605E+00
        -11   -1    0    0    0    0  0.00000000000E+00  0.00000000000E+00  0.45593999997E+02  0.45594000000E+02  0.51100000000E-03 0.  1.
         11   -1    0    0    0    0 -0.00000000000E+00 -0.00000000000E+00 -0.45593999997E+02  0.45594000000E+02  0.51100000000E-03 0. -1.
    9900012    2    1    2    0    0  0.90148193918E+01  0.63337418538E+01 -0.29922143528E+02  0.59301985388E+02  0.50000075430E+02 0.  0.
        -12    1    1    2    0    0 -0.90148193918E+01 -0.63337418538E+01  0.29922143528E+02  0.31886014612E+02  0.00000000000E+00 0.  1.
         11    1    3    3    0    0  0.19943052908E+02  0.19741735736E+02 -0.22762766901E+02  0.36133157161E+02  0.51100000000E-03 0. -1.
        -11    1    3    3    0    0 -0.92240930788E+01 -0.12570742986E+02  0.17477993529E+00  0.15592883653E+02  0.51100000000E-03 0.  1.
         12    1    3    3    0    0 -0.17041404377E+01 -0.83725089609E+00 -0.73341565621E+01  0.75759445729E+01  0.00000000000E+00 0. -1.
</event>
<event>
 7    1  0.5761011E-013  0.5930195E+02  0.7816164E-02  0.1266605E+00
        -11   -1    0    0    0    0  0.00000000000E+00  0.00000000000E+00  0.45593999997E+02  0.45594000000E+02  0.51100000000E-03 0. -1.
         11   -1    0    0    0    0 -0.00000000000E+00 -0.00000000000E+00 -0.45593999997E+02  0.45594000000E+02  0.51100000000E-03 0.  1.
    9900012    2    1    2    0    0  0.22248946010E+02 -0.20587604490E+02 -0.98921744202E+01  0.59301950198E+02  0.50000011253E+02 0.  0.
        -12    1    1    2    0    0 -0.22248946010E+02  0.20587604490E+02  0.98921744202E+01  0.31886049802E+02  0.00000000000E+00 0.  1.
         11    1    3    3    0    0  0.37173774746E+01 -0.27888360665E+02  0.33561982410E+01  0.28334495279E+02  0.51100000000E-03 0. -1.
        -11    1    3    3    0    0  0.77286026049E+01  0.10577819328E+01 -0.16345676533E+02  0.18111635553E+02  0.51100000000E-03 0.  1.
        -12    1    3    3    0    0  0.10802965931E+02  0.62429742416E+01  0.30973038715E+01  0.12855819365E+02  0.00000000000E+00 0.  1.
</event>
<event>
 7    1  0.5761011E-013  0.5930194E+02  0.7816164E-02  0.1266605E+00
        -11   -1    0    0    0    0  0.00000000000E+00  0.00000000000E+00  0.45593999997E+02  0.45594000000E+02  0.51100000000E-03 0.  1.
         11   -1    0    0    0    0 -0.00000000000E+00 -0.00000000000E+00 -0.45593999997E+02  0.45594000000E+02  0.51100000000E-03 0. -1.
    9900012    2    1    2    0    0 -0.29525755313E+02  0.10984735967E+02  0.49280858418E+01  0.59301942214E+02  0.49999996692E+02 0.  0.
        -12    1    1    2    0    0  0.29525755313E+02 -0.10984735967E+02 -0.49280858418E+01  0.31886057786E+02  0.00000000000E+00 0.  1.
         11    1    3    3    0    0 -0.34170395724E+02  0.13330452187E+02  0.20732217234E+00  0.36679147785E+02  0.51100000000E-03 0. -1.
        -11    1    3    3    0    0  0.57328290797E+01  0.66988736124E+01  0.89637370096E+01  0.12573337599E+02  0.51100000000E-03 0.  1.
         12    1    3    3    0    0 -0.10881886684E+01 -0.90445898324E+01 -0.42429733401E+01  0.10049456830E+02  0.00000000000E+00 0. -1.
</event>
<event>
 7    1  0.5761011E-013  0.5930194E+02  0.7816164E-02  0.1266605E+00
        -11   -1    0    0    0    0  0.00000000000E+00  0.00000000000E+00  0.45593999997E+02  0.45594000000E+02  0.51100000000E-03 0.  1.
         11   -1    0    0    0    0 -0.00000000000E+00 -0.00000000000E+00 -0.45593999997E+02  0.45594000000E+02  0.51100000000E-03 0. -1.
    9900012    2    1    2    0    0 -0.21000430498E+02  0.20911150639E+02  0.11765470437E+02  0.59301943537E+02  0.49999999105E+02 0.  0.
        -12    1    1    2    0    0  0.21000430498E+02 -0.20911150639E+02 -0.11765470437E+02  0.31886056463E+02  0.00000000000E+00 0.  1.
         11    1    3    3    0    0 -0.20173995454E+02  0.24020832276E+02  0.43640294150E+01  0.31670731422E+02  0.51100000000E-03 0. -1.
        -11    1    3    3    0    0  0.21999278729E+01  0.72039922176E+01  0.13363296813E+02  0.15339976809E+02  0.51100000000E-03 0.  1.
         12    1    3    3    0    0 -0.30263629167E+01 -0.10313673854E+02 -0.59618557911E+01  0.12291235306E+02  0.00000000000E+00 0. -1.
</event>
<event>
 7    1  0.5761011E-013  0.5930196E+02  0.7816164E-02  0.1266605E+00
        -11   -1    0    0    0    0  0.00000000000E+00  0.00000000000E+00  0.45593999997E+02  0.45594000000E+02  0.51100000000E-03 0.  1.
         11   -1    0    0    0    0 -0.00000000000E+00 -0.00000000000E+00 -0.45593999997E+02  0.45594000000E+02  0.51100000000E-03 0. -1.
    9900012    2    1    2    0    0 -0.30106755689E+02  0.22071358103E+01 -0.10267977427E+02  0.59301959997E+02  0.50000029125E+02 0.  0.
        -12    1    1    2    0    0  0.30106755689E+02 -0.22071358103E+01  0.10267977427E+02  0.31886040003E+02  0.00000000000E+00 0.  1.
         11    1    3    3    0    0 -0.90063332869E+01 -0.17477669098E+02 -0.62744416102E+01  0.20638594287E+02  0.51100000000E-03 0. -1.
        -11    1    3    3    0    0 -0.21595884392E+02  0.21410324974E+02  0.38172633830E+01  0.30648910880E+02  0.51100000000E-03 0.  1.
         12    1    3    3    0    0  0.49546198983E+00 -0.17255200656E+01 -0.78107991999E+01  0.80144548300E+01  0.00000000000E+00 0. -1.
</event>
<event>
 7    1  0.5761011E-013  0.5930195E+02  0.7816164E-02  0.1266605E+00
        -11   -1    0    0    0    0  0.00000000000E+00  0.00000000000E+00  0.45593999997E+02  0.45594000000E+02  0.51100000000E-03 0.  1.
         11   -1    0    0    0    0 -0.00000000000E+00 -0.00000000000E+00 -0.45593999997E+02  0.45594000000E+02  0.51100000000E-03 0. -1.
    9900012    2    1    2    0    0 -0.28866420129E+02  0.95922498894E+01 -0.95623678962E+01  0.59301947425E+02  0.50000006196E+02 0.  0.
        -12    1    1    2    0    0  0.28866420129E+02 -0.95922498894E+01  0.95623678962E+01  0.31886052575E+02  0.00000000000E+00 0.  1.
         11    1    3    3    0    0 -0.17312905930E+01 -0.10431813965E+02 -0.22875063714E+01  0.10819094019E+02  0.51100000000E-03 0. -1.
        -11    1    3    3    0    0 -0.22143402618E+02  0.29434799264E+02 -0.83734223967E+01  0.37773693096E+02  0.51100000000E-03 0.  1.
        -12    1    3    3    0    0 -0.49917269179E+01 -0.94107354094E+01  0.10985608720E+01  0.10709160311E+02  0.00000000000E+00 0.  1.
</event>
<event>
 7    1  0.5761011E-013  0.5930193E+02  0.7816164E-02  0.1266605E+00
        -11   -1    0    0    0    0  0.00000000000E+00  0.00000000000E+00  0.45593999997E+02  0.45594000000E+02  0.51100000000E-03 0.  1.
         11   -1    0    0    0    0 -0.00000000000E+00 -0.00000000000E+00 -0.45593999997E+02  0.45594000000E+02  0.51100000000E-03 0. -1.
    9900012    2    1    2    0    0 -0.16405116519E+02 -0.10775694802E+02 -0.25129220681E+02  0.59301934415E+02  0.49999982469E+02 0.  0.
        -12    1    1    2    0    0  0.16405116519E+02  0.10775694802E+02  0.25129220681E+02  0.31886065585E+02  0.00000000000E+00 0.  1.
         11    1    3    3    0    0 -0.22261472664E+02 -0.36204758754E+01 -0.31821689701E+02  0.39003858097E+02  0.51100000000E-03 0. -1.
        -11    1    3    3    0    0  0.61281715087E+01 -0.46776456593E+00  0.10813554672E+02  0.12438096906E+02  0.51100000000E-03 0.  1.
        -12    1    3    3    0    0 -0.27181536341E+00 -0.66874543604E+01 -0.41210856520E+01  0.78599794126E+01  0.00000000000E+00 0.  1.
</event>
<event>
 7    1  0.5761011E-013  0.5930194E+02  0.7816164E-02  0.1266605E+00
        -11   -1    0    0    0    0  0.00000000000E+00  0.00000000000E+00  0.45593999997E+02  0.45594000000E+02  0.51100000000E-03 0.  1.
         11   -1    0    0    0    0 -0.00000000000E+00 -0.00000000000E+00 -0.45593999997E+02  0.45594000000E+02  0.51100000000E-03 0. -1.
    9900012    2    1    2    0    0 -0.17649808966E+02 -0.13799058572E+02 -0.22689009697E+02  0.59301938233E+02  0.49999989431E+02 0.  0.
        -12    1    1    2    0    0  0.17649808966E+02  0.13799058572E+02  0.22689009697E+02  0.31886061767E+02  0.00000000000E+00 0.  1.
         11    1    3    3    0    0 -0.15719489613E+02 -0.21556049584E+01 -0.36953278274E+02  0.40215591030E+02  0.51100000000E-03 0. -1.
        -11    1    3    3    0    0 -0.12575992295E+01 -0.36898980020E+01  0.81409982230E+01  0.90262259785E+01  0.51100000000E-03 0.  1.
        -12    1    3    3    0    0 -0.67272012373E+00 -0.79535556112E+01  0.61232703537E+01  0.10060121224E+02  0.00000000000E+00 0.  1.
</event>
<event>
 7    1  0.5761011E-013  0.5930196E+02  0.7816164E-02  0.1266605E+00
        -11   -1    0    0    0    0  0.00000000000E+00  0.00000000000E+00  0.45593999997E+02  0.45594000000E+02  0.51100000000E-03 0.  1.
         11   -1    0    0    0    0 -0.00000000000E+00 -0.00000000000E+00 -0.45593999997E+02  0.45594000000E+02  0.51100000000E-03 0. -1.
    9900012    2    1    2    0    0 -0.18693039138E+01 -0.30848983869E+02  0.78463822757E+01  0.59301955754E+02  0.50000021386E+02 0.  0.
        -12    1    1    2    0    0  0.18693039138E+01  0.30848983869E+02 -0.78463822757E+01  0.31886044246E+02  0.00000000000E+00 0.  1.
         11    1    3    3    0    0 -0.52464070422E+01 -0.12775841771E+01 -0.14783183955E+02  0.15738473125E+02  0.51100000000E-03 0. -1.
        -11    1    3    3    0    0 -0.77457526769E+01 -0.15532355853E+02  0.18123621277E+02  0.25094150938E+02  0.51100000000E-03 0.  1.
         12    1    3    3    0    0  0.11122855805E+02 -0.14039043839E+02  0.45059449540E+01  0.18469331691E+02  0.00000000000E+00 0. -1.
</event>
<event>
 7    1  0.5761011E-013  0.5930194E+02  0.7816164E-02  0.1266605E+00
        -11   -1    0    0    0    0  0.00000000000E+00  0.00000000000E+00  0.45593999997E+02  0.45594000000E+02  0.51100000000E-03 0.  1.
         11   -1    0    0    0    0 -0.00000000000E+00 -0.00000000000E+00 -0.45593999997E+02  0.45594000000E+02  0.51100000000E-03 0. -1.
    9900012    2    1    2    0    0 -0.53030443786E+01  0.17346775038E+02 -0.26223799963E+02  0.59301943982E+02  0.49999999916E+02 0.  0.
        -12    1    1    2    0    0  0.53030443786E+01 -0.17346775038E+02  0.26223799963E+02  0.31886056018E+02  0.00000000000E+00 0.  1.
         11    1    3    3    0    0  0.40282139386E+00  0.61577968813E+01 -0.33523859100E+00  0.61800576600E+01  0.51100000000E-03 0. -1.
        -11    1    3    3    0    0 -0.74612722170E+01  0.39272397071E+00 -0.36871786396E+02  0.37621183494E+02  0.51100000000E-03 0.  1.
        -12    1    3    3    0    0  0.17554064445E+01  0.10796254186E+02  0.10983225023E+02  0.15500702827E+02  0.00000000000E+00 0.  1.
</event>
<event>
 7    1  0.5761011E-013  0.5930196E+02  0.7816164E-02  0.1266605E+00
        -11   -1    0    0    0    0  0.00000000000E+00  0.00000000000E+00  0.45593999997E+02  0.45594000000E+02  0.51100000000E-03 0.  1.
         11   -1    0    0    0    0 -0.00000000000E+00 -0.00000000000E+00 -0.45593999997E+02  0.45594000000E+02  0.51100000000E-03 0. -1.
    9900012    2    1    2    0    0 -0.33707087352E+01 -0.30624175866E+02 -0.82169149862E+01  0.59301960473E+02  0.50000029991E+02 0.  0.
        -12    1    1    2    0    0  0.33707087352E+01  0.30624175866E+02  0.82169149862E+01  0.31886039527E+02  0.00000000000E+00 0.  1.
         11    1    3    3    0    0  0.29560838723E+01 -0.38819024712E+02 -0.72573929182E+01  0.39602081558E+02  0.51100000000E-03 0. -1.
        -11    1    3    3    0    0 -0.48398659405E+01  0.52148258219E+01  0.76629678542E+01  0.10456566706E+02  0.51100000000E-03 0.  1.
        -12    1    3    3    0    0 -0.14869266670E+01  0.29800230243E+01 -0.86224899222E+01  0.92433122092E+01  0.00000000000E+00 0.  1.
</event>
<event>
 7    1  0.5761011E-013  0.5930198E+02  0.7816164E-02  0.1266605E+00
        -11   -1    0    0    0    0  0.00000000000E+00  0.00000000000E+00  0.45593999997E+02  0.45594000000E+02  0.51100000000E-03 0.  1.
         11   -1    0    0    0    0 -0.00000000000E+00 -0.00000000000E+00 -0.45593999997E+02  0.45594000000E+02  0.51100000000E-03 0. -1.
    9900012    2    1    2    0    0  0.28817187342E+02  0.12174248100E+02  0.61705619809E+01  0.59301977384E+02  0.50000060834E+02 0.  0.
        -12    1    1    2    0    0 -0.28817187342E+02 -0.12174248100E+02 -0.61705619809E+01  0.31886022616E+02  0.00000000000E+00 0.  1.
         11    1    3    3    0    0  0.11273520979E+02  0.93243805393E+01 -0.20653408127E+02  0.25310069444E+02  0.51100000000E-03 0. -1.
        -11    1    3    3    0    0  0.34545395409E+01  0.16655267354E+01  0.15235599324E+02  0.15710865978E+02  0.51100000000E-03 0.  1.
        -12    1    3    3    0    0  0.14089126822E+02  0.11843408249E+01  0.11588370784E+02  0.18281041963E+02  0.00000000000E+00 0.  1.
</event>
<event>
 7    1  0.5761011E-013  0.5930195E+02  0.7816164E-02  0.1266605E+00
        -11   -1    0    0    0    0  0.00000000000E+00  0.00000000000E+00  0.45593999997E+02  0.45594000000E+02  0.51100000000E-03 0. -1.
         11   -1    0    0    0    0 -0.00000000000E+00 -0.00000000000E+00 -0.45593999997E+02  0.45594000000E+02  0.51100000000E-03 0.  1.
    9900012    2    1    2    0    0  0.59973944680E+01 -0.24920720025E+02 -0.18966001055E+02  0.59301949398E+02  0.50000009795E+02 0.  0.
        -12    1    1    2    0    0 -0.59973944680E+01  0.24920720025E+02  0.18966001055E+02  0.31886050602E+02  0.00000000000E+00 0.  1.
         11    1    3    3    0    0  0.12942623188E+02 -0.93418648103E+01 -0.42573892185E+01  0.16519906063E+02  0.51100000000E-03 0. -1.
        -11    1    3    3    0    0 -0.15583576740E+02  0.52229048714E+01 -0.11433081376E+02  0.20021037668E+02  0.51100000000E-03 0.  1.
        -12    1    3    3    0    0  0.86383480201E+01 -0.20801760086E+02 -0.32755304609E+01  0.22761005667E+02  0.00000000000E+00 0.  1.
</event>
<event>
 7    1  0.5761011E-013  0.5930195E+02  0.7816164E-02  0.1266605E+00
        -11   -1    0    0    0    0  0.00000000000E+00  0.00000000000E+00  0.45593999997E+02  0.45594000000E+02  0.51100000000E-03 0.  1.
         11   -1    0    0    0    0 -0.00000000000E+00 -0.00000000000E+00 -0.45593999997E+02  0.45594000000E+02  0.51100000000E-03 0. -1.
    9900012    2    1    2    0    0  0.30736692157E+02 -0.69216557672E+01 -0.49057975303E+01  0.59301946423E+02  0.50000004368E+02 0.  0.
        -12    1    1    2    0    0 -0.30736692157E+02  0.69216557672E+01  0.49057975303E+01  0.31886053577E+02  0.00000000000E+00 0.  1.
         11    1    3    3    0    0  0.22992144641E+01  0.15873670667E+02 -0.14459585949E+02  0.21594893695E+02  0.51100000000E-03 0. -1.
        -11    1    3    3    0    0  0.11756039053E+02 -0.10133177072E+02  0.45719986710E+01  0.16179891961E+02  0.51100000000E-03 0.  1.
         12    1    3    3    0    0  0.16681438640E+02 -0.12662149363E+02  0.49817897477E+01  0.21527160767E+02  0.00000000000E+00 0. -1.
</event>
<event>
 7    1  0.5761011E-013  0.5930194E+02  0.7816164E-02  0.1266605E+00
        -11   -1    0    0    0    0  0.00000000000E+00  0.00000000000E+00  0.45593999997E+02  0.45594000000E+02  0.51100000000E-03 0. -1.
         11   -1    0    0    0    0 -0.00000000000E+00 -0.00000000000E+00 -0.45593999997E+02  0.45594000000E+02  0.51100000000E-03 0.  1.
    9900012    2    1    2    0    0 -0.65906604674E+01 -0.30158235922E+02  0.79852699552E+01  0.59301944497E+02  0.50000000855E+02 0.  0.
        -12    1    1    2    0    0  0.65906604674E+01  0.30158235922E+02 -0.79852699552E+01  0.31886055503E+02  0.00000000000E+00 0.  1.
         11    1    3    3    0    0 -0.25343870581E+00 -0.17195904986E+02  0.11153235583E+02  0.20497757040E+02  0.51100000000E-03 0. -1.
        -11    1    3    3    0    0  0.29235009498E+00  0.68510064942E+01 -0.13764177559E+02  0.15377722285E+02  0.51100000000E-03 0.  1.
        -12    1    3    3    0    0 -0.66295718566E+01 -0.19813337430E+02  0.10596211931E+02  0.23426465171E+02  0.00000000000E+00 0.  1.
</event>
<event>
 7    1  0.5761011E-013  0.5930199E+02  0.7816164E-02  0.1266605E+00
        -11   -1    0    0    0    0  0.00000000000E+00  0.00000000000E+00  0.45593999997E+02  0.45594000000E+02  0.51100000000E-03 0.  1.
         11   -1    0    0    0    0 -0.00000000000E+00 -0.00000000000E+00 -0.45593999997E+02  0.45594000000E+02  0.51100000000E-03 0. -1.
    9900012    2    1    2    0    0  0.14949092819E+02 -0.90817771037E+01 -0.26660154063E+02  0.59301986355E+02  0.50000077196E+02 0.  0.
        -12    1    1    2    0    0 -0.14949092819E+02  0.90817771037E+01  0.26660154063E+02  0.31886013645E+02  0.00000000000E+00 0.  1.
         11    1    3    3    0    0 -0.77765828083E+01  0.89308299945E+01  0.64638935990E+01  0.13491363359E+02  0.51100000000E-03 0. -1.
        -11    1    3    3    0    0  0.43588259692E+01 -0.90448320842E+01 -0.55029363681E+01  0.11449482966E+02  0.51100000000E-03 0.  1.
         12    1    3    3    0    0  0.18366849658E+02 -0.89677750140E+01 -0.27621111294E+02  0.34361140030E+02  0.00000000000E+00 0. -1.
</event>
<event>
 7    1  0.5761011E-013  0.5930192E+02  0.7816164E-02  0.1266605E+00
        -11   -1    0    0    0    0  0.00000000000E+00  0.00000000000E+00  0.45593999997E+02  0.45594000000E+02  0.51100000000E-03 0.  1.
         11   -1    0    0    0    0 -0.00000000000E+00 -0.00000000000E+00 -0.45593999997E+02  0.45594000000E+02  0.51100000000E-03 0. -1.
    9900012    2    1    2    0    0 -0.17289806014E+01  0.17200650383E+02 -0.26793100187E+02  0.59301922079E+02  0.49999959971E+02 0.  0.
        -12    1    1    2    0    0  0.17289806014E+01 -0.17200650383E+02  0.26793100187E+02  0.31886077921E+02  0.00000000000E+00 0.  1.
         11    1    3    3    0    0  0.26812746157E+01  0.30849273834E+02 -0.11128684672E+02  0.32904628131E+02  0.51100000000E-03 0. -1.
        -11    1    3    3    0    0 -0.71085277703E+01 -0.10126533346E+02 -0.26577650646E+01  0.12654705057E+02  0.51100000000E-03 0.  1.
        -12    1    3    3    0    0  0.26982725532E+01 -0.35220901053E+01 -0.13006650451E+02  0.13742588891E+02  0.00000000000E+00 0.  1.
</event>
<event>
 7    1  0.5761011E-013  0.5930195E+02  0.7816164E-02  0.1266605E+00
        -11   -1    0    0    0    0  0.00000000000E+00  0.00000000000E+00  0.45593999997E+02  0.45594000000E+02  0.51100000000E-03 0. -1.
         11   -1    0    0    0    0 -0.00000000000E+00 -0.00000000000E+00 -0.45593999997E+02  0.45594000000E+02  0.51100000000E-03 0.  1.
    9900012    2    1    2    0    0 -0.50028411440E+01 -0.31200279310E+02  0.42701903110E+01  0.59301947033E+02  0.50000005480E+02 0.  0.
        -12    1    1    2    0    0  0.50028411440E+01  0.31200279310E+02 -0.42701903110E+01  0.31886052967E+02  0.00000000000E+00 0.  1.
         11    1    3    3    0    0  0.13069319590E+02 -0.28815082842E+02  0.11909086596E+02  0.33807431987E+02  0.51100000000E-03 0. -1.
        -11    1    3    3    0    0 -0.70521743373E+01  0.69113605873E+01 -0.24706545568E+01  0.10178614948E+02  0.51100000000E-03 0.  1.
         12    1    3    3    0    0 -0.11019986396E+02 -0.92965570550E+01 -0.51682417278E+01  0.15315900098E+02  0.00000000000E+00 0. -1.
</event>
<event>
 7    1  0.5761011E-013  0.5930194E+02  0.7816164E-02  0.1266605E+00
        -11   -1    0    0    0    0  0.00000000000E+00  0.00000000000E+00  0.45593999997E+02  0.45594000000E+02  0.51100000000E-03 0. -1.
         11   -1    0    0    0    0 -0.00000000000E+00 -0.00000000000E+00 -0.45593999997E+02  0.45594000000E+02  0.51100000000E-03 0.  1.
    9900012    2    1    2    0    0 -0.30365343369E+02  0.25383885706E+01  0.93927354649E+01  0.59301937622E+02  0.49999988318E+02 0.  0.
        -12    1    1    2    0    0  0.30365343369E+02 -0.25383885706E+01 -0.93927354649E+01  0.31886062378E+02  0.00000000000E+00 0.  1.
         11    1    3    3    0    0 -0.14437442928E+02 -0.69085702788E+01 -0.81420407094E+01  0.17957197130E+02  0.51100000000E-03 0. -1.
        -11    1    3    3    0    0  0.83845945126E+01  0.31772787922E+01  0.13059216900E+02  0.15841075468E+02  0.51100000000E-03 0.  1.
         12    1    3    3    0    0 -0.24312494953E+02  0.62696800572E+01  0.44755592741E+01  0.25503665025E+02  0.00000000000E+00 0. -1.
</event>
<event>
 7    1  0.5761011E-013  0.5930194E+02  0.7816164E-02  0.1266605E+00
        -11   -1    0    0    0    0  0.00000000000E+00  0.00000000000E+00  0.45593999997E+02  0.45594000000E+02  0.51100000000E-03 0.  1.
         11   -1    0    0    0    0 -0.00000000000E+00 -0.00000000000E+00 -0.45593999997E+02  0.45594000000E+02  0.51100000000E-03 0. -1.
    9900012    2    1    2    0    0  0.26431741204E+02 -0.15812193644E+02  0.82497431008E+01  0.59301942355E+02  0.49999996950E+02 0.  0.
        -12    1    1    2    0    0 -0.26431741204E+02  0.15812193644E+02 -0.82497431008E+01  0.31886057645E+02  0.00000000000E+00 0.  1.
         11    1    3    3    0    0  0.16726361260E+02  0.15987954486E+02  0.60000530437E+00  0.23146184487E+02  0.51100000000E-03 0. -1.
        -11    1    3    3    0    0 -0.20787998881E+01 -0.59867969407E+01  0.41250993111E+01  0.75617187974E+01  0.51100000000E-03 0.  1.
         12    1    3    3    0    0  0.11784179832E+02 -0.25813351189E+02  0.35246384854E+01  0.28594039071E+02  0.00000000000E+00 0. -1.
</event>
<event>
 7    1  0.5761011E-013  0.5930195E+02  0.7816164E-02  0.1266605E+00
        -11   -1    0    0    0    0  0.00000000000E+00  0.00000000000E+00  0.45593999997E+02  0.45594000000E+02  0.51100000000E-03 0. -1.
         11   -1    0    0    0    0 -0.00000000000E+00 -0.00000000000E+00 -0.45593999997E+02  0.45594000000E+02  0.51100000000E-03 0.  1.
    9900012    2    1    2    0    0 -0.24359066500E+02 -0.20257326191E+02  0.36050654965E+01  0.59301954739E+02  0.50000019535E+02 0.  0.
        -12    1    1    2    0    0  0.24359066500E+02  0.20257326191E+02 -0.36050654965E+01  0.31886045261E+02  0.00000000000E+00 0.  1.
         11    1    3    3    0    0 -0.10459966976E+02 -0.31629347742E+02  0.14480932124E+02  0.36325252142E+02  0.51100000000E-03 0. -1.
        -11    1    3    3    0    0 -0.11426323262E+02  0.36000233926E+01 -0.76009620643E+01  0.14187870040E+02  0.51100000000E-03 0.  1.
         12    1    3    3    0    0 -0.24727762614E+01  0.77719981588E+01 -0.32749045633E+01  0.87888325572E+01  0.00000000000E+00 0. -1.
</event>
<event>
 7    1  0.5761011E-013  0.5930195E+02  0.7816164E-02  0.1266605E+00
        -11   -1    0    0    0    0  0.00000000000E+00  0.00000000000E+00  0.45593999997E+02  0.45594000000E+02  0.51100000000E-03 0. -1.
         11   -1    0    0    0    0 -0.00000000000E+00 -0.00000000000E+00 -0.45593999997E+02  0.45594000000E+02  0.51100000000E-03 0.  1.
    9900012    2    1    2    0    0 -0.87059470238E+01  0.29906939727E+02 -0.68192146213E+01  0.59301949046E+02  0.50000009151E+02 0.  0.
        -12    1    1    2    0    0  0.87059470238E+01 -0.29906939727E+02  0.68192146213E+01  0.31886050954E+02  0.00000000000E+00 0.  1.
         11    1    3    3    0    0 -0.15007369341E+02  0.82755278380E+01  0.34568100887E+01  0.17482992644E+02  0.51100000000E-03 0. -1.
        -11    1    3    3    0    0  0.11803869450E+02  0.28135039448E+02 -0.30772420040E+01  0.30665635447E+02  0.51100000000E-03 0.  1.
         12    1    3    3    0    0 -0.55024471329E+01 -0.65036275590E+01 -0.71987827061E+01  0.11153320955E+02  0.00000000000E+00 0. -1.
</event>
<event>
 7    1  0.5761011E-013  0.5930195E+02  0.7816164E-02  0.1266605E+00
        -11   -1    0    0    0    0  0.00000000000E+00  0.00000000000E+00  0.45593999997E+02  0.45594000000E+02  0.51100000000E-03 0.  1.
         11   -1    0    0    0    0 -0.00000000000E+00 -0.00000000000E+00 -0.45593999997E+02  0.45594000000E+02  0.51100000000E-03 0. -1.
    9900012    2    1    2    0    0 -0.81726759237E-01  0.30315090820E+02 -0.98847750166E+01  0.59301949949E+02  0.50000010799E+02 0.  0.
        -12    1    1    2    0    0  0.81726759237E-01 -0.30315090820E+02  0.98847750166E+01  0.31886050051E+02  0.00000000000E+00 0.  1.
         11    1    3    3    0    0 -0.21045593669E+02  0.72213577808E+01 -0.11326570196E+02  0.24967102630E+02  0.51100000000E-03 0. -1.
        -11    1    3    3    0    0  0.65939645287E+01  0.60731874688E+01  0.70030894865E+01  0.11375730168E+02  0.51100000000E-03 0.  1.
         12    1    3    3    0    0  0.14369902381E+02  0.17020545571E+02 -0.55612943070E+01  0.22959117151E+02  0.00000000000E+00 0. -1.
</event>
<event>
 7    1  0.5761011E-013  0.5930196E+02  0.7816164E-02  0.1266605E+00
        -11   -1    0    0    0    0  0.00000000000E+00  0.00000000000E+00  0.45593999997E+02  0.45594000000E+02  0.51100000000E-03 0.  1.
         11   -1    0    0    0    0 -0.00000000000E+00 -0.00000000000E+00 -0.45593999997E+02  0.45594000000E+02  0.51100000000E-03 0. -1.
    9900012    2    1    2    0    0  0.23944649559E+02 -0.28489980250E+01 -0.20862808355E+02  0.59301955957E+02  0.50000021756E+02 0.  0.
        -12    1    1    2    0    0 -0.23944649559E+02  0.28489980250E+01  0.20862808355E+02  0.31886044043E+02  0.00000000000E+00 0.  1.
         11    1    3    3    0    0 -0.12881350077E+02  0.72758765176E+01 -0.86995354027E+01  0.17162443748E+02  0.51100000000E-03 0. -1.
        -11    1    3    3    0    0  0.61691759590E+01 -0.73020177766E+01 -0.28236369216E+01  0.99675032656E+01  0.51100000000E-03 0.  1.
         12    1    3    3    0    0  0.30656823677E+02 -0.28228567660E+01 -0.93396360311E+01  0.32172008944E+02  0.00000000000E+00 0. -1.
</event>
<event>
 7    1  0.5761011E-013  0.5930192E+02  0.7816164E-02  0.1266605E+00
        -11   -1    0    0    0    0  0.00000000000E+00  0.00000000000E+00  0.45593999997E+02  0.45594000000E+02  0.51100000000E-03 0.  1.
         11   -1    0    0    0    0 -0.00000000000E+00 -0.00000000000E+00 -0.45593999997E+02  0.45594000000E+02  0.51100000000E-03 0. -1.
    9900012    2    1    2    0    0  0.25771727327E+02 -0.17884569314E+02 -0.57168204076E+01  0.59301924912E+02  0.49999965137E+02 0.  0.
        -12    1    1    2    0    0 -0.25771727327E+02  0.17884569314E+02  0.57168204076E+01  0.31886075088E+02  0.00000000000E+00 0.  1.
         11    1    3    3    0    0  0.27571807635E+01 -0.98314414899E+01 -0.28898960659E+01  0.10611822985E+02  0.51100000000E-03 0. -1.
        -11    1    3    3    0    0  0.84880720578E+01  0.16913214229E+02  0.31752675566E+01  0.19188186656E+02  0.51100000000E-03 0.  1.
        -12    1    3    3    0    0  0.14526474505E+02 -0.24966342053E+02 -0.60021918983E+01  0.29501915271E+02  0.00000000000E+00 0.  1.
</event>
<event>
 7    1  0.5761011E-013  0.5930196E+02  0.7816164E-02  0.1266605E+00
        -11   -1    0    0    0    0  0.00000000000E+00  0.00000000000E+00  0.45593999997E+02  0.45594000000E+02  0.51100000000E-03 0.  1.
         11   -1    0    0    0    0 -0.00000000000E+00 -0.00000000000E+00 -0.45593999997E+02  0.45594000000E+02  0.51100000000E-03 0. -1.
    9900012    2    1    2    0    0  0.90084587593E+01 -0.28050549104E+02  0.12195642016E+02  0.59301963582E+02  0.50000035662E+02 0.  0.
        -12    1    1    2    0    0 -0.90084587593E+01  0.28050549104E+02 -0.12195642016E+02  0.31886036418E+02  0.00000000000E+00 0.  1.
         11    1    3    3    0    0  0.16556076754E+02 -0.47216364946E+00 -0.29915880383E-01  0.16562835241E+02  0.51100000000E-03 0. -1.
        -11    1    3    3    0    0 -0.10916643576E+02 -0.20165697154E+02  0.20768099004E+02  0.30937717840E+02  0.51100000000E-03 0.  1.
        -12    1    3    3    0    0  0.33690255812E+01 -0.74126883013E+01 -0.85425411080E+01  0.11801410501E+02  0.00000000000E+00 0.  1.
</event>
<event>
 7    1  0.5761011E-013  0.5930202E+02  0.7816164E-02  0.1266604E+00
        -11   -1    0    0    0    0  0.00000000000E+00  0.00000000000E+00  0.45593999997E+02  0.45594000000E+02  0.51100000000E-03 0.  1.
         11   -1    0    0    0    0 -0.00000000000E+00 -0.00000000000E+00 -0.45593999997E+02  0.45594000000E+02  0.51100000000E-03 0. -1.
    9900012    2    1    2    0    0  0.87242891430E+01 -0.10564160153E+02 -0.28792372318E+02  0.59302024956E+02  0.50000147594E+02 0.  0.
        -12    1    1    2    0    0 -0.87242891430E+01  0.10564160153E+02  0.28792372318E+02  0.31885975044E+02  0.00000000000E+00 0.  1.
         11    1    3    3    0    0  0.17541352877E+02 -0.12977269126E+02 -0.32148258528E+02  0.38853817076E+02  0.51100000000E-03 0. -1.
        -11    1    3    3    0    0  0.43914744185E+01  0.50196515216E+01  0.52164317546E+00  0.66898475939E+01  0.51100000000E-03 0.  1.
         12    1    3    3    0    0 -0.13208538153E+02 -0.26065425488E+01  0.28342430346E+01  0.13758360286E+02  0.00000000000E+00 0. -1.
</event>
<event>
 7    1  0.5761011E-013  0.5930193E+02  0.7816164E-02  0.1266605E+00
        -11   -1    0    0    0    0  0.00000000000E+00  0.00000000000E+00  0.45593999997E+02  0.45594000000E+02  0.51100000000E-03 0.  1.
         11   -1    0    0    0    0 -0.00000000000E+00 -0.00000000000E+00 -0.45593999997E+02  0.45594000000E+02  0.51100000000E-03 0. -1.
    9900012    2    1    2    0    0 -0.59555623224E+01 -0.24672820270E+02 -0.19300384611E+02  0.59301927354E+02  0.49999969590E+02 0.  0.
        -12    1    1    2    0    0  0.59555623224E+01  0.24672820270E+02  0.19300384611E+02  0.31886072646E+02  0.00000000000E+00 0.  1.
         11    1    3    3    0    0  0.82605285841E+01 -0.30810721800E+02 -0.21175361306E+02  0.38287502361E+02  0.51100000000E-03 0. -1.
        -11    1    3    3    0    0 -0.13149942213E+02 -0.25658567303E+00 -0.22316197024E+01  0.13340425150E+02  0.51100000000E-03 0.  1.
         12    1    3    3    0    0 -0.10661486930E+01  0.63944872029E+01  0.41065963968E+01  0.76739998430E+01  0.00000000000E+00 0. -1.
</event>
<event>
 7    1  0.5761011E-013  0.5930183E+02  0.7816164E-02  0.1266605E+00
        -11   -1    0    0    0    0  0.00000000000E+00  0.00000000000E+00  0.45593999997E+02  0.45594000000E+02  0.51100000000E-03 0.  1.
         11   -1    0    0    0    0 -0.00000000000E+00 -0.00000000000E+00 -0.45593999997E+02  0.45594000000E+02  0.51100000000E-03 0. -1.
    9900012    2    1    2    0    0  0.23606993205E+02  0.19413737385E+02 -0.90854182464E+01  0.59301825062E+02  0.49999783035E+02 0.  0.
        -12    1    1    2    0    0 -0.23606993205E+02 -0.19413737385E+02  0.90854182464E+01  0.31886174938E+02  0.00000000000E+00 0.  1.
         11    1    3    3    0    0  0.16356307402E+02  0.25655491131E+02 -0.22538158854E+02  0.37864252558E+02  0.51100000000E-03 0. -1.
        -11    1    3    3    0    0 -0.29581582260E+00 -0.87365704602E+01  0.69102916409E+01  0.11143038241E+02  0.51100000000E-03 0.  1.
        -12    1    3    3    0    0  0.75465016256E+01  0.24948167145E+01  0.65424489667E+01  0.10294534264E+02  0.00000000000E+00 0.  1.
</event>
<event>
 7    1  0.5761011E-013  0.5930194E+02  0.7816164E-02  0.1266605E+00
        -11   -1    0    0    0    0  0.00000000000E+00  0.00000000000E+00  0.45593999997E+02  0.45594000000E+02  0.51100000000E-03 0. -1.
         11   -1    0    0    0    0 -0.00000000000E+00 -0.00000000000E+00 -0.45593999997E+02  0.45594000000E+02  0.51100000000E-03 0.  1.
    9900012    2    1    2    0    0 -0.18068097091E+02  0.18582244719E+02  0.18573237912E+02  0.59301935367E+02  0.49999984204E+02 0.  0.
        -12    1    1    2    0    0  0.18068097091E+02 -0.18582244719E+02 -0.18573237912E+02  0.31886064633E+02  0.00000000000E+00 0.  1.
         11    1    3    3    0    0 -0.21314677324E+02  0.29147860066E+02  0.97594046152E+01  0.37405336445E+02  0.51100000000E-03 0. -1.
        -11    1    3    3    0    0  0.90657834499E+01 -0.10587563757E+02  0.44800582905E+01  0.14640896776E+02  0.51100000000E-03 0.  1.
        -12    1    3    3    0    0 -0.58192032165E+01  0.21948409582E-01  0.43337750066E+01  0.72557021449E+01  0.00000000000E+00 0.  1.
</event>
<event>
 7    1  0.5761011E-013  0.5930188E+02  0.7816164E-02  0.1266605E+00
        -11   -1    0    0    0    0  0.00000000000E+00  0.00000000000E+00  0.45593999997E+02  0.45594000000E+02  0.51100000000E-03 0. -1.
         11   -1    0    0    0    0 -0.00000000000E+00 -0.00000000000E+00 -0.45593999997E+02  0.45594000000E+02  0.51100000000E-03 0.  1.
    9900012    2    1    2    0    0  0.16507725433E+02  0.56022391066E+01  0.26698965054E+02  0.59301877361E+02  0.49999878416E+02 0.  0.
        -12    1    1    2    0    0 -0.16507725433E+02 -0.56022391066E+01 -0.26698965054E+02  0.31886122639E+02  0.00000000000E+00 0.  1.
         11    1    3    3    0    0  0.63554194698E+01  0.19420320009E+02  0.20578103275E+01  0.20537155828E+02  0.51100000000E-03 0.  1.
        -11    1    3    3    0    0  0.16119760427E+02 -0.16630257588E+02  0.17395066961E+02  0.28965505321E+02  0.51100000000E-03 0. -1.
         12    1    3    3    0    0 -0.59674544632E+01  0.28121766850E+01  0.72460877650E+01  0.97992162123E+01  0.00000000000E+00 0. -1.
</event>
<event>
 7    1  0.5761011E-013  0.5930207E+02  0.7816164E-02  0.1266604E+00
        -11   -1    0    0    0    0  0.00000000000E+00  0.00000000000E+00  0.45593999997E+02  0.45594000000E+02  0.51100000000E-03 0.  1.
         11   -1    0    0    0    0 -0.00000000000E+00 -0.00000000000E+00 -0.45593999997E+02  0.45594000000E+02  0.51100000000E-03 0. -1.
    9900012    2    1    2    0    0  0.37535340527E+01 -0.26475947082E+02 -0.17368010354E+02  0.59302069319E+02  0.50000228500E+02 0.  0.
        -12    1    1    2    0    0 -0.37535340527E+01  0.26475947082E+02  0.17368010354E+02  0.31885930681E+02  0.00000000000E+00 0.  1.
         11    1    3    3    0    0 -0.20516395023E+01 -0.99573350822E+01 -0.85105924855E+01  0.13258504113E+02  0.51100000000E-03 0. -1.
        -11    1    3    3    0    0 -0.72506118761E+01  0.11850799515E+02 -0.38383539662E+01  0.14413389024E+02  0.51100000000E-03 0.  1.
        -12    1    3    3    0    0  0.13055785431E+02 -0.28369411514E+02 -0.50190639018E+01  0.31630176183E+02  0.00000000000E+00 0.  1.
</event>
<event>
 7    1  0.5761011E-013  0.5930197E+02  0.7816164E-02  0.1266605E+00
        -11   -1    0    0    0    0  0.00000000000E+00  0.00000000000E+00  0.45593999997E+02  0.45594000000E+02  0.51100000000E-03 0.  1.
         11   -1    0    0    0    0 -0.00000000000E+00 -0.00000000000E+00 -0.45593999997E+02  0.45594000000E+02  0.51100000000E-03 0. -1.
    9900012    2    1    2    0    0  0.28729524093E+02  0.12113864487E+02 -0.66774114894E+01  0.59301967139E+02  0.50000042150E+02 0.  0.
        -12    1    1    2    0    0 -0.28729524093E+02 -0.12113864487E+02  0.66774114894E+01  0.31886032861E+02  0.00000000000E+00 0.  1.
         11    1    3    3    0    0  0.13988768800E+02  0.32146114299E+01 -0.68923095458E+01  0.15922415342E+02  0.51100000000E-03 0. -1.
        -11    1    3    3    0    0 -0.45784592966E+01  0.16554806782E+02  0.10563510200E+02  0.20164614182E+02  0.51100000000E-03 0.  1.
        -12    1    3    3    0    0  0.19319214589E+02 -0.76555537243E+01 -0.10348612143E+02  0.23214937615E+02  0.00000000000E+00 0.  1.
</event>
<event>
 7    1  0.5761011E-013  0.5930196E+02  0.7816164E-02  0.1266605E+00
        -11   -1    0    0    0    0  0.00000000000E+00  0.00000000000E+00  0.45593999997E+02  0.45594000000E+02  0.51100000000E-03 0.  1.
         11   -1    0    0    0    0 -0.00000000000E+00 -0.00000000000E+00 -0.45593999997E+02  0.45594000000E+02  0.51100000000E-03 0. -1.
    9900012    2    1    2    0    0  0.24368267983E+02 -0.13151018288E+02 -0.15810049057E+02  0.59301962026E+02  0.50000032824E+02 0.  0.
        -12    1    1    2    0    0 -0.24368267983E+02  0.13151018288E+02  0.15810049057E+02  0.31886037974E+02  0.00000000000E+00 0.  1.
         11    1    3    3    0    0  0.21350251731E+01 -0.10385705964E+02 -0.84381217034E+01  0.13550760827E+02  0.51100000000E-03 0. -1.
        -11    1    3    3    0    0  0.28609579722E+02  0.10405280779E+02 -0.37200324248E+01  0.30669472794E+02  0.51100000000E-03 0.  1.
        -12    1    3    3    0    0 -0.63763369117E+01 -0.13170593104E+02 -0.36518949285E+01  0.15081728405E+02  0.00000000000E+00 0.  1.
</event>
<event>
 7    1  0.5761011E-013  0.5930190E+02  0.7816164E-02  0.1266605E+00
        -11   -1    0    0    0    0  0.00000000000E+00  0.00000000000E+00  0.45593999997E+02  0.45594000000E+02  0.51100000000E-03 0.  1.
         11   -1    0    0    0    0 -0.00000000000E+00 -0.00000000000E+00 -0.45593999997E+02  0.45594000000E+02  0.51100000000E-03 0. -1.
    9900012    2    1    2    0    0 -0.23849755391E+02  0.17841299307E+02 -0.11384233196E+02  0.59301897092E+02  0.49999914401E+02 0.  0.
        -12    1    1    2    0    0  0.23849755391E+02 -0.17841299307E+02  0.11384233196E+02  0.31886102908E+02  0.00000000000E+00 0.  1.
         11    1    3    3    0    0 -0.19168063807E+02  0.14357093485E+02 -0.13936487863E+02  0.27708599706E+02  0.51100000000E-03 0. -1.
        -11    1    3    3    0    0 -0.71782867727E+01 -0.49044383189E+00  0.15895773453E+02  0.17448322271E+02  0.51100000000E-03 0.  1.
        -12    1    3    3    0    0  0.24965951886E+01  0.39746496545E+01 -0.13343518786E+02  0.14144975115E+02  0.00000000000E+00 0.  1.
</event>
<event>
 7    1  0.5761011E-013  0.5930194E+02  0.7816164E-02  0.1266605E+00
        -11   -1    0    0    0    0  0.00000000000E+00  0.00000000000E+00  0.45593999997E+02  0.45594000000E+02  0.51100000000E-03 0.  1.
         11   -1    0    0    0    0 -0.00000000000E+00 -0.00000000000E+00 -0.45593999997E+02  0.45594000000E+02  0.51100000000E-03 0. -1.
    9900012    2    1    2    0    0  0.11674560106E+02 -0.65449696579E+01 -0.28941127808E+02  0.59301939405E+02  0.49999991569E+02 0.  0.
        -12    1    1    2    0    0 -0.11674560106E+02  0.65449696579E+01  0.28941127808E+02  0.31886060595E+02  0.00000000000E+00 0.  1.
         11    1    3    3    0    0 -0.14160391675E+02  0.10519450890E+02 -0.12024968864E+02  0.21348897298E+02  0.51100000000E-03 0. -1.
        -11    1    3    3    0    0  0.21003852721E+02 -0.13256871842E+02 -0.19198080820E+02  0.31392240882E+02  0.51100000000E-03 0.  1.
        -12    1    3    3    0    0  0.48310990592E+01 -0.38075487058E+01  0.22819218757E+01  0.65608012250E+01  0.00000000000E+00 0.  1.
</event>
<event>
 7    1  0.5761011E-013  0.5930213E+02  0.7816164E-02  0.1266604E+00
        -11   -1    0    0    0    0  0.00000000000E+00  0.00000000000E+00  0.45593999997E+02  0.45594000000E+02  0.51100000000E-03 0. -1.
         11   -1    0    0    0    0 -0.00000000000E+00 -0.00000000000E+00 -0.45593999997E+02  0.45594000000E+02  0.51100000000E-03 0.  1.
    9900012    2    1    2    0    0 -0.16414186006E+02  0.23455405331E+02  0.14040193227E+02  0.59302132169E+02  0.50000343123E+02 0.  0.
        -12    1    1    2    0    0  0.16414186006E+02 -0.23455405331E+02 -0.14040193227E+02  0.31885867831E+02  0.00000000000E+00 0.  1.
         11    1    3    3    0    0 -0.23202108747E+02  0.22278795358E+02  0.62369868105E+01  0.32765570003E+02  0.51100000000E-03 0. -1.
        -11    1    3    3    0    0  0.66376865867E+01 -0.45055641931E+01  0.15212408229E+02  0.17198149793E+02  0.51100000000E-03 0.  1.
        -12    1    3    3    0    0  0.15023615453E+00  0.56821741660E+01 -0.74092018119E+01  0.93384123728E+01  0.00000000000E+00 0.  1.
</event>
<event>
 7    1  0.5761011E-013  0.5930194E+02  0.7816164E-02  0.1266605E+00
        -11   -1    0    0    0    0  0.00000000000E+00  0.00000000000E+00  0.45593999997E+02  0.45594000000E+02  0.51100000000E-03 0.  1.
         11   -1    0    0    0    0 -0.00000000000E+00 -0.00000000000E+00 -0.45593999997E+02  0.45594000000E+02  0.51100000000E-03 0. -1.
    9900012    2    1    2    0    0  0.30705707327E+02  0.78834753614E+01 -0.34250523262E+01  0.59301943021E+02  0.49999998164E+02 0.  0.
        -12    1    1    2    0    0 -0.30705707327E+02 -0.78834753614E+01  0.34250523262E+01  0.31886056979E+02  0.00000000000E+00 0.  1.
         11    1    3    3    0    0  0.81363610564E+01 -0.47344137250E+01 -0.13753242718E+02  0.16666335233E+02  0.51100000000E-03 0. -1.
        -11    1    3    3    0    0  0.23063163137E+02  0.13952465099E+02  0.19553970461E+02  0.33300728780E+02  0.51100000000E-03 0.  1.
        -12    1    3    3    0    0 -0.49381686646E+00 -0.13345760121E+01 -0.92257800689E+01  0.93348790088E+01  0.00000000000E+00 0.  1.
</event>
<event>
 7    1  0.5761011E-013  0.5930203E+02  0.7816164E-02  0.1266604E+00
        -11   -1    0    0    0    0  0.00000000000E+00  0.00000000000E+00  0.45593999997E+02  0.45594000000E+02  0.51100000000E-03 0.  1.
         11   -1    0    0    0    0 -0.00000000000E+00 -0.00000000000E+00 -0.45593999997E+02  0.45594000000E+02  0.51100000000E-03 0. -1.
    9900012    2    1    2    0    0  0.39674607034E+01  0.86493744763E+01 -0.30432918951E+02  0.59302031626E+02  0.50000159758E+02 0.  0.
        -12    1    1    2    0    0 -0.39674607034E+01 -0.86493744763E+01  0.30432918951E+02  0.31885968374E+02  0.00000000000E+00 0.  1.
         11    1    3    3    0    0  0.46056040746E+01  0.20861619308E+02 -0.21790798002E+02  0.30516514002E+02  0.51100000000E-03 0. -1.
        -11    1    3    3    0    0  0.67167890007E+00 -0.14290517887E+02  0.48235696263E+01  0.15097578555E+02  0.51100000000E-03 0.  1.
        -12    1    3    3    0    0 -0.13098222712E+01  0.20782730548E+01 -0.13465690576E+02  0.13687939069E+02  0.00000000000E+00 0.  1.
</event>
<event>
 7    1  0.5761011E-013  0.5930195E+02  0.7816164E-02  0.1266605E+00
        -11   -1    0    0    0    0  0.00000000000E+00  0.00000000000E+00  0.45593999997E+02  0.45594000000E+02  0.51100000000E-03 0.  1.
         11   -1    0    0    0    0 -0.00000000000E+00 -0.00000000000E+00 -0.45593999997E+02  0.45594000000E+02  0.51100000000E-03 0. -1.
    9900012    2    1    2    0    0  0.11650129940E+02 -0.22194693484E+02 -0.19707613128E+02  0.59301953496E+02  0.50000017268E+02 0.  0.
        -12    1    1    2    0    0 -0.11650129940E+02  0.22194693484E+02  0.19707613128E+02  0.31886046504E+02  0.00000000000E+00 0.  1.
         11    1    3    3    0    0 -0.14104071115E+02 -0.13237799168E+02 -0.23790928130E+02  0.30662231008E+02  0.51100000000E-03 0. -1.
        -11    1    3    3    0    0  0.59059067323E+01  0.42771729692E+00  0.30490661041E+01  0.66602913439E+01  0.51100000000E-03 0.  1.
         12    1    3    3    0    0  0.19848294323E+02 -0.93846116124E+01  0.10342488988E+01  0.21979431144E+02  0.00000000000E+00 0. -1.
</event>
<event>
 7    1  0.5761011E-013  0.5930191E+02  0.7816164E-02  0.1266605E+00
        -11   -1    0    0    0    0  0.00000000000E+00  0.00000000000E+00  0.45593999997E+02  0.45594000000E+02  0.51100000000E-03 0.  1.
         11   -1    0    0    0    0 -0.00000000000E+00 -0.00000000000E+00 -0.45593999997E+02  0.45594000000E+02  0.51100000000E-03 0. -1.
    9900012    2    1    2    0    0  0.29706287722E+02 -0.67368176770E+00  0.11567416523E+02  0.59301913655E+02  0.49999944608E+02 0.  0.
        -12    1    1    2    0    0 -0.29706287722E+02  0.67368176770E+00 -0.11567416523E+02  0.31886086345E+02  0.00000000000E+00 0.  1.
         11    1    3    3    0    0  0.41197155631E+02 -0.45530223431E+01 -0.23212977144E+00  0.41448637240E+02  0.51100000000E-03 0. -1.
        -11    1    3    3    0    0 -0.64541886111E+01  0.49814106036E+01  0.62077546525E+01  0.10247303075E+02  0.51100000000E-03 0.  1.
         12    1    3    3    0    0 -0.50366792974E+01 -0.11020700282E+01  0.55917916415E+01  0.76059733403E+01  0.00000000000E+00 0. -1.
</event>
<event>
 7    1  0.5761011E-013  0.5930202E+02  0.7816164E-02  0.1266604E+00
        -11   -1    0    0    0    0  0.00000000000E+00  0.00000000000E+00  0.45593999997E+02  0.45594000000E+02  0.51100000000E-03 0. -1.
         11   -1    0    0    0    0 -0.00000000000E+00 -0.00000000000E+00 -0.45593999997E+02  0.45594000000E+02  0.51100000000E-03 0.  1.
    9900012    2    1    2    0    0 -0.15066098006E+02 -0.79019100372E+01  0.26968277236E+02  0.59302023953E+02  0.50000145765E+02 0.  0.
        -12    1    1    2    0    0  0.15066098006E+02  0.79019100372E+01 -0.26968277236E+02  0.31885976047E+02  0.00000000000E+00 0.  1.
         11    1    3    3    0    0 -0.12565117984E+02  0.38871531923E+00  0.30256889188E+02  0.32764502638E+02  0.51100000000E-03 0. -1.
        -11    1    3    3    0    0  0.42751458639E+01  0.58094137143E+01 -0.74296206449E+01  0.10354970934E+02  0.51100000000E-03 0.  1.
         12    1    3    3    0    0 -0.67761258859E+01 -0.14100039071E+02  0.41410086933E+01  0.16182550380E+02  0.00000000000E+00 0. -1.
</event>
<event>
 7    1  0.5761011E-013  0.5930195E+02  0.7816164E-02  0.1266605E+00
        -11   -1    0    0    0    0  0.00000000000E+00  0.00000000000E+00  0.45593999997E+02  0.45594000000E+02  0.51100000000E-03 0. -1.
         11   -1    0    0    0    0 -0.00000000000E+00 -0.00000000000E+00 -0.45593999997E+02  0.45594000000E+02  0.51100000000E-03 0.  1.
    9900012    2    1    2    0    0  0.27592736078E+02  0.13095066125E+02  0.91586068624E+01  0.59301954137E+02  0.50000018437E+02 0.  0.
        -12    1    1    2    0    0 -0.27592736078E+02 -0.13095066125E+02 -0.91586068624E+01  0.31886045863E+02  0.00000000000E+00 0.  1.
         11    1    3    3    0    0  0.19984012580E+02  0.25606288656E+01  0.15059879973E+02  0.25153877714E+02  0.51100000000E-03 0. -1.
        -11    1    3    3    0    0  0.12463842004E+02  0.18276641364E+02 -0.98213721508E+01  0.24204179974E+02  0.51100000000E-03 0.  1.
        -12    1    3    3    0    0 -0.48551185055E+01 -0.77422041043E+01  0.39200990403E+01  0.99438964486E+01  0.00000000000E+00 0.  1.
</event>
<event>
 7    1  0.5761011E-013  0.5930194E+02  0.7816164E-02  0.1266605E+00
        -11   -1    0    0    0    0  0.00000000000E+00  0.00000000000E+00  0.45593999997E+02  0.45594000000E+02  0.51100000000E-03 0.  1.
         11   -1    0    0    0    0 -0.00000000000E+00 -0.00000000000E+00 -0.45593999997E+02  0.45594000000E+02  0.51100000000E-03 0. -1.
    9900012    2    1    2    0    0  0.22271275137E+02 -0.16260934903E+02 -0.16009156373E+02  0.59301940539E+02  0.49999993638E+02 0.  0.
        -12    1    1    2    0    0 -0.22271275137E+02  0.16260934903E+02  0.16009156373E+02  0.31886059461E+02  0.00000000000E+00 0.  1.
         11    1    3    3    0    0  0.98396053472E+01 -0.16282403865E+02  0.58038282534E+01  0.19890171735E+02  0.51100000000E-03 0. -1.
        -11    1    3    3    0    0  0.11720408444E+02  0.10879055151E+02 -0.23475541199E+02  0.28404627262E+02  0.51100000000E-03 0.  1.
         12    1    3    3    0    0  0.71126134574E+00 -0.10857586189E+02  0.16625565728E+01  0.11007141542E+02  0.00000000000E+00 0. -1.
</event>
<event>
 7    1  0.5761011E-013  0.5930192E+02  0.7816164E-02  0.1266605E+00
        -11   -1    0    0    0    0  0.00000000000E+00  0.00000000000E+00  0.45593999997E+02  0.45594000000E+02  0.51100000000E-03 0.  1.
         11   -1    0    0    0    0 -0.00000000000E+00 -0.00000000000E+00 -0.45593999997E+02  0.45594000000E+02  0.51100000000E-03 0. -1.
    9900012    2    1    2    0    0 -0.15675378469E+02 -0.17951880471E+02 -0.21183363377E+02  0.59301915472E+02  0.49999947921E+02 0.  0.
        -12    1    1    2    0    0  0.15675378469E+02  0.17951880471E+02  0.21183363377E+02  0.31886084528E+02  0.00000000000E+00 0.  1.
         11    1    3    3    0    0  0.67435669649E+01  0.89267481340E+00 -0.56981390905E+01  0.88736324631E+01  0.51100000000E-03 0. -1.
        -11    1    3    3    0    0 -0.31788037002E+02 -0.12687297302E+02 -0.18380029545E+02  0.38849353863E+02  0.51100000000E-03 0.  1.
        -12    1    3    3    0    0  0.93690915680E+01 -0.61572579827E+01  0.28948052590E+01  0.11578929146E+02  0.00000000000E+00 0.  1.
</event>
<event>
 7    1  0.5761011E-013  0.5930194E+02  0.7816164E-02  0.1266605E+00
        -11   -1    0    0    0    0  0.00000000000E+00  0.00000000000E+00  0.45593999997E+02  0.45594000000E+02  0.51100000000E-03 0. -1.
         11   -1    0    0    0    0 -0.00000000000E+00 -0.00000000000E+00 -0.45593999997E+02  0.45594000000E+02  0.51100000000E-03 0.  1.
    9900012    2    1    2    0    0 -0.16544337118E+02 -0.27233571202E+02 -0.11567487230E+01  0.59301944134E+02  0.50000000193E+02 0.  0.
        -12    1    1    2    0    0  0.16544337118E+02  0.27233571202E+02  0.11567487230E+01  0.31886055866E+02  0.00000000000E+00 0.  1.
         11    1    3    3    0    0  0.29116193925E+01 -0.15890535918E+02 -0.12886620527E+02  0.20665227996E+02  0.51100000000E-03 0.  1.
        -11    1    3    3    0    0 -0.24390085332E+02  0.53298463547E-01  0.80531633603E+01  0.25685259266E+02  0.51100000000E-03 0. -1.
        -12    1    3    3    0    0  0.49341288215E+01 -0.11396333748E+02  0.36767084434E+01  0.12951456872E+02  0.00000000000E+00 0.  1.
</event>
<event>
 7    1  0.5761011E-013  0.5930195E+02  0.7816164E-02  0.1266605E+00
        -11   -1    0    0    0    0  0.00000000000E+00  0.00000000000E+00  0.45593999997E+02  0.45594000000E+02  0.51100000000E-03 0.  1.
         11   -1    0    0    0    0 -0.00000000000E+00 -0.00000000000E+00 -0.45593999997E+02  0.45594000000E+02  0.51100000000E-03 0. -1.
    9900012    2    1    2    0    0  0.24555203898E+02  0.19364852008E+02  0.62261413370E+01  0.59301947129E+02  0.50000005657E+02 0.  0.
        -12    1    1    2    0    0 -0.24555203898E+02 -0.19364852008E+02 -0.62261413370E+01  0.31886052871E+02  0.00000000000E+00 0.  1.
         11    1    3    3    0    0  0.64388775551E+01  0.29676623151E+02 -0.47880586481E+01  0.30742261005E+02  0.51100000000E-03 0. -1.
        -11    1    3    3    0    0  0.14653556099E+02 -0.11910831001E+02  0.22697845570E+01  0.19019635214E+02  0.51100000000E-03 0.  1.
         12    1    3    3    0    0  0.34627702431E+01  0.15990598575E+01  0.87444154280E+01  0.95400509098E+01  0.00000000000E+00 0. -1.
</event>
<event>
 7    1  0.5761011E-013  0.5930195E+02  0.7816164E-02  0.1266605E+00
        -11   -1    0    0    0    0  0.00000000000E+00  0.00000000000E+00  0.45593999997E+02  0.45594000000E+02  0.51100000000E-03 0. -1.
         11   -1    0    0    0    0 -0.00000000000E+00 -0.00000000000E+00 -0.45593999997E+02  0.45594000000E+02  0.51100000000E-03 0.  1.
    9900012    2    1    2    0    0 -0.21968184087E+02 -0.88180880286E+01  0.21362596490E+02  0.59301947918E+02  0.50000007096E+02 0.  0.
        -12    1    1    2    0    0  0.21968184087E+02  0.88180880286E+01 -0.21362596490E+02  0.31886052082E+02  0.00000000000E+00 0.  1.
         11    1    3    3    0    0 -0.62461057325E+01  0.12447601695E+02  0.35959634208E+00  0.13931472807E+02  0.51100000000E-03 0. -1.
        -11    1    3    3    0    0 -0.23666561903E+02 -0.18974151003E+02  0.10712234399E+02  0.32169496805E+02  0.51100000000E-03 0.  1.
        -12    1    3    3    0    0  0.79444835485E+01 -0.22915387203E+01  0.10290765749E+02  0.13200978307E+02  0.00000000000E+00 0.  1.
</event>
<event>
 7    1  0.5761011E-013  0.5930195E+02  0.7816164E-02  0.1266605E+00
        -11   -1    0    0    0    0  0.00000000000E+00  0.00000000000E+00  0.45593999997E+02  0.45594000000E+02  0.51100000000E-03 0. -1.
         11   -1    0    0    0    0 -0.00000000000E+00 -0.00000000000E+00 -0.45593999997E+02  0.45594000000E+02  0.51100000000E-03 0.  1.
    9900012    2    1    2    0    0  0.24466388262E+02  0.50814610604E+01 -0.19806439419E+02  0.59301945939E+02  0.50000003486E+02 0.  0.
        -12    1    1    2    0    0 -0.24466388262E+02 -0.50814610604E+01  0.19806439419E+02  0.31886054061E+02  0.00000000000E+00 0.  1.
         11    1    3    3    0    0  0.41434633595E+01 -0.82029425577E+01  0.11454579112E+02  0.14685500949E+02  0.51100000000E-03 0. -1.
        -11    1    3    3    0    0  0.19241462275E+02  0.11714229910E+02 -0.12507288268E+02  0.25766049619E+02  0.51100000000E-03 0.  1.
        -12    1    3    3    0    0  0.10814626273E+01  0.15701737085E+01 -0.18753730263E+02  0.18850395372E+02  0.00000000000E+00 0.  1.
</event>
<event>
 7    1  0.5761011E-013  0.5930210E+02  0.7816164E-02  0.1266604E+00
        -11   -1    0    0    0    0  0.00000000000E+00  0.00000000000E+00  0.45593999997E+02  0.45594000000E+02  0.51100000000E-03 0.  1.
         11   -1    0    0    0    0 -0.00000000000E+00 -0.00000000000E+00 -0.45593999997E+02  0.45594000000E+02  0.51100000000E-03 0. -1.
    9900012    2    1    2    0    0  0.18533077342E+02  0.11291347341E+02  0.23361104488E+02  0.59302098987E+02  0.50000282608E+02 0.  0.
        -12    1    1    2    0    0 -0.18533077342E+02 -0.11291347341E+02 -0.23361104488E+02  0.31885901013E+02  0.00000000000E+00 0.  1.
         11    1    3    3    0    0 -0.27966981176E+01 -0.13523486429E+02 -0.16058344017E+01  0.13902694342E+02  0.51100000000E-03 0. -1.
        -11    1    3    3    0    0  0.74673730517E+01  0.13468938614E+02  0.22573750452E+02  0.27326693496E+02  0.51100000000E-03 0.  1.
         12    1    3    3    0    0  0.13862402407E+02  0.11345895156E+02  0.23931884376E+01  0.18072711150E+02  0.00000000000E+00 0. -1.
</event>
<event>
 7    1  0.5761011E-013  0.5930188E+02  0.7816164E-02  0.1266605E+00
        -11   -1    0    0    0    0  0.00000000000E+00  0.00000000000E+00  0.45593999997E+02  0.45594000000E+02  0.51100000000E-03 0.  1.
         11   -1    0    0    0    0 -0.00000000000E+00 -0.00000000000E+00 -0.45593999997E+02  0.45594000000E+02  0.51100000000E-03 0. -1.
    9900012    2    1    2    0    0 -0.28529362135E+02  0.31293935938E+01 -0.13892687205E+02  0.59301884434E+02  0.49999891316E+02 0.  0.
        -12    1    1    2    0    0  0.28529362135E+02 -0.31293935938E+01  0.13892687205E+02  0.31886115566E+02  0.00000000000E+00 0.  1.
         11    1    3    3    0    0 -0.15315231070E+02 -0.21233741894E+02 -0.14104083987E+02  0.29738077997E+02  0.51100000000E-03 0. -1.
        -11    1    3    3    0    0 -0.99295710791E+01  0.79681870768E+01  0.13591378749E+01  0.12803735515E+02  0.51100000000E-03 0.  1.
         12    1    3    3    0    0 -0.32845599861E+01  0.16394948411E+02 -0.11477410926E+01  0.16760070923E+02  0.00000000000E+00 0. -1.
</event>
<event>
 7    1  0.5761011E-013  0.5930194E+02  0.7816164E-02  0.1266605E+00
        -11   -1    0    0    0    0  0.00000000000E+00  0.00000000000E+00  0.45593999997E+02  0.45594000000E+02  0.51100000000E-03 0.  1.
         11   -1    0    0    0    0 -0.00000000000E+00 -0.00000000000E+00 -0.45593999997E+02  0.45594000000E+02  0.51100000000E-03 0. -1.
    9900012    2    1    2    0    0 -0.85732282358E+01 -0.17653484400E+02 -0.25131153184E+02  0.59301943264E+02  0.49999998607E+02 0.  0.
        -12    1    1    2    0    0  0.85732282358E+01  0.17653484400E+02  0.25131153184E+02  0.31886056736E+02  0.00000000000E+00 0.  1.
         11    1    3    3    0    0 -0.13769715072E+02 -0.12725559674E+02 -0.35422083423E+02  0.40078284849E+02  0.51100000000E-03 0. -1.
        -11    1    3    3    0    0  0.10035366083E+02 -0.41386916810E+01  0.48198833413E+01  0.11877231029E+02  0.51100000000E-03 0.  1.
        -12    1    3    3    0    0 -0.48388792468E+01 -0.78923304528E+00  0.54710468980E+01  0.73464273851E+01  0.00000000000E+00 0.  1.
</event>
<event>
 7    1  0.5761011E-013  0.5930202E+02  0.7816164E-02  0.1266605E+00
        -11   -1    0    0    0    0  0.00000000000E+00  0.00000000000E+00  0.45593999997E+02  0.45594000000E+02  0.51100000000E-03 0. -1.
         11   -1    0    0    0    0 -0.00000000000E+00 -0.00000000000E+00 -0.45593999997E+02  0.45594000000E+02  0.51100000000E-03 0.  1.
    9900012    2    1    2    0    0  0.30587483785E+02  0.42426813397E+01  0.79449009146E+01  0.59302016249E+02  0.50000131714E+02 0.  0.
        -12    1    1    2    0    0 -0.30587483785E+02 -0.42426813397E+01 -0.79449009146E+01  0.31885983751E+02  0.00000000000E+00 0.  1.
         11    1    3    3    0    0  0.13684687426E+02  0.66541519589E+01 -0.12152265422E+02  0.19473724949E+02  0.51100000000E-03 0. -1.
        -11    1    3    3    0    0  0.23852321332E+02  0.67184960231E+00  0.21474170113E+02  0.32101784953E+02  0.51100000000E-03 0.  1.
        -12    1    3    3    0    0 -0.69495249733E+01 -0.30833202215E+01 -0.13770037770E+01  0.77265063479E+01  0.00000000000E+00 0.  1.
</event>
<event>
 7    1  0.5761011E-013  0.5930194E+02  0.7816164E-02  0.1266605E+00
        -11   -1    0    0    0    0  0.00000000000E+00  0.00000000000E+00  0.45593999997E+02  0.45594000000E+02  0.51100000000E-03 0. -1.
         11   -1    0    0    0    0 -0.00000000000E+00 -0.00000000000E+00 -0.45593999997E+02  0.45594000000E+02  0.51100000000E-03 0.  1.
    9900012    2    1    2    0    0  0.26265818268E+02 -0.66991486486E+01  0.16791342679E+02  0.59301937357E+02  0.49999987834E+02 0.  0.
        -12    1    1    2    0    0 -0.26265818268E+02  0.66991486486E+01 -0.16791342679E+02  0.31886062643E+02  0.00000000000E+00 0.  1.
         11    1    3    3    0    0  0.95584793703E+01  0.31734533095E+01  0.82866216440E+00  0.10105543777E+02  0.51100000000E-03 0. -1.
        -11    1    3    3    0    0  0.20425466210E+02 -0.24144318776E+02  0.12774014388E+02  0.34107524726E+02  0.51100000000E-03 0.  1.
        -12    1    3    3    0    0 -0.37181273115E+01  0.14271716818E+02  0.31886661262E+01  0.15088868855E+02  0.00000000000E+00 0.  1.
</event>
<event>
 7    1  0.5761011E-013  0.5930194E+02  0.7816164E-02  0.1266605E+00
        -11   -1    0    0    0    0  0.00000000000E+00  0.00000000000E+00  0.45593999997E+02  0.45594000000E+02  0.51100000000E-03 0.  1.
         11   -1    0    0    0    0 -0.00000000000E+00 -0.00000000000E+00 -0.45593999997E+02  0.45594000000E+02  0.51100000000E-03 0. -1.
    9900012    2    1    2    0    0  0.20390742119E+02  0.17463432067E+02  0.17203698559E+02  0.59301936150E+02  0.49999985633E+02 0.  0.
        -12    1    1    2    0    0 -0.20390742119E+02 -0.17463432067E+02 -0.17203698559E+02  0.31886063850E+02  0.00000000000E+00 0.  1.
         11    1    3    3    0    0  0.16681928602E+02  0.12932345158E+02  0.31435013238E+02  0.37864130133E+02  0.51100000000E-03 0. -1.
        -11    1    3    3    0    0 -0.50501329067E+01  0.26704317171E+01 -0.15599649125E+01  0.59218695292E+01  0.51100000000E-03 0.  1.
         12    1    3    3    0    0  0.87589464233E+01  0.18606551925E+01 -0.12671349767E+02  0.15515936488E+02  0.00000000000E+00 0. -1.
</event>
<event>
 7    1  0.5761011E-013  0.5930194E+02  0.7816164E-02  0.1266605E+00
        -11   -1    0    0    0    0  0.00000000000E+00  0.00000000000E+00  0.45593999997E+02  0.45594000000E+02  0.51100000000E-03 0.  1.
         11   -1    0    0    0    0 -0.00000000000E+00 -0.00000000000E+00 -0.45593999997E+02  0.45594000000E+02  0.51100000000E-03 0. -1.
    9900012    2    1    2    0    0 -0.13966581960E+02  0.22016268377E+02 -0.18355904794E+02  0.59301941515E+02  0.49999995418E+02 0.  0.
        -12    1    1    2    0    0  0.13966581960E+02 -0.22016268377E+02  0.18355904794E+02  0.31886058485E+02  0.00000000000E+00 0.  1.
         11    1    3    3    0    0  0.28947952193E+01 -0.58252295754E+01 -0.23167175121E+02  0.24063065938E+02  0.51100000000E-03 0. -1.
        -11    1    3    3    0    0 -0.70906289355E+01  0.25253329908E+01 -0.66271246669E+00  0.75560249794E+01  0.51100000000E-03 0.  1.
         12    1    3    3    0    0 -0.97707482436E+01  0.25316164962E+02  0.54739827941E+01  0.27682850598E+02  0.00000000000E+00 0. -1.
</event>
<event>
 7    1  0.5761011E-013  0.5930194E+02  0.7816164E-02  0.1266605E+00
        -11   -1    0    0    0    0  0.00000000000E+00  0.00000000000E+00  0.45593999997E+02  0.45594000000E+02  0.51100000000E-03 0.  1.
         11   -1    0    0    0    0 -0.00000000000E+00 -0.00000000000E+00 -0.45593999997E+02  0.45594000000E+02  0.51100000000E-03 0. -1.
    9900012    2    1    2    0    0 -0.12294569658E+02  0.28793546985E+02  0.60411781561E+01  0.59301943101E+02  0.49999998311E+02 0.  0.
        -12    1    1    2    0    0  0.12294569658E+02 -0.28793546985E+02 -0.60411781561E+01  0.31886056899E+02  0.00000000000E+00 0.  1.
         11    1    3    3    0    0 -0.27839371371E+02  0.13276833337E+02 -0.83893198007E+01  0.31963816868E+02  0.51100000000E-03 0. -1.
        -11    1    3    3    0    0  0.77671172165E+01  0.61752848741E+01  0.10768205189E+02  0.14642967472E+02  0.51100000000E-03 0.  1.
         12    1    3    3    0    0  0.77776844969E+01  0.93414287732E+01  0.36622927680E+01  0.12695158761E+02  0.00000000000E+00 0. -1.
</event>
<event>
 7    1  0.5761011E-013  0.5930189E+02  0.7816164E-02  0.1266605E+00
        -11   -1    0    0    0    0  0.00000000000E+00  0.00000000000E+00  0.45593999997E+02  0.45594000000E+02  0.51100000000E-03 0.  1.
         11   -1    0    0    0    0 -0.00000000000E+00 -0.00000000000E+00 -0.45593999997E+02  0.45594000000E+02  0.51100000000E-03 0. -1.
    9900012    2    1    2    0    0 -0.89873760444E+01  0.25998934585E+02  0.16124718356E+02  0.59301889077E+02  0.49999899783E+02 0.  0.
        -12    1    1    2    0    0  0.89873760444E+01 -0.25998934585E+02 -0.16124718356E+02  0.31886110923E+02  0.00000000000E+00 0.  1.
         11    1    3    3    0    0 -0.24034234365E+02  0.11083359787E+02  0.16645985919E+02  0.31266181941E+02  0.51100000000E-03 0. -1.
        -11    1    3    3    0    0  0.84740476832E+01  0.10074482795E+02 -0.92463662131E+01  0.16087261300E+02  0.51100000000E-03 0.  1.
        -12    1    3    3    0    0  0.65728106372E+01  0.48410920034E+01  0.87250986505E+01  0.11948445837E+02  0.00000000000E+00 0.  1.
</event>
<event>
 7    1  0.5761011E-013  0.5930201E+02  0.7816164E-02  0.1266605E+00
        -11   -1    0    0    0    0  0.00000000000E+00  0.00000000000E+00  0.45593999997E+02  0.45594000000E+02  0.51100000000E-03 0.  1.
         11   -1    0    0    0    0 -0.00000000000E+00 -0.00000000000E+00 -0.45593999997E+02  0.45594000000E+02  0.51100000000E-03 0. -1.
    9900012    2    1    2    0    0 -0.97646174197E+01  0.17671785908E+02 -0.24679473453E+02  0.59302012789E+02  0.50000125403E+02 0.  0.
        -12    1    1    2    0    0  0.97646174197E+01 -0.17671785908E+02  0.24679473453E+02  0.31885987211E+02  0.00000000000E+00 0.  1.
         11    1    3    3    0    0 -0.74186292800E+01 -0.12486919578E+01 -0.37373058175E+01  0.84001635123E+01  0.51100000000E-03 0. -1.
        -11    1    3    3    0    0  0.19004772081E+02  0.51690649625E+01 -0.15164726378E+02  0.24856981330E+02  0.51100000000E-03 0.  1.
        -12    1    3    3    0    0 -0.21350760221E+02  0.13751412903E+02 -0.57774412567E+01  0.26044867946E+02  0.00000000000E+00 0.  1.
</event>
<event>
 7    1  0.5761011E-013  0.5930195E+02  0.7816164E-02  0.1266605E+00
        -11   -1    0    0    0    0  0.00000000000E+00  0.00000000000E+00  0.45593999997E+02  0.45594000000E+02  0.51100000000E-03 0. -1.
         11   -1    0    0    0    0 -0.00000000000E+00 -0.00000000000E+00 -0.45593999997E+02  0.45594000000E+02  0.51100000000E-03 0.  1.
    9900012    2    1    2    0    0  0.24150313734E+02  0.15074945276E+02  0.14360666720E+02  0.59301946980E+02  0.50000005384E+02 0.  0.
        -12    1    1    2    0    0 -0.24150313734E+02 -0.15074945276E+02 -0.14360666720E+02  0.31886053020E+02  0.00000000000E+00 0.  1.
         11    1    3    3    0    0  0.28547990323E+01  0.11771355699E+02  0.20155123509E+02  0.23514754867E+02  0.51100000000E-03 0. -1.
        -11    1    3    3    0    0  0.26575157646E+02  0.56557214234E+01  0.58784861776E+00  0.27176676673E+02  0.51100000000E-03 0.  1.
        -12    1    3    3    0    0 -0.52796429441E+01 -0.23521318463E+01 -0.63823054069E+01  0.86105154402E+01  0.00000000000E+00 0.  1.
</event>
<event>
 7    1  0.5761011E-013  0.5930195E+02  0.7816164E-02  0.1266605E+00
        -11   -1    0    0    0    0  0.00000000000E+00  0.00000000000E+00  0.45593999997E+02  0.45594000000E+02  0.51100000000E-03 0.  1.
         11   -1    0    0    0    0 -0.00000000000E+00 -0.00000000000E+00 -0.45593999997E+02  0.45594000000E+02  0.51100000000E-03 0. -1.
    9900012    2    1    2    0    0 -0.21049572702E+02 -0.21962098011E+02 -0.95551927027E+01  0.59301953403E+02  0.50000017099E+02 0.  0.
        -12    1    1    2    0    0  0.21049572702E+02  0.21962098011E+02  0.95551927027E+01  0.31886046597E+02  0.00000000000E+00 0.  1.
         11    1    3    3    0    0  0.60746808184E+00 -0.26188174227E+02 -0.31159363925E+01  0.26379889057E+02  0.51100000000E-03 0. -1.
        -11    1    3    3    0    0 -0.23811598141E+02 -0.17856748102E+01 -0.35895631480E-01  0.23878486747E+02  0.51100000000E-03 0.  1.
         12    1    3    3    0    0  0.21545573572E+01  0.60117510267E+01 -0.64033606787E+01  0.90435775993E+01  0.00000000000E+00 0. -1.
</event>
<event>
 7    1  0.5761011E-013  0.5930195E+02  0.7816164E-02  0.1266605E+00
        -11   -1    0    0    0    0  0.00000000000E+00  0.00000000000E+00  0.45593999997E+02  0.45594000000E+02  0.51100000000E-03 0.  1.
         11   -1    0    0    0    0 -0.00000000000E+00 -0.00000000000E+00 -0.45593999997E+02  0.45594000000E+02  0.51100000000E-03 0. -1.
    9900012    2    1    2    0    0  0.21230311524E+02  0.14763799766E+02 -0.18655402301E+02  0.59301953742E+02  0.50000017716E+02 0.  0.
        -12    1    1    2    0    0 -0.21230311524E+02 -0.14763799766E+02  0.18655402301E+02  0.31886046258E+02  0.00000000000E+00 0.  1.
         11    1    3    3    0    0  0.80125905439E+01 -0.33480773492E+01 -0.38439356905E+01  0.94966873706E+01  0.51100000000E-03 0. -1.
        -11    1    3    3    0    0  0.60515013033E+01  0.31132572326E+02 -0.14665983612E+02  0.34942077832E+02  0.51100000000E-03 0.  1.
        -12    1    3    3    0    0  0.71662196770E+01 -0.13020695211E+02 -0.14548299875E+00  0.14863188539E+02  0.00000000000E+00 0.  1.
</event>
<event>
 7    1  0.5761011E-013  0.5930194E+02  0.7816164E-02  0.1266605E+00
        -11   -1    0    0    0    0  0.00000000000E+00  0.00000000000E+00  0.45593999997E+02  0.45594000000E+02  0.51100000000E-03 0.  1.
         11   -1    0    0    0    0 -0.00000000000E+00 -0.00000000000E+00 -0.45593999997E+02  0.45594000000E+02  0.51100000000E-03 0. -1.
    9900012    2    1    2    0    0  0.16298721507E+02 -0.16579031828E+02 -0.21822189032E+02  0.59301944219E+02  0.50000000348E+02 0.  0.
        -12    1    1    2    0    0 -0.16298721507E+02  0.16579031828E+02  0.21822189032E+02  0.31886055781E+02  0.00000000000E+00 0.  1.
         11    1    3    3    0    0  0.32965611123E+01 -0.10665397361E+02 -0.24262726173E+02  0.26707637440E+02  0.51100000000E-03 0. -1.
        -11    1    3    3    0    0  0.78949954828E+01  0.71586945802E+01  0.11664500143E+02  0.15799950178E+02  0.51100000000E-03 0.  1.
         12    1    3    3    0    0  0.51071649121E+01 -0.13072329048E+02 -0.92239630031E+01  0.16794356601E+02  0.00000000000E+00 0. -1.
</event>
<event>
 7    1  0.5761011E-013  0.5930191E+02  0.7816164E-02  0.1266605E+00
        -11   -1    0    0    0    0  0.00000000000E+00  0.00000000000E+00  0.45593999997E+02  0.45594000000E+02  0.51100000000E-03 0.  1.
         11   -1    0    0    0    0 -0.00000000000E+00 -0.00000000000E+00 -0.45593999997E+02  0.45594000000E+02  0.51100000000E-03 0. -1.
    9900012    2    1    2    0    0  0.15193090112E+02 -0.45453110374E+01 -0.27662838068E+02  0.59301914483E+02  0.49999946118E+02 0.  0.
        -12    1    1    2    0    0 -0.15193090112E+02  0.45453110374E+01  0.27662838068E+02  0.31886085517E+02  0.00000000000E+00 0.  1.
         11    1    3    3    0    0  0.27099375333E+01  0.17265423453E-01  0.14568944814E+02  0.14818846540E+02  0.51100000000E-03 0.  1.
        -11    1    3    3    0    0  0.12205214599E+02 -0.43151533750E+01 -0.36294253775E+02  0.38533889881E+02  0.51100000000E-03 0. -1.
        -12    1    3    3    0    0  0.27793798041E+00 -0.24742308580E+00 -0.59375291074E+01  0.59491780613E+01  0.00000000000E+00 0.  1.
</event>
<event>
 7    1  0.5761011E-013  0.5930195E+02  0.7816164E-02  0.1266605E+00
        -11   -1    0    0    0    0  0.00000000000E+00  0.00000000000E+00  0.45593999997E+02  0.45594000000E+02  0.51100000000E-03 0. -1.
         11   -1    0    0    0    0 -0.00000000000E+00 -0.00000000000E+00 -0.45593999997E+02  0.45594000000E+02  0.51100000000E-03 0.  1.
    9900012    2    1    2    0    0  0.77196549033E+01 -0.30874533175E+02  0.19723552529E+01  0.59301952019E+02  0.50000014574E+02 0.  0.
        -12    1    1    2    0    0 -0.77196549033E+01  0.30874533175E+02 -0.19723552529E+01  0.31886047981E+02  0.00000000000E+00 0.  1.
         11    1    3    3    0    0 -0.81088246834E+01 -0.15651490369E+02 -0.18856161370E+02  0.25812342211E+02  0.51100000000E-03 0. -1.
        -11    1    3    3    0    0  0.15656334959E+02 -0.57654806133E+01  0.14540659635E+02  0.22131253329E+02  0.51100000000E-03 0.  1.
         12    1    3    3    0    0  0.17214462745E+00 -0.94575621926E+01  0.62878569884E+01  0.11358356479E+02  0.00000000000E+00 0. -1.
</event>
<event>
 7    1  0.5761011E-013  0.5930195E+02  0.7816164E-02  0.1266605E+00
        -11   -1    0    0    0    0  0.00000000000E+00  0.00000000000E+00  0.45593999997E+02  0.45594000000E+02  0.51100000000E-03 0.  1.
         11   -1    0    0    0    0 -0.00000000000E+00 -0.00000000000E+00 -0.45593999997E+02  0.45594000000E+02  0.51100000000E-03 0. -1.
    9900012    2    1    2    0    0 -0.22375735288E+02 -0.12875450056E+02 -0.18715486095E+02  0.59301950329E+02  0.50000011493E+02 0.  0.
        -12    1    1    2    0    0  0.22375735288E+02  0.12875450056E+02  0.18715486095E+02  0.31886049671E+02  0.00000000000E+00 0.  1.
         11    1    3    3    0    0 -0.21552110303E+02  0.11454560737E+02 -0.21208734521E+02  0.32334360059E+02  0.51100000000E-03 0. -1.
        -11    1    3    3    0    0 -0.22656878683E+00 -0.17491427399E+02  0.69062755734E+01  0.18806860675E+02  0.51100000000E-03 0.  1.
         12    1    3    3    0    0 -0.59705619860E+00 -0.68385833937E+01 -0.44130271474E+01  0.81607295961E+01  0.00000000000E+00 0. -1.
</event>
<event>
 7    1  0.5761011E-013  0.5930197E+02  0.7816164E-02  0.1266605E+00
        -11   -1    0    0    0    0  0.00000000000E+00  0.00000000000E+00  0.45593999997E+02  0.45594000000E+02  0.51100000000E-03 0.  1.
         11   -1    0    0    0    0 -0.00000000000E+00 -0.00000000000E+00 -0.45593999997E+02  0.45594000000E+02  0.51100000000E-03 0. -1.
    9900012    2    1    2    0    0  0.10044526424E+02  0.52669149840E+01 -0.29800768696E+02  0.59301972975E+02  0.50000052793E+02 0.  0.
        -12    1    1    2    0    0 -0.10044526424E+02 -0.52669149840E+01  0.29800768696E+02  0.31886027025E+02  0.00000000000E+00 0.  1.
         11    1    3    3    0    0  0.26425414500E+01  0.82007778130E+01 -0.99064645705E+01  0.13129121166E+02  0.51100000000E-03 0. -1.
        -11    1    3    3    0    0  0.16642605578E+02 -0.15225300243E+02 -0.20915990133E+02  0.30761416278E+02  0.51100000000E-03 0.  1.
        -12    1    3    3    0    0 -0.92406206036E+01  0.12291437414E+02  0.10216860072E+01  0.15411435531E+02  0.00000000000E+00 0.  1.
</event>
<event>
 7    1  0.5761011E-013  0.5930196E+02  0.7816164E-02  0.1266605E+00
        -11   -1    0    0    0    0  0.00000000000E+00  0.00000000000E+00  0.45593999997E+02  0.45594000000E+02  0.51100000000E-03 0.  1.
         11   -1    0    0    0    0 -0.00000000000E+00 -0.00000000000E+00 -0.45593999997E+02  0.45594000000E+02  0.51100000000E-03 0. -1.
    9900012    2    1    2    0    0 -0.87644451097E+01 -0.79811311611E+01 -0.29600765953E+02  0.59301963908E+02  0.50000036257E+02 0.  0.
        -12    1    1    2    0    0  0.87644451097E+01  0.79811311611E+01  0.29600765953E+02  0.31886036092E+02  0.00000000000E+00 0.  1.
         11    1    3    3    0    0 -0.18411375994E+02 -0.84788418392E+01 -0.27987789340E+02  0.34556994623E+02  0.51100000000E-03 0. -1.
        -11    1    3    3    0    0 -0.44878170113E+01  0.19173127936E+01  0.66974280643E+01  0.82868650775E+01  0.51100000000E-03 0.  1.
         12    1    3    3    0    0  0.14134747895E+02 -0.14196021154E+01 -0.83104046765E+01  0.16458104208E+02  0.00000000000E+00 0. -1.
</event>
<event>
 7    1  0.5761011E-013  0.5930194E+02  0.7816164E-02  0.1266605E+00
        -11   -1    0    0    0    0  0.00000000000E+00  0.00000000000E+00  0.45593999997E+02  0.45594000000E+02  0.51100000000E-03 0. -1.
         11   -1    0    0    0    0 -0.00000000000E+00 -0.00000000000E+00 -0.45593999997E+02  0.45594000000E+02  0.51100000000E-03 0.  1.
    9900012    2    1    2    0    0 -0.21955274554E+02 -0.27617525905E+01  0.22957782337E+02  0.59301935208E+02  0.49999983915E+02 0.  0.
        -12    1    1    2    0    0  0.21955274554E+02  0.27617525905E+01 -0.22957782337E+02  0.31886064792E+02  0.00000000000E+00 0.  1.
         11    1    3    3    0    0 -0.14545723931E+02 -0.41596276402E+01  0.86317243213E+01  0.17418015151E+02  0.51100000000E-03 0. -1.
        -11    1    3    3    0    0  0.14378438375E+02  0.70369816397E+01  0.17520766499E+01  0.16103675778E+02  0.51100000000E-03 0.  1.
        -12    1    3    3    0    0 -0.21787988998E+02 -0.56391065900E+01  0.12573981366E+02  0.25780244279E+02  0.00000000000E+00 0.  1.
</event>
<event>
 7    1  0.5761011E-013  0.5930194E+02  0.7816164E-02  0.1266605E+00
        -11   -1    0    0    0    0  0.00000000000E+00  0.00000000000E+00  0.45593999997E+02  0.45594000000E+02  0.51100000000E-03 0. -1.
         11   -1    0    0    0    0 -0.00000000000E+00 -0.00000000000E+00 -0.45593999997E+02  0.45594000000E+02  0.51100000000E-03 0.  1.
    9900012    2    1    2    0    0  0.37058934570E+01 -0.12601121415E+02  0.29055105502E+02  0.59301936226E+02  0.49999985772E+02 0.  0.
        -12    1    1    2    0    0 -0.37058934570E+01  0.12601121415E+02 -0.29055105502E+02  0.31886063774E+02  0.00000000000E+00 0.  1.
         11    1    3    3    0    0  0.22425114877E+01 -0.16165453736E+02  0.14061091652E+02  0.21542169133E+02  0.51100000000E-03 0. -1.
        -11    1    3    3    0    0  0.29726484485E+01 -0.19304067218E+01 -0.10788105927E+02  0.11355454138E+02  0.51100000000E-03 0.  1.
         12    1    3    3    0    0 -0.15092664792E+01  0.54947390422E+01  0.25782119777E+02  0.26404312955E+02  0.00000000000E+00 0. -1.
</event>
<event>
 7    1  0.5761011E-013  0.5930213E+02  0.7816164E-02  0.1266604E+00
        -11   -1    0    0    0    0  0.00000000000E+00  0.00000000000E+00  0.45593999997E+02  0.45594000000E+02  0.51100000000E-03 0.  1.
         11   -1    0    0    0    0 -0.00000000000E+00 -0.00000000000E+00 -0.45593999997E+02  0.45594000000E+02  0.51100000000E-03 0. -1.
    9900012    2    1    2    0    0  0.73586620864E+01  0.16501759721E+02 -0.26272618849E+02  0.59302133495E+02  0.50000345541E+02 0.  0.
        -12    1    1    2    0    0 -0.73586620864E+01 -0.16501759721E+02  0.26272618849E+02  0.31885866505E+02  0.00000000000E+00 0.  1.
         11    1    3    3    0    0  0.41320828574E+01  0.11707478999E+02 -0.15841317802E+02  0.20126761369E+02  0.51100000000E-03 0. -1.
        -11    1    3    3    0    0  0.66293322676E+01 -0.64033710910E+01  0.11246116661E+02  0.14540507139E+02  0.51100000000E-03 0.  1.
        -12    1    3    3    0    0 -0.34027530385E+01  0.11197651813E+02 -0.21677417709E+02  0.24634864986E+02  0.00000000000E+00 0.  1.
</event>
<event>
 7    1  0.5761011E-013  0.5930194E+02  0.7816164E-02  0.1266605E+00
        -11   -1    0    0    0    0  0.00000000000E+00  0.00000000000E+00  0.45593999997E+02  0.45594000000E+02  0.51100000000E-03 0. -1.
         11   -1    0    0    0    0 -0.00000000000E+00 -0.00000000000E+00 -0.45593999997E+02  0.45594000000E+02  0.51100000000E-03 0.  1.
    9900012    2    1    2    0    0 -0.27309170525E-01  0.89317307395E+01  0.30609540983E+02  0.59301944129E+02  0.50000000185E+02 0.  0.
        -12    1    1    2    0    0  0.27309170525E-01 -0.89317307395E+01 -0.30609540983E+02  0.31886055871E+02  0.00000000000E+00 0.  1.
         11    1    3    3    0    0  0.34587539527E+01  0.49886551327E+01  0.43588126112E+02  0.44008799088E+02  0.51100000000E-03 0. -1.
        -11    1    3    3    0    0 -0.36710648483E+01 -0.42890243272E+00 -0.64440610259E+01  0.74287682145E+01  0.51100000000E-03 0.  1.
         12    1    3    3    0    0  0.18500172507E+00  0.43719780395E+01 -0.65345241028E+01  0.78643768263E+01  0.00000000000E+00 0. -1.
</event>
<event>
 7    1  0.6179860E-013  0.5930192E+02  0.7816164E-02  0.1266605E+00
        -11   -1    0    0    0    0  0.00000000000E+00  0.00000000000E+00  0.45593999997E+02  0.45594000000E+02  0.51100000000E-03 0. -1.
         11   -1    0    0    0    0 -0.00000000000E+00 -0.00000000000E+00 -0.45593999997E+02  0.45594000000E+02  0.51100000000E-03 0.  1.
    9900012    2    1    2    0    0  0.10047057746E+02  0.25478704245E+02  0.16328332966E+02  0.59301918447E+02  0.49999953347E+02 0.  0.
        -12    1    1    2    0    0 -0.10047057746E+02 -0.25478704245E+02 -0.16328332966E+02  0.31886081553E+02  0.00000000000E+00 0.  1.
         11    1    3    3    0    0 -0.45631835921E+01  0.28273729621E+01  0.19792857239E+02  0.20507897998E+02  0.51100000000E-03 0. -1.
        -11    1    3    3    0    0  0.14594574715E+02 -0.34978664491E+00 -0.57269486987E+01  0.15681897318E+02  0.51100000000E-03 0.  1.
         12    1    3    3    0    0  0.15666622479E-01  0.23001117928E+02  0.22624244256E+01  0.23112123131E+02  0.00000000000E+00 0. -1.
</event>
<event>
 7    1  0.5761011E-013  0.5930194E+02  0.7816164E-02  0.1266605E+00
        -11   -1    0    0    0    0  0.00000000000E+00  0.00000000000E+00  0.45593999997E+02  0.45594000000E+02  0.51100000000E-03 0. -1.
         11   -1    0    0    0    0 -0.00000000000E+00 -0.00000000000E+00 -0.45593999997E+02  0.45594000000E+02  0.51100000000E-03 0.  1.
    9900012    2    1    2    0    0  0.25334822006E+02 -0.17008372130E+02  0.92511180466E+01  0.59301935431E+02  0.49999984322E+02 0.  0.
        -12    1    1    2    0    0 -0.25334822006E+02  0.17008372130E+02 -0.92511180466E+01  0.31886064569E+02  0.00000000000E+00 0.  1.
         11    1    3    3    0    0 -0.88970631557E+00  0.41894340394E+01  0.22225368946E+02  0.22634265174E+02  0.51100000000E-03 0. -1.
        -11    1    3    3    0    0  0.15316583578E+02 -0.11510754066E+02 -0.10571542918E+02  0.21882703480E+02  0.51100000000E-03 0.  1.
         12    1    3    3    0    0  0.10907944743E+02 -0.96870521033E+01 -0.24027079819E+01  0.14784966777E+02  0.00000000000E+00 0. -1.
</event>
<event>
 7    1  0.5761011E-013  0.5930193E+02  0.7816164E-02  0.1266605E+00
        -11   -1    0    0    0    0  0.00000000000E+00  0.00000000000E+00  0.45593999997E+02  0.45594000000E+02  0.51100000000E-03 0.  1.
         11   -1    0    0    0    0 -0.00000000000E+00 -0.00000000000E+00 -0.45593999997E+02  0.45594000000E+02  0.51100000000E-03 0. -1.
    9900012    2    1    2    0    0  0.16506921156E+02  0.16518725088E+02 -0.21711160457E+02  0.59301933875E+02  0.49999981483E+02 0.  0.
        -12    1    1    2    0    0 -0.16506921156E+02 -0.16518725088E+02  0.21711160457E+02  0.31886066125E+02  0.00000000000E+00 0.  1.
         11    1    3    3    0    0  0.69328426788E+01  0.92732591145E+01 -0.11345590957E+02  0.16210492794E+02  0.51100000000E-03 0. -1.
        -11    1    3    3    0    0 -0.54867250174E+01  0.17379955628E+02  0.54418134193E+01  0.19020524247E+02  0.51100000000E-03 0.  1.
        -12    1    3    3    0    0  0.15060803494E+02 -0.10134489655E+02 -0.15807382919E+02  0.24070916834E+02  0.00000000000E+00 0.  1.
</event>
<event>
 7    1  0.5761011E-013  0.5930194E+02  0.7816164E-02  0.1266605E+00
        -11   -1    0    0    0    0  0.00000000000E+00  0.00000000000E+00  0.45593999997E+02  0.45594000000E+02  0.51100000000E-03 0.  1.
         11   -1    0    0    0    0 -0.00000000000E+00 -0.00000000000E+00 -0.45593999997E+02  0.45594000000E+02  0.51100000000E-03 0. -1.
    9900012    2    1    2    0    0 -0.72272368681E+01 -0.22155765722E+01 -0.30977075624E+02  0.59301938052E+02  0.49999989103E+02 0.  0.
        -12    1    1    2    0    0  0.72272368681E+01  0.22155765722E+01  0.30977075624E+02  0.31886061948E+02  0.00000000000E+00 0.  1.
         11    1    3    3    0    0  0.10446941210E+02  0.37034176335E+01 -0.12059177377E+02  0.16379183194E+02  0.51100000000E-03 0. -1.
        -11    1    3    3    0    0 -0.15870780750E+02 -0.19321750681E+02 -0.12433928710E+02  0.27925155584E+02  0.51100000000E-03 0.  1.
        -12    1    3    3    0    0 -0.18033973275E+01  0.13402756475E+02 -0.64839695372E+01  0.14997599275E+02  0.00000000000E+00 0.  1.
</event>
<event>
 7    1  0.5761011E-013  0.5930174E+02  0.7816164E-02  0.1266605E+00
        -11   -1    0    0    0    0  0.00000000000E+00  0.00000000000E+00  0.45593999997E+02  0.45594000000E+02  0.51100000000E-03 0.  1.
         11   -1    0    0    0    0 -0.00000000000E+00 -0.00000000000E+00 -0.45593999997E+02  0.45594000000E+02  0.51100000000E-03 0. -1.
    9900012    2    1    2    0    0 -0.92316332610E+01  0.30020969329E+02 -0.55001857705E+01  0.59301738137E+02  0.49999624503E+02 0.  0.
        -12    1    1    2    0    0  0.92316332610E+01 -0.30020969329E+02  0.55001857705E+01  0.31886261863E+02  0.00000000000E+00 0.  1.
         11    1    3    3    0    0 -0.74313023246E+01  0.91113310787E+01 -0.25577386705E+02  0.28150369788E+02  0.51100000000E-03 0. -1.
        -11    1    3    3    0    0  0.15668417229E+01  0.81153547534E+01  0.14712362541E+02  0.16875058150E+02  0.51100000000E-03 0.  1.
         12    1    3    3    0    0 -0.33671726593E+01  0.12794283497E+02  0.53648383937E+01  0.14276310199E+02  0.00000000000E+00 0. -1.
</event>
<event>
 7    1  0.5761011E-013  0.5930193E+02  0.7816164E-02  0.1266605E+00
        -11   -1    0    0    0    0  0.00000000000E+00  0.00000000000E+00  0.45593999997E+02  0.45594000000E+02  0.51100000000E-03 0.  1.
         11   -1    0    0    0    0 -0.00000000000E+00 -0.00000000000E+00 -0.45593999997E+02  0.45594000000E+02  0.51100000000E-03 0. -1.
    9900012    2    1    2    0    0  0.62637423539E+01  0.30941680985E+02 -0.44832401165E+01  0.59301928865E+02  0.49999972347E+02 0.  0.
        -12    1    1    2    0    0 -0.62637423539E+01 -0.30941680985E+02  0.44832401165E+01  0.31886071135E+02  0.00000000000E+00 0.  1.
         11    1    3    3    0    0  0.66475631376E+01  0.30787369869E+02  0.35493111488E+01  0.31696211903E+02  0.51100000000E-03 0. -1.
        -11    1    3    3    0    0 -0.43704544802E+01 -0.60591572093E+01  0.73893242103E+01  0.10507919442E+02  0.51100000000E-03 0.  1.
         12    1    3    3    0    0  0.39866336965E+01  0.62134683260E+01 -0.15421875476E+02  0.17097797521E+02  0.00000000000E+00 0. -1.
</event>
<event>
 7    1  0.5761011E-013  0.5930191E+02  0.7816164E-02  0.1266605E+00
        -11   -1    0    0    0    0  0.00000000000E+00  0.00000000000E+00  0.45593999997E+02  0.45594000000E+02  0.51100000000E-03 0.  1.
         11   -1    0    0    0    0 -0.00000000000E+00 -0.00000000000E+00 -0.45593999997E+02  0.45594000000E+02  0.51100000000E-03 0. -1.
    9900012    2    1    2    0    0 -0.13170065270E+02  0.21951577642E+02 -0.19010535145E+02  0.59301908570E+02  0.49999935333E+02 0.  0.
        -12    1    1    2    0    0  0.13170065270E+02 -0.21951577642E+02  0.19010535145E+02  0.31886091430E+02  0.00000000000E+00 0.  1.
         11    1    3    3    0    0  0.65367996929E+01  0.22749950449E+02 -0.18364370993E+02  0.29958973912E+02  0.51100000000E-03 0. -1.
        -11    1    3    3    0    0 -0.16870846678E+02  0.73990116912E+01 -0.57252934579E+01  0.19291185217E+02  0.51100000000E-03 0.  1.
         12    1    3    3    0    0 -0.28360182848E+01 -0.81973844978E+01  0.50791293055E+01  0.10051749441E+02  0.00000000000E+00 0. -1.
</event>
<event>
 7    1  0.5761011E-013  0.5930194E+02  0.7816164E-02  0.1266605E+00
        -11   -1    0    0    0    0  0.00000000000E+00  0.00000000000E+00  0.45593999997E+02  0.45594000000E+02  0.51100000000E-03 0. -1.
         11   -1    0    0    0    0 -0.00000000000E+00 -0.00000000000E+00 -0.45593999997E+02  0.45594000000E+02  0.51100000000E-03 0.  1.
    9900012    2    1    2    0    0 -0.62315300499E+01  0.49376915410E+01  0.30878924826E+02  0.59301940931E+02  0.49999994352E+02 0.  0.
        -12    1    1    2    0    0  0.62315300499E+01 -0.49376915410E+01 -0.30878924826E+02  0.31886059069E+02  0.00000000000E+00 0.  1.
         11    1    3    3    0    0 -0.31210699981E+01  0.97660518440E+01  0.13296938938E+02  0.16790635245E+02  0.51100000000E-03 0. -1.
        -11    1    3    3    0    0 -0.11588028074E+02 -0.14148359682E+02 -0.28482552343E+01  0.18508674573E+02  0.51100000000E-03 0.  1.
        -12    1    3    3    0    0  0.84775680220E+01  0.93199993789E+01  0.20430241122E+02  0.24002631112E+02  0.00000000000E+00 0.  1.
</event>
<event>
 7    1  0.5761011E-013  0.5930197E+02  0.7816164E-02  0.1266605E+00
        -11   -1    0    0    0    0  0.00000000000E+00  0.00000000000E+00  0.45593999997E+02  0.45594000000E+02  0.51100000000E-03 0.  1.
         11   -1    0    0    0    0 -0.00000000000E+00 -0.00000000000E+00 -0.45593999997E+02  0.45594000000E+02  0.51100000000E-03 0. -1.
    9900012    2    1    2    0    0 -0.18463230528E+02  0.18328889555E+02 -0.18435836228E+02  0.59301966517E+02  0.50000041015E+02 0.  0.
        -12    1    1    2    0    0  0.18463230528E+02 -0.18328889555E+02  0.18435836228E+02  0.31886033483E+02  0.00000000000E+00 0.  1.
         11    1    3    3    0    0 -0.15887257781E+01  0.16044144852E+02 -0.22199330751E+02  0.27436270149E+02  0.51100000000E-03 0. -1.
        -11    1    3    3    0    0 -0.19636310324E+02 -0.42469505151E+01  0.99822900758E+01  0.22433621804E+02  0.51100000000E-03 0.  1.
        -12    1    3    3    0    0  0.27618055746E+01  0.65316952180E+01 -0.62187955528E+01  0.94320745640E+01  0.00000000000E+00 0.  1.
</event>
<event>
 7    1  0.5761011E-013  0.5930193E+02  0.7816164E-02  0.1266605E+00
        -11   -1    0    0    0    0  0.00000000000E+00  0.00000000000E+00  0.45593999997E+02  0.45594000000E+02  0.51100000000E-03 0.  1.
         11   -1    0    0    0    0 -0.00000000000E+00 -0.00000000000E+00 -0.45593999997E+02  0.45594000000E+02  0.51100000000E-03 0. -1.
    9900012    2    1    2    0    0  0.27483587903E+02 -0.15975905397E+02 -0.24787686054E+01  0.59301930140E+02  0.49999974673E+02 0.  0.
        -12    1    1    2    0    0 -0.27483587903E+02  0.15975905397E+02  0.24787686054E+01  0.31886069860E+02  0.00000000000E+00 0.  1.
         11    1    3    3    0    0  0.12551642524E+02 -0.21664066721E+02  0.17534053650E+02  0.30566624848E+02  0.51100000000E-03 0. -1.
        -11    1    3    3    0    0  0.50163895941E+01  0.78533386529E+01 -0.14358251425E+02  0.17117198275E+02  0.51100000000E-03 0.  1.
         12    1    3    3    0    0  0.99155557850E+01 -0.21651773294E+01 -0.56545708300E+01  0.11618107017E+02  0.00000000000E+00 0. -1.
</event>
<event>
 7    1  0.5761011E-013  0.5930190E+02  0.7816164E-02  0.1266605E+00
        -11   -1    0    0    0    0  0.00000000000E+00  0.00000000000E+00  0.45593999997E+02  0.45594000000E+02  0.51100000000E-03 0.  1.
         11   -1    0    0    0    0 -0.00000000000E+00 -0.00000000000E+00 -0.45593999997E+02  0.45594000000E+02  0.51100000000E-03 0. -1.
    9900012    2    1    2    0    0  0.28963431021E+02 -0.13313469020E+02 -0.77099176194E+00  0.59301902369E+02  0.49999924024E+02 0.  0.
        -12    1    1    2    0    0 -0.28963431021E+02  0.13313469020E+02  0.77099176194E+00  0.31886097631E+02  0.00000000000E+00 0.  1.
         11    1    3    3    0    0  0.10778076866E+02 -0.96517826672E+01  0.16865700877E+02  0.22221064690E+02  0.51100000000E-03 0. -1.
        -11    1    3    3    0    0  0.68085828523E+01  0.10935975503E+02 -0.12319558256E+02  0.17824810701E+02  0.51100000000E-03 0.  1.
        -12    1    3    3    0    0  0.11376771303E+02 -0.14597661855E+02 -0.53171343833E+01  0.19256026978E+02  0.00000000000E+00 0.  1.
</event>
<event>
 7    1  0.5761011E-013  0.5930193E+02  0.7816164E-02  0.1266605E+00
        -11   -1    0    0    0    0  0.00000000000E+00  0.00000000000E+00  0.45593999997E+02  0.45594000000E+02  0.51100000000E-03 0.  1.
         11   -1    0    0    0    0 -0.00000000000E+00 -0.00000000000E+00 -0.45593999997E+02  0.45594000000E+02  0.51100000000E-03 0. -1.
    9900012    2    1    2    0    0 -0.19990195755E+02 -0.34618854005E+01 -0.24599364413E+02  0.59301932410E+02  0.49999978812E+02 0.  0.
        -12    1    1    2    0    0  0.19990195755E+02  0.34618854005E+01  0.24599364413E+02  0.31886067590E+02  0.00000000000E+00 0.  1.
         11    1    3    3    0    0 -0.13142882527E+02  0.92464777140E+00 -0.11802057734E+02  0.17688383240E+02  0.51100000000E-03 0. -1.
        -11    1    3    3    0    0  0.59406503154E+01  0.34761889283E+01  0.11295054691E+02  0.13226998010E+02  0.51100000000E-03 0.  1.
        -12    1    3    3    0    0 -0.12787963543E+02 -0.78627221003E+01 -0.24092361369E+02  0.28386551160E+02  0.00000000000E+00 0.  1.
</event>
<event>
 7    1  0.5761011E-013  0.5930195E+02  0.7816164E-02  0.1266605E+00
        -11   -1    0    0    0    0  0.00000000000E+00  0.00000000000E+00  0.45593999997E+02  0.45594000000E+02  0.51100000000E-03 0.  1.
         11   -1    0    0    0    0 -0.00000000000E+00 -0.00000000000E+00 -0.45593999997E+02  0.45594000000E+02  0.51100000000E-03 0. -1.
    9900012    2    1    2    0    0 -0.42438595998E+01 -0.13145404179E+02 -0.28738619168E+02  0.59301949335E+02  0.50000009679E+02 0.  0.
        -12    1    1    2    0    0  0.42438595998E+01  0.13145404179E+02  0.28738619168E+02  0.31886050665E+02  0.00000000000E+00 0.  1.
         11    1    3    3    0    0  0.29396253594E+01 -0.71056375135E+01 -0.27470312888E+02  0.28526296152E+02  0.51100000000E-03 0. -1.
        -11    1    3    3    0    0 -0.16261177959E+02  0.42665459194E+01  0.10628698185E+01  0.16845148120E+02  0.51100000000E-03 0.  1.
        -12    1    3    3    0    0  0.90776929995E+01 -0.10306312585E+02 -0.23311760978E+01  0.13930505062E+02  0.00000000000E+00 0.  1.
</event>
<event>
 7    1  0.5761011E-013  0.5930175E+02  0.7816164E-02  0.1266605E+00
        -11   -1    0    0    0    0  0.00000000000E+00  0.00000000000E+00  0.45593999997E+02  0.45594000000E+02  0.51100000000E-03 0.  1.
         11   -1    0    0    0    0 -0.00000000000E+00 -0.00000000000E+00 -0.45593999997E+02  0.45594000000E+02  0.51100000000E-03 0. -1.
    9900012    2    1    2    0    0  0.11453786507E+02  0.11557911649E+02 -0.27421858428E+02  0.59301751135E+02  0.49999648209E+02 0.  0.
        -12    1    1    2    0    0 -0.11453786507E+02 -0.11557911649E+02  0.27421858428E+02  0.31886248865E+02  0.00000000000E+00 0.  1.
         11    1    3    3    0    0  0.31025512914E+01  0.10896726692E+02 -0.22316160139E+02  0.25027494496E+02  0.51100000000E-03 0.  1.
        -11    1    3    3    0    0  0.39726196307E+01 -0.11826779981E+02 -0.13673102393E+02  0.18509677489E+02  0.51100000000E-03 0. -1.
         12    1    3    3    0    0  0.43786155844E+01  0.12487964938E+02  0.85674041036E+01  0.15764579151E+02  0.00000000000E+00 0. -1.
</event>
<event>
 7    1  0.5761011E-013  0.5930194E+02  0.7816164E-02  0.1266605E+00
        -11   -1    0    0    0    0  0.00000000000E+00  0.00000000000E+00  0.45593999997E+02  0.45594000000E+02  0.51100000000E-03 0. -1.
         11   -1    0    0    0    0 -0.00000000000E+00 -0.00000000000E+00 -0.45593999997E+02  0.45594000000E+02  0.51100000000E-03 0.  1.
    9900012    2    1    2    0    0  0.17361653612E+02 -0.25799926234E+02  0.70468032290E+01  0.59301942771E+02  0.49999997709E+02 0.  0.
        -12    1    1    2    0    0 -0.17361653612E+02  0.25799926234E+02 -0.70468032290E+01  0.31886057229E+02  0.00000000000E+00 0.  1.
         11    1    3    3    0    0  0.18240832654E+02 -0.13678120360E+02  0.13394433419E+02  0.26442953681E+02  0.51100000000E-03 0. -1.
        -11    1    3    3    0    0 -0.14001091336E+02 -0.11379256702E+02  0.47986276601E+00  0.18048498836E+02  0.51100000000E-03 0.  1.
         12    1    3    3    0    0  0.13121912294E+02 -0.74254917212E+00 -0.68274929564E+01  0.14810490255E+02  0.00000000000E+00 0. -1.
</event>
<event>
 7    1  0.5761011E-013  0.5930196E+02  0.7816164E-02  0.1266605E+00
        -11   -1    0    0    0    0  0.00000000000E+00  0.00000000000E+00  0.45593999997E+02  0.45594000000E+02  0.51100000000E-03 0.  1.
         11   -1    0    0    0    0 -0.00000000000E+00 -0.00000000000E+00 -0.45593999997E+02  0.45594000000E+02  0.51100000000E-03 0. -1.
    9900012    2    1    2    0    0 -0.51069972959E+00 -0.28232957109E+02 -0.14810778650E+02  0.59301955317E+02  0.50000020588E+02 0.  0.
        -12    1    1    2    0    0  0.51069972959E+00  0.28232957109E+02  0.14810778650E+02  0.31886044683E+02  0.00000000000E+00 0.  1.
         11    1    3    3    0    0 -0.13799383545E+02 -0.26766429003E+02 -0.79846850509E+01  0.31154773365E+02  0.51100000000E-03 0.  1.
        -11    1    3    3    0    0  0.79006499207E+01  0.69768283314E+01  0.58000825693E+01  0.12030684137E+02  0.51100000000E-03 0. -1.
         12    1    3    3    0    0  0.53880338949E+01 -0.84433564375E+01 -0.12626176168E+02  0.16116497815E+02  0.00000000000E+00 0. -1.
</event>
<event>
 7    1  0.5761011E-013  0.5930195E+02  0.7816164E-02  0.1266605E+00
        -11   -1    0    0    0    0  0.00000000000E+00  0.00000000000E+00  0.45593999997E+02  0.45594000000E+02  0.51100000000E-03 0.  1.
         11   -1    0    0    0    0 -0.00000000000E+00 -0.00000000000E+00 -0.45593999997E+02  0.45594000000E+02  0.51100000000E-03 0. -1.
    9900012    2    1    2    0    0 -0.19757715181E+02 -0.49623299189E+01 -0.24530144230E+02  0.59301952842E+02  0.50000016075E+02 0.  0.
        -12    1    1    2    0    0  0.19757715181E+02  0.49623299189E+01  0.24530144230E+02  0.31886047158E+02  0.00000000000E+00 0.  1.
         11    1    3    3    0    0  0.55462166472E-01  0.16243493243E+02  0.32348135195E+01  0.16562553172E+02  0.51100000000E-03 0.  1.
        -11    1    3    3    0    0 -0.14387457132E+02 -0.14956964065E+02 -0.97814650992E+01  0.22943120026E+02  0.51100000000E-03 0. -1.
        -12    1    3    3    0    0 -0.54257202156E+01 -0.62488590969E+01 -0.17983492650E+02  0.19796279645E+02  0.00000000000E+00 0.  1.
</event>
<event>
 7    1  0.5761011E-013  0.5930174E+02  0.7816164E-02  0.1266605E+00
        -11   -1    0    0    0    0  0.00000000000E+00  0.00000000000E+00  0.45593999997E+02  0.45594000000E+02  0.51100000000E-03 0.  1.
         11   -1    0    0    0    0 -0.00000000000E+00 -0.00000000000E+00 -0.45593999997E+02  0.45594000000E+02  0.51100000000E-03 0. -1.
    9900012    2    1    2    0    0  0.92061883673E+01 -0.25976826933E+01 -0.30417619267E+02  0.59301742435E+02  0.49999632342E+02 0.  0.
        -12    1    1    2    0    0 -0.92061883673E+01  0.25976826933E+01  0.30417619267E+02  0.31886257565E+02  0.00000000000E+00 0.  1.
         11    1    3    3    0    0  0.10869867315E+01 -0.40379831368E+01 -0.12009114573E+02  0.12716354865E+02  0.51100000000E-03 0. -1.
        -11    1    3    3    0    0  0.21503694299E+02 -0.37936080696E+00  0.25432109077E+01  0.21656885859E+02  0.51100000000E-03 0.  1.
        -12    1    3    3    0    0 -0.13384492663E+02  0.18196612504E+01 -0.20951715602E+02  0.24928501711E+02  0.00000000000E+00 0.  1.
</event>
<event>
 7    1  0.5761011E-013  0.5930200E+02  0.7816164E-02  0.1266605E+00
        -11   -1    0    0    0    0  0.00000000000E+00  0.00000000000E+00  0.45593999997E+02  0.45594000000E+02  0.51100000000E-03 0.  1.
         11   -1    0    0    0    0 -0.00000000000E+00 -0.00000000000E+00 -0.45593999997E+02  0.45594000000E+02  0.51100000000E-03 0. -1.
    9900012    2    1    2    0    0 -0.14406484376E+00  0.95820262146E+01 -0.30411859076E+02  0.59301997530E+02  0.50000097574E+02 0.  0.
        -12    1    1    2    0    0  0.14406484376E+00 -0.95820262146E+01  0.30411859076E+02  0.31886002470E+02  0.00000000000E+00 0.  1.
         11    1    3    3    0    0 -0.15891109464E+02  0.60918868099E+01 -0.20384127584E+02  0.26554681367E+02  0.51100000000E-03 0. -1.
        -11    1    3    3    0    0  0.48620512338E+01 -0.76455914528E+01  0.56277024868E+01  0.10666097993E+02  0.51100000000E-03 0.  1.
        -12    1    3    3    0    0  0.10884993386E+02  0.11135730857E+02 -0.15655433979E+02  0.22081218169E+02  0.00000000000E+00 0.  1.
</event>
<event>
 7    1  0.5761011E-013  0.5930192E+02  0.7816164E-02  0.1266605E+00
        -11   -1    0    0    0    0  0.00000000000E+00  0.00000000000E+00  0.45593999997E+02  0.45594000000E+02  0.51100000000E-03 0.  1.
         11   -1    0    0    0    0 -0.00000000000E+00 -0.00000000000E+00 -0.45593999997E+02  0.45594000000E+02  0.51100000000E-03 0. -1.
    9900012    2    1    2    0    0 -0.29972461611E+02  0.12210427526E+00 -0.10879265557E+02  0.59301924928E+02  0.49999965166E+02 0.  0.
        -12    1    1    2    0    0  0.29972461611E+02 -0.12210427526E+00  0.10879265557E+02  0.31886075072E+02  0.00000000000E+00 0.  1.
         11    1    3    3    0    0 -0.24842287408E+02 -0.10184942501E+02 -0.15438505463E+02  0.30971272957E+02  0.51100000000E-03 0. -1.
        -11    1    3    3    0    0  0.98856662762E+01  0.69618592229E+01  0.46281058927E+01  0.12946553440E+02  0.51100000000E-03 0.  1.
        -12    1    3    3    0    0 -0.15015840479E+02  0.33451875538E+01 -0.68865986854E-01  0.15384098530E+02  0.00000000000E+00 0.  1.
</event>
<event>
 7    1  0.5761011E-013  0.5930194E+02  0.7816164E-02  0.1266605E+00
        -11   -1    0    0    0    0  0.00000000000E+00  0.00000000000E+00  0.45593999997E+02  0.45594000000E+02  0.51100000000E-03 0.  1.
         11   -1    0    0    0    0 -0.00000000000E+00 -0.00000000000E+00 -0.45593999997E+02  0.45594000000E+02  0.51100000000E-03 0. -1.
    9900012    2    1    2    0    0  0.14094764126E+02  0.92658805408E+01 -0.27059228308E+02  0.59301941062E+02  0.49999994591E+02 0.  0.
        -12    1    1    2    0    0 -0.14094764126E+02 -0.92658805408E+01  0.27059228308E+02  0.31886058938E+02  0.00000000000E+00 0.  1.
         11    1    3    3    0    0  0.14061204026E+02  0.42294543035E+01 -0.69381824943E+01  0.16240200706E+02  0.51100000000E-03 0. -1.
        -11    1    3    3    0    0 -0.12225456139E+02 -0.60723492711E+01  0.36226485695E+01  0.14122987871E+02  0.51100000000E-03 0.  1.
        -12    1    3    3    0    0  0.12259016239E+02  0.11108775508E+02 -0.23743694383E+02  0.28938752485E+02  0.00000000000E+00 0.  1.
</event>
<event>
 7    1  0.5761011E-013  0.5930196E+02  0.7816164E-02  0.1266605E+00
        -11   -1    0    0    0    0  0.00000000000E+00  0.00000000000E+00  0.45593999997E+02  0.45594000000E+02  0.51100000000E-03 0.  1.
         11   -1    0    0    0    0 -0.00000000000E+00 -0.00000000000E+00 -0.45593999997E+02  0.45594000000E+02  0.51100000000E-03 0. -1.
    9900012    2    1    2    0    0  0.26821253815E+02  0.11831712103E+02  0.12543948014E+02  0.59301957610E+02  0.50000024772E+02 0.  0.
        -12    1    1    2    0    0 -0.26821253815E+02 -0.11831712103E+02 -0.12543948014E+02  0.31886042390E+02  0.00000000000E+00 0.  1.
         11    1    3    3    0    0  0.27872642471E+02  0.17593041186E+02  0.99355907644E+01  0.34425503054E+02  0.51100000000E-03 0. -1.
        -11    1    3    3    0    0 -0.11261774596E+02  0.22056197620E+01  0.31954506933E+01  0.11912314258E+02  0.51100000000E-03 0.  1.
         12    1    3    3    0    0  0.10210385940E+02 -0.79669488449E+01 -0.58709344329E+00  0.12964140298E+02  0.00000000000E+00 0. -1.
</event>
<event>
 7    1  0.5761011E-013  0.5930194E+02  0.7816164E-02  0.1266605E+00
        -11   -1    0    0    0    0  0.00000000000E+00  0.00000000000E+00  0.45593999997E+02  0.45594000000E+02  0.51100000000E-03 0.  1.
         11   -1    0    0    0    0 -0.00000000000E+00 -0.00000000000E+00 -0.45593999997E+02  0.45594000000E+02  0.51100000000E-03 0. -1.
    9900012    2    1    2    0    0  0.13863996131E+02  0.12731047056E+02 -0.25737735694E+02  0.59301937425E+02  0.49999987958E+02 0.  0.
        -12    1    1    2    0    0 -0.13863996131E+02 -0.12731047056E+02  0.25737735694E+02  0.31886062575E+02  0.00000000000E+00 0.  1.
         11    1    3    3    0    0 -0.66864913117E+01  0.47028992423E+01 -0.99186448990E+01  0.12853246447E+02  0.51100000000E-03 0. -1.
        -11    1    3    3    0    0  0.19925287963E+02 -0.82190350806E+01 -0.20273580099E+02  0.29590330994E+02  0.51100000000E-03 0.  1.
        -12    1    3    3    0    0  0.62519948060E+00  0.16247182894E+02  0.44544893035E+01  0.16858359984E+02  0.00000000000E+00 0.  1.
</event>
<event>
 7    1  0.5761011E-013  0.5930195E+02  0.7816164E-02  0.1266605E+00
        -11   -1    0    0    0    0  0.00000000000E+00  0.00000000000E+00  0.45593999997E+02  0.45594000000E+02  0.51100000000E-03 0.  1.
         11   -1    0    0    0    0 -0.00000000000E+00 -0.00000000000E+00 -0.45593999997E+02  0.45594000000E+02  0.51100000000E-03 0. -1.
    9900012    2    1    2    0    0 -0.28318876251E+02 -0.42751965751E+01 -0.14017271449E+02  0.59301953573E+02  0.50000017409E+02 0.  0.
        -12    1    1    2    0    0  0.28318876251E+02  0.42751965751E+01  0.14017271449E+02  0.31886046427E+02  0.00000000000E+00 0.  1.
         11    1    3    3    0    0  0.68934121902E+01  0.53011183777E+01  0.85947128861E+01  0.12226613494E+02  0.51100000000E-03 0.  1.
        -11    1    3    3    0    0 -0.22785254004E+02  0.88696534235E-01 -0.47673526083E+01  0.23278816943E+02  0.51100000000E-03 0. -1.
        -12    1    3    3    0    0 -0.12427034437E+02 -0.96650114871E+01 -0.17844631726E+02  0.23796523137E+02  0.00000000000E+00 0.  1.
</event>
<event>
 7    1  0.5761011E-013  0.5930195E+02  0.7816164E-02  0.1266605E+00
        -11   -1    0    0    0    0  0.00000000000E+00  0.00000000000E+00  0.45593999997E+02  0.45594000000E+02  0.51100000000E-03 0.  1.
         11   -1    0    0    0    0 -0.00000000000E+00 -0.00000000000E+00 -0.45593999997E+02  0.45594000000E+02  0.51100000000E-03 0. -1.
    9900012    2    1    2    0    0  0.11220807247E+02 -0.50784953321E+01 -0.29411269623E+02  0.59301946451E+02  0.50000004419E+02 0.  0.
        -12    1    1    2    0    0 -0.11220807247E+02  0.50784953321E+01  0.29411269623E+02  0.31886053549E+02  0.00000000000E+00 0.  1.
         11    1    3    3    0    0  0.30109715213E+02 -0.71477562900E+01 -0.13910494157E+02  0.33929149976E+02  0.51100000000E-03 0. -1.
        -11    1    3    3    0    0 -0.49832623017E+01  0.31902204893E+01 -0.29695221788E+01  0.66203075586E+01  0.51100000000E-03 0.  1.
         12    1    3    3    0    0 -0.13905645664E+02 -0.11209595315E+01 -0.12531253287E+02  0.18752488916E+02  0.00000000000E+00 0. -1.
</event>
<event>
 7    1  0.5761011E-013  0.5930194E+02  0.7816164E-02  0.1266605E+00
        -11   -1    0    0    0    0  0.00000000000E+00  0.00000000000E+00  0.45593999997E+02  0.45594000000E+02  0.51100000000E-03 0. -1.
         11   -1    0    0    0    0 -0.00000000000E+00 -0.00000000000E+00 -0.45593999997E+02  0.45594000000E+02  0.51100000000E-03 0.  1.
    9900012    2    1    2    0    0 -0.12248244790E+02 -0.61557076957E+01  0.28789031586E+02  0.59301943841E+02  0.49999999660E+02 0.  0.
        -12    1    1    2    0    0  0.12248244790E+02  0.61557076957E+01 -0.28789031586E+02  0.31886056159E+02  0.00000000000E+00 0.  1.
         11    1    3    3    0    0  0.71123429076E+01 -0.23870367235E+01  0.32776156123E+02  0.33623797769E+02  0.51100000000E-03 0. -1.
        -11    1    3    3    0    0 -0.20731010334E+02 -0.19649652372E+01  0.30362824700E+00  0.20826139062E+02  0.51100000000E-03 0.  1.
         12    1    3    3    0    0  0.13704226367E+01 -0.18037057351E+01 -0.42907527835E+01  0.48520070106E+01  0.00000000000E+00 0. -1.
</event>
<event>
 7    1  0.5761011E-013  0.5930195E+02  0.7816164E-02  0.1266605E+00
        -11   -1    0    0    0    0  0.00000000000E+00  0.00000000000E+00  0.45593999997E+02  0.45594000000E+02  0.51100000000E-03 0.  1.
         11   -1    0    0    0    0 -0.00000000000E+00 -0.00000000000E+00 -0.45593999997E+02  0.45594000000E+02  0.51100000000E-03 0. -1.
    9900012    2    1    2    0    0  0.18738233066E+02  0.54744429709E+01 -0.25211685635E+02  0.59301952944E+02  0.50000016262E+02 0.  0.
        -12    1    1    2    0    0 -0.18738233066E+02 -0.54744429709E+01  0.25211685635E+02  0.31886047056E+02  0.00000000000E+00 0.  1.
         11    1    3    3    0    0 -0.69704695731E+01  0.88415851953E+01 -0.17975161588E+02  0.21210080368E+02  0.51100000000E-03 0. -1.
        -11    1    3    3    0    0  0.22767550735E+02 -0.13234874940E+02 -0.86040222694E+01  0.27704737512E+02  0.51100000000E-03 0.  1.
        -12    1    3    3    0    0  0.29411519043E+01  0.98677327152E+01  0.13674982227E+01  0.10387135065E+02  0.00000000000E+00 0.  1.
</event>
<event>
 7    1  0.5761011E-013  0.5930195E+02  0.7816164E-02  0.1266605E+00
        -11   -1    0    0    0    0  0.00000000000E+00  0.00000000000E+00  0.45593999997E+02  0.45594000000E+02  0.51100000000E-03 0.  1.
         11   -1    0    0    0    0 -0.00000000000E+00 -0.00000000000E+00 -0.45593999997E+02  0.45594000000E+02  0.51100000000E-03 0. -1.
    9900012    2    1    2    0    0 -0.12440326862E+02 -0.98237130262E+00 -0.29342689731E+02  0.59301949344E+02  0.50000009695E+02 0.  0.
        -12    1    1    2    0    0  0.12440326862E+02  0.98237130262E+00  0.29342689731E+02  0.31886050656E+02  0.00000000000E+00 0.  1.
         11    1    3    3    0    0 -0.22022383463E+01 -0.17719624590E+02 -0.17825277376E+01  0.17944702693E+02  0.51100000000E-03 0.  1.
        -11    1    3    3    0    0 -0.17858471571E+02  0.10590334663E+02 -0.16026099218E+02  0.26228153796E+02  0.51100000000E-03 0. -1.
         12    1    3    3    0    0  0.76203830557E+01  0.61469186239E+01 -0.11534062776E+02  0.15129092855E+02  0.00000000000E+00 0. -1.
</event>
<event>
 7    1  0.5761011E-013  0.5930194E+02  0.7816164E-02  0.1266605E+00
        -11   -1    0    0    0    0  0.00000000000E+00  0.00000000000E+00  0.45593999997E+02  0.45594000000E+02  0.51100000000E-03 0.  1.
         11   -1    0    0    0    0 -0.00000000000E+00 -0.00000000000E+00 -0.45593999997E+02  0.45594000000E+02  0.51100000000E-03 0. -1.
    9900012    2    1    2    0    0 -0.26859218001E+02  0.14381175311E+02  0.94066613105E+01  0.59301936085E+02  0.49999985514E+02 0.  0.
        -12    1    1    2    0    0  0.26859218001E+02 -0.14381175311E+02 -0.94066613105E+01  0.31886063915E+02  0.00000000000E+00 0.  1.
         11    1    3    3    0    0  0.96733643809E+01  0.13963709085E+02 -0.31807088483E+01  0.17282246928E+02  0.51100000000E-03 0. -1.
        -11    1    3    3    0    0 -0.18289417633E+02 -0.71376663638E+01  0.10216910622E+02  0.22132201458E+02  0.51100000000E-03 0.  1.
         12    1    3    3    0    0 -0.18243164750E+02  0.75551325903E+01  0.23704595367E+01  0.19887487698E+02  0.00000000000E+00 0. -1.
</event>
<event>
 7    1  0.5761011E-013  0.5930193E+02  0.7816164E-02  0.1266605E+00
        -11   -1    0    0    0    0  0.00000000000E+00  0.00000000000E+00  0.45593999997E+02  0.45594000000E+02  0.51100000000E-03 0.  1.
         11   -1    0    0    0    0 -0.00000000000E+00 -0.00000000000E+00 -0.45593999997E+02  0.45594000000E+02  0.51100000000E-03 0. -1.
    9900012    2    1    2    0    0  0.30516419060E+01  0.31661163423E+02  0.22314518385E+01  0.59301934627E+02  0.49999982856E+02 0.  0.
        -12    1    1    2    0    0 -0.30516419060E+01 -0.31661163423E+02 -0.22314518385E+01  0.31886065373E+02  0.00000000000E+00 0.  1.
         11    1    3    3    0    0  0.54045835124E+01  0.27878519151E+02  0.21816656998E+01  0.28481239763E+02  0.51100000000E-03 0. -1.
        -11    1    3    3    0    0  0.39091182070E+01 -0.10627839881E+02 -0.73014067142E+01  0.13473779201E+02  0.51100000000E-03 0.  1.
         12    1    3    3    0    0 -0.62620598135E+01  0.14410484154E+02  0.73511928529E+01  0.17346915663E+02  0.00000000000E+00 0. -1.
</event>
<event>
 7    1  0.5761011E-013  0.5930195E+02  0.7816164E-02  0.1266605E+00
        -11   -1    0    0    0    0  0.00000000000E+00  0.00000000000E+00  0.45593999997E+02  0.45594000000E+02  0.51100000000E-03 0.  1.
         11   -1    0    0    0    0 -0.00000000000E+00 -0.00000000000E+00 -0.45593999997E+02  0.45594000000E+02  0.51100000000E-03 0. -1.
    9900012    2    1    2    0    0 -0.20592606898E+02 -0.72442313930E+01 -0.23241902085E+02  0.59301947252E+02  0.50000005880E+02 0.  0.
        -12    1    1    2    0    0  0.20592606898E+02  0.72442313930E+01  0.23241902085E+02  0.31886052748E+02  0.00000000000E+00 0.  1.
         11    1    3    3    0    0 -0.15930143402E+02  0.87615814104E+00 -0.15072824811E+02  0.21948283986E+02  0.51100000000E-03 0. -1.
        -11    1    3    3    0    0  0.99251742807E+01  0.91177906734E+01 -0.43745853582E+00  0.13484604610E+02  0.51100000000E-03 0.  1.
        -12    1    3    3    0    0 -0.14587637776E+02 -0.17238180207E+02 -0.77316187387E+01  0.23869058655E+02  0.00000000000E+00 0.  1.
</event>
<event>
 7    1  0.5761011E-013  0.5930196E+02  0.7816164E-02  0.1266605E+00
        -11   -1    0    0    0    0  0.00000000000E+00  0.00000000000E+00  0.45593999997E+02  0.45594000000E+02  0.51100000000E-03 0.  1.
         11   -1    0    0    0    0 -0.00000000000E+00 -0.00000000000E+00 -0.45593999997E+02  0.45594000000E+02  0.51100000000E-03 0. -1.
    9900012    2    1    2    0    0 -0.15448555463E+02  0.22791402769E+02 -0.16081473822E+02  0.59301957500E+02  0.50000024569E+02 0.  0.
        -12    1    1    2    0    0  0.15448555463E+02 -0.22791402769E+02  0.16081473822E+02  0.31886042500E+02  0.00000000000E+00 0.  1.
         11    1    3    3    0    0  0.90973194731E+01  0.32895947655E+01 -0.81531966907E+00  0.97081101014E+01  0.51100000000E-03 0.  1.
        -11    1    3    3    0    0 -0.17508885231E+02  0.29629906131E+02 -0.14146205237E+02  0.37210314729E+02  0.51100000000E-03 0. -1.
        -12    1    3    3    0    0 -0.70369897050E+01 -0.10128098128E+02 -0.11199489154E+01  0.12383532669E+02  0.00000000000E+00 0.  1.
</event>
<event>
 7    1  0.5761011E-013  0.5930195E+02  0.7816164E-02  0.1266605E+00
        -11   -1    0    0    0    0  0.00000000000E+00  0.00000000000E+00  0.45593999997E+02  0.45594000000E+02  0.51100000000E-03 0.  1.
         11   -1    0    0    0    0 -0.00000000000E+00 -0.00000000000E+00 -0.45593999997E+02  0.45594000000E+02  0.51100000000E-03 0. -1.
    9900012    2    1    2    0    0  0.32089421309E+01 -0.18293912465E+01 -0.31671381744E+02  0.59301946567E+02  0.50000004632E+02 0.  0.
        -12    1    1    2    0    0 -0.32089421309E+01  0.18293912465E+01  0.31671381744E+02  0.31886053433E+02  0.00000000000E+00 0.  1.
         11    1    3    3    0    0  0.35242736755E+01 -0.15747820864E+02 -0.36216165390E+02  0.39648770507E+02  0.51100000000E-03 0. -1.
        -11    1    3    3    0    0  0.43325523396E+01  0.13282808029E+02  0.14801870129E+01  0.14049731412E+02  0.51100000000E-03 0.  1.
        -12    1    3    3    0    0 -0.46478838842E+01  0.63562158883E+00  0.30645966330E+01  0.56034446484E+01  0.00000000000E+00 0.  1.
</event>
<event>
 7    1  0.5761011E-013  0.5930194E+02  0.7816164E-02  0.1266605E+00
        -11   -1    0    0    0    0  0.00000000000E+00  0.00000000000E+00  0.45593999997E+02  0.45594000000E+02  0.51100000000E-03 0.  1.
         11   -1    0    0    0    0 -0.00000000000E+00 -0.00000000000E+00 -0.45593999997E+02  0.45594000000E+02  0.51100000000E-03 0. -1.
    9900012    2    1    2    0    0 -0.14043651273E+02 -0.25534501024E+02 -0.12941634794E+02  0.59301940433E+02  0.49999993443E+02 0.  0.
        -12    1    1    2    0    0  0.14043651273E+02  0.25534501024E+02  0.12941634794E+02  0.31886059567E+02  0.00000000000E+00 0.  1.
         11    1    3    3    0    0 -0.14082376819E+02 -0.29386527614E+02 -0.17297451177E+02  0.36892860550E+02  0.51100000000E-03 0. -1.
        -11    1    3    3    0    0  0.65289842074E+01  0.34610397722E+01 -0.64429197046E+01  0.98039607132E+01  0.51100000000E-03 0.  1.
         12    1    3    3    0    0 -0.64902586616E+01  0.39098681786E+00  0.10798736088E+02  0.12605119170E+02  0.00000000000E+00 0. -1.
</event>
<event>
 7    1  0.5761011E-013  0.5930195E+02  0.7816164E-02  0.1266605E+00
        -11   -1    0    0    0    0  0.00000000000E+00  0.00000000000E+00  0.45593999997E+02  0.45594000000E+02  0.51100000000E-03 0. -1.
         11   -1    0    0    0    0 -0.00000000000E+00 -0.00000000000E+00 -0.45593999997E+02  0.45594000000E+02  0.51100000000E-03 0.  1.
    9900012    2    1    2    0    0  0.28472706249E+02  0.41165884254E+01  0.13750587772E+02  0.59301953436E+02  0.50000017159E+02 0.  0.
        -12    1    1    2    0    0 -0.28472706249E+02 -0.41165884254E+01 -0.13750587772E+02  0.31886046564E+02  0.00000000000E+00 0.  1.
         11    1    3    3    0    0  0.11498593634E+02 -0.73364280289E+01 -0.74977694684E+01  0.15564619463E+02  0.51100000000E-03 0. -1.
        -11    1    3    3    0    0  0.10499874246E+02 -0.34446400900E+00  0.27098424365E+02  0.29063561687E+02  0.51100000000E-03 0.  1.
        -12    1    3    3    0    0  0.64742383690E+01  0.11797480463E+02 -0.58500671239E+01  0.14673772286E+02  0.00000000000E+00 0.  1.
</event>
<event>
 7    1  0.5761011E-013  0.5930193E+02  0.7816164E-02  0.1266605E+00
        -11   -1    0    0    0    0  0.00000000000E+00  0.00000000000E+00  0.45593999997E+02  0.45594000000E+02  0.51100000000E-03 0.  1.
         11   -1    0    0    0    0 -0.00000000000E+00 -0.00000000000E+00 -0.45593999997E+02  0.45594000000E+02  0.51100000000E-03 0. -1.
    9900012    2    1    2    0    0 -0.35661914700E+01 -0.35414176510E+01 -0.31487491756E+02  0.59301929410E+02  0.49999973341E+02 0.  0.
        -12    1    1    2    0    0  0.35661914700E+01  0.35414176510E+01  0.31487491756E+02  0.31886070590E+02  0.00000000000E+00 0.  1.
         11    1    3    3    0    0 -0.13571255041E+02 -0.67761500645E+01  0.39059307467E+01  0.15663699064E+02  0.51100000000E-03 0.  1.
        -11    1    3    3    0    0  0.13471502992E+02 -0.65613403048E+01 -0.18532979701E+02  0.23832832738E+02  0.51100000000E-03 0. -1.
         12    1    3    3    0    0 -0.34664394206E+01  0.97960727183E+01 -0.16860442801E+02  0.19805397608E+02  0.00000000000E+00 0. -1.
</event>
<event>
 7    1  0.5761011E-013  0.5930194E+02  0.7816164E-02  0.1266605E+00
        -11   -1    0    0    0    0  0.00000000000E+00  0.00000000000E+00  0.45593999997E+02  0.45594000000E+02  0.51100000000E-03 0. -1.
         11   -1    0    0    0    0 -0.00000000000E+00 -0.00000000000E+00 -0.45593999997E+02  0.45594000000E+02  0.51100000000E-03 0.  1.
    9900012    2    1    2    0    0 -0.26697054510E+02 -0.13564006179E+02  0.10954710290E+02  0.59301942535E+02  0.49999997278E+02 0.  0.
        -12    1    1    2    0    0  0.26697054510E+02  0.13564006179E+02 -0.10954710290E+02  0.31886057465E+02  0.00000000000E+00 0.  1.
         11    1    3    3    0    0 -0.57761221395E+01 -0.60303645152E+01 -0.27385433519E+01  0.87879749151E+01  0.51100000000E-03 0.  1.
        -11    1    3    3    0    0 -0.28679953794E+02 -0.99217104831E+01  0.23062853565E+02  0.38116601414E+02  0.51100000000E-03 0. -1.
        -12    1    3    3    0    0  0.77590214237E+01  0.23880688195E+01 -0.93695999225E+01  0.12397366206E+02  0.00000000000E+00 0.  1.
</event>
<event>
 7    1  0.5761011E-013  0.5930193E+02  0.7816164E-02  0.1266605E+00
        -11   -1    0    0    0    0  0.00000000000E+00  0.00000000000E+00  0.45593999997E+02  0.45594000000E+02  0.51100000000E-03 0. -1.
         11   -1    0    0    0    0 -0.00000000000E+00 -0.00000000000E+00 -0.45593999997E+02  0.45594000000E+02  0.51100000000E-03 0.  1.
    9900012    2    1    2    0    0 -0.16899222297E+01 -0.56411887895E+00  0.31836263288E+02  0.59301925807E+02  0.49999966770E+02 0.  0.
        -12    1    1    2    0    0  0.16899222297E+01  0.56411887895E+00 -0.31836263288E+02  0.31886074193E+02  0.00000000000E+00 0.  1.
         11    1    3    3    0    0  0.31297107999E+01  0.80433253750E+01  0.42065960211E+02  0.42942230746E+02  0.51100000000E-03 0. -1.
        -11    1    3    3    0    0 -0.37053544416E+01 -0.53934215166E+00 -0.62711913039E+01  0.73039976811E+01  0.51100000000E-03 0.  1.
         12    1    3    3    0    0 -0.11142785880E+01 -0.80681021023E+01 -0.39585056181E+01  0.90556973798E+01  0.00000000000E+00 0. -1.
</event>
<event>
 7    1  0.5761011E-013  0.5930200E+02  0.7816164E-02  0.1266605E+00
        -11   -1    0    0    0    0  0.00000000000E+00  0.00000000000E+00  0.45593999997E+02  0.45594000000E+02  0.51100000000E-03 0. -1.
         11   -1    0    0    0    0 -0.00000000000E+00 -0.00000000000E+00 -0.45593999997E+02  0.45594000000E+02  0.51100000000E-03 0.  1.
    9900012    2    1    2    0    0 -0.10846419563E+02 -0.18830440383E+02  0.23334239202E+02  0.59301999600E+02  0.50000101351E+02 0.  0.
        -12    1    1    2    0    0  0.10846419563E+02  0.18830440383E+02 -0.23334239202E+02  0.31886000400E+02  0.00000000000E+00 0.  1.
         11    1    3    3    0    0 -0.24413497950E+02 -0.10147878860E+02  0.11779009562E+02  0.28943797160E+02  0.51100000000E-03 0. -1.
        -11    1    3    3    0    0  0.11572783450E+02 -0.16413481840E+02  0.85489695252E+01  0.21826969169E+02  0.51100000000E-03 0.  1.
         12    1    3    3    0    0  0.19942949370E+01  0.77309203177E+01  0.30062601150E+01  0.85312332715E+01  0.00000000000E+00 0. -1.
</event>
<event>
 7    1  0.5761011E-013  0.5930190E+02  0.7816164E-02  0.1266605E+00
        -11   -1    0    0    0    0  0.00000000000E+00  0.00000000000E+00  0.45593999997E+02  0.45594000000E+02  0.51100000000E-03 0. -1.
         11   -1    0    0    0    0 -0.00000000000E+00 -0.00000000000E+00 -0.45593999997E+02  0.45594000000E+02  0.51100000000E-03 0.  1.
    9900012    2    1    2    0    0 -0.24334306302E+00  0.26005507949E+02  0.18449320932E+02  0.59301904247E+02  0.49999927450E+02 0.  0.
        -12    1    1    2    0    0  0.24334306302E+00 -0.26005507949E+02 -0.18449320932E+02  0.31886095753E+02  0.00000000000E+00 0.  1.
         11    1    3    3    0    0  0.12045346940E+02  0.16937526378E+02  0.26904201191E+02  0.33997150243E+02  0.51100000000E-03 0. -1.
        -11    1    3    3    0    0 -0.11744879596E+02  0.23101566714E+01 -0.12583174711E+02  0.17367075362E+02  0.51100000000E-03 0.  1.
         12    1    3    3    0    0 -0.54381040737E+00  0.67578248997E+01  0.41282944521E+01  0.79376786416E+01  0.00000000000E+00 0. -1.
</event>
<event>
 7    1  0.5761011E-013  0.5930194E+02  0.7816164E-02  0.1266605E+00
        -11   -1    0    0    0    0  0.00000000000E+00  0.00000000000E+00  0.45593999997E+02  0.45594000000E+02  0.51100000000E-03 0.  1.
         11   -1    0    0    0    0 -0.00000000000E+00 -0.00000000000E+00 -0.45593999997E+02  0.45594000000E+02  0.51100000000E-03 0. -1.
    9900012    2    1    2    0    0 -0.17008098554E+02 -0.11298868774E+02 -0.24490424147E+02  0.59301941497E+02  0.49999995384E+02 0.  0.
        -12    1    1    2    0    0  0.17008098554E+02  0.11298868774E+02  0.24490424147E+02  0.31886058503E+02  0.00000000000E+00 0.  1.
         11    1    3    3    0    0 -0.89510889177E+01 -0.19149265734E+02 -0.79494342897E+01  0.22583398255E+02  0.51100000000E-03 0. -1.
        -11    1    3    3    0    0  0.56898647567E+01  0.15834436476E+02 -0.96039593567E+01  0.19373692861E+02  0.51100000000E-03 0.  1.
        -12    1    3    3    0    0 -0.13746874393E+02 -0.79840395164E+01 -0.69370305004E+01  0.17344850381E+02  0.00000000000E+00 0.  1.
</event>
<event>
 7    1  0.1140404E-012  0.5930194E+02  0.7816164E-02  0.1266605E+00
        -11   -1    0    0    0    0  0.00000000000E+00  0.00000000000E+00  0.45593999997E+02  0.45594000000E+02  0.51100000000E-03 0. -1.
         11   -1    0    0    0    0 -0.00000000000E+00 -0.00000000000E+00 -0.45593999997E+02  0.45594000000E+02  0.51100000000E-03 0.  1.
    9900012    2    1    2    0    0 -0.11409292856E+02 -0.16672801663E+02  0.24669141734E+02  0.59301939838E+02  0.49999992359E+02 0.  0.
        -12    1    1    2    0    0  0.11409292856E+02  0.16672801663E+02 -0.24669141734E+02  0.31886060162E+02  0.00000000000E+00 0.  1.
         11    1    3    3    0    0 -0.38602628387E+00 -0.15172120009E+02  0.17339339542E+02  0.23043327405E+02  0.51100000000E-03 0. -1.
        -11    1    3    3    0    0 -0.67905850990E+01  0.14488755872E+02  0.10869658298E+02  0.19343876666E+02  0.51100000000E-03 0.  1.
        -12    1    3    3    0    0 -0.42326814728E+01 -0.15989437525E+02 -0.35398561066E+01  0.16914735767E+02  0.00000000000E+00 0.  1.
</event>
<event>
 7    1  0.5761011E-013  0.5930197E+02  0.7816164E-02  0.1266605E+00
        -11   -1    0    0    0    0  0.00000000000E+00  0.00000000000E+00  0.45593999997E+02  0.45594000000E+02  0.51100000000E-03 0.  1.
         11   -1    0    0    0    0 -0.00000000000E+00 -0.00000000000E+00 -0.45593999997E+02  0.45594000000E+02  0.51100000000E-03 0. -1.
    9900012    2    1    2    0    0 -0.12132776772E+02  0.12864902961E+02 -0.26533160865E+02  0.59301974443E+02  0.50000055469E+02 0.  0.
        -12    1    1    2    0    0  0.12132776772E+02 -0.12864902961E+02  0.26533160865E+02  0.31886025557E+02  0.00000000000E+00 0.  1.
         11    1    3    3    0    0 -0.16115621815E+02 -0.32227924410E+01  0.27452675499E+01  0.16662417346E+02  0.51100000000E-03 0. -1.
        -11    1    3    3    0    0  0.47159630951E+01  0.20485390796E+02 -0.10804628870E+02  0.23635387647E+02  0.51100000000E-03 0.  1.
         12    1    3    3    0    0 -0.73311805151E+00 -0.43976953940E+01 -0.18473799545E+02  0.19004169450E+02  0.00000000000E+00 0. -1.
</event>
<event>
 7    1  0.5761011E-013  0.5930199E+02  0.7816164E-02  0.1266605E+00
        -11   -1    0    0    0    0  0.00000000000E+00  0.00000000000E+00  0.45593999997E+02  0.45594000000E+02  0.51100000000E-03 0. -1.
         11   -1    0    0    0    0 -0.00000000000E+00 -0.00000000000E+00 -0.45593999997E+02  0.45594000000E+02  0.51100000000E-03 0.  1.
    9900012    2    1    2    0    0  0.32773444423E+01 -0.19093718183E+02  0.25326000484E+02  0.59301994274E+02  0.50000091637E+02 0.  0.
        -12    1    1    2    0    0 -0.32773444423E+01  0.19093718183E+02 -0.25326000484E+02  0.31886005726E+02  0.00000000000E+00 0.  1.
         11    1    3    3    0    0 -0.17065018479E+02 -0.66086319191E+00  0.18288916210E+02  0.25022710730E+02  0.51100000000E-03 0. -1.
        -11    1    3    3    0    0  0.63730393134E+01 -0.12458431368E+02 -0.50368183259E+01  0.14872716004E+02  0.51100000000E-03 0.  1.
         12    1    3    3    0    0  0.13969323608E+02 -0.59744236232E+01  0.12073902600E+02  0.19406567540E+02  0.00000000000E+00 0. -1.
</event>
<event>
 7    1  0.5761011E-013  0.5930190E+02  0.7816164E-02  0.1266605E+00
        -11   -1    0    0    0    0  0.00000000000E+00  0.00000000000E+00  0.45593999997E+02  0.45594000000E+02  0.51100000000E-03 0.  1.
         11   -1    0    0    0    0 -0.00000000000E+00 -0.00000000000E+00 -0.45593999997E+02  0.45594000000E+02  0.51100000000E-03 0. -1.
    9900012    2    1    2    0    0 -0.94835320574E+01  0.13430303325E+02 -0.27320557734E+02  0.59301901107E+02  0.49999921724E+02 0.  0.
        -12    1    1    2    0    0  0.94835320574E+01 -0.13430303325E+02  0.27320557734E+02  0.31886098893E+02  0.00000000000E+00 0.  1.
         11    1    3    3    0    0 -0.69629375142E+01 -0.10780406893E+02 -0.22284088201E+02  0.25715370089E+02  0.51100000000E-03 0. -1.
        -11    1    3    3    0    0 -0.12011928381E+02  0.11497302445E+02  0.88722837344E+00  0.16651172974E+02  0.51100000000E-03 0.  1.
         12    1    3    3    0    0  0.94913338380E+01  0.12713407772E+02 -0.59236979063E+01  0.16935358044E+02  0.00000000000E+00 0. -1.
</event>
<event>
 7    1  0.5761011E-013  0.5930194E+02  0.7816164E-02  0.1266605E+00
        -11   -1    0    0    0    0  0.00000000000E+00  0.00000000000E+00  0.45593999997E+02  0.45594000000E+02  0.51100000000E-03 0.  1.
         11   -1    0    0    0    0 -0.00000000000E+00 -0.00000000000E+00 -0.45593999997E+02  0.45594000000E+02  0.51100000000E-03 0. -1.
    9900012    2    1    2    0    0 -0.13778303184E+01  0.62351374956E+01 -0.31240122329E+02  0.59301943500E+02  0.49999999037E+02 0.  0.
        -12    1    1    2    0    0  0.13778303184E+01 -0.62351374956E+01  0.31240122329E+02  0.31886056500E+02  0.00000000000E+00 0.  1.
         11    1    3    3    0    0 -0.10318149938E+02 -0.82045721644E+00  0.57392087131E+01  0.11835365863E+02  0.51100000000E-03 0.  1.
        -11    1    3    3    0    0  0.13536151570E+02  0.14964490742E+02 -0.21494564564E+02  0.29481853546E+02  0.51100000000E-03 0. -1.
         12    1    3    3    0    0 -0.45958319499E+01 -0.79088960298E+01 -0.15484766479E+02  0.17984724091E+02  0.00000000000E+00 0. -1.
</event>
<event>
 7    1  0.5761011E-013  0.5930211E+02  0.7816164E-02  0.1266604E+00
        -11   -1    0    0    0    0  0.00000000000E+00  0.00000000000E+00  0.45593999997E+02  0.45594000000E+02  0.51100000000E-03 0. -1.
         11   -1    0    0    0    0 -0.00000000000E+00 -0.00000000000E+00 -0.45593999997E+02  0.45594000000E+02  0.51100000000E-03 0.  1.
    9900012    2    1    2    0    0  0.62082079600E+01 -0.27962060056E+02  0.14010389536E+02  0.59302114979E+02  0.50000311773E+02 0.  0.
        -12    1    1    2    0    0 -0.62082079600E+01  0.27962060056E+02 -0.14010389536E+02  0.31885885021E+02  0.00000000000E+00 0.  1.
         11    1    3    3    0    0  0.15770922468E+01 -0.95731402847E+01  0.93650854624E+01  0.13484697284E+02  0.51100000000E-03 0. -1.
        -11    1    3    3    0    0 -0.48392388600E+01  0.12134321373E+02  0.46265603234E+01  0.13858753502E+02  0.51100000000E-03 0.  1.
        -12    1    3    3    0    0  0.94703545732E+01 -0.30523241144E+02  0.18743750353E-01  0.31958664193E+02  0.00000000000E+00 0.  1.
</event>
<event>
 7    1  0.5761011E-013  0.5930194E+02  0.7816164E-02  0.1266605E+00
        -11   -1    0    0    0    0  0.00000000000E+00  0.00000000000E+00  0.45593999997E+02  0.45594000000E+02  0.51100000000E-03 0.  1.
         11   -1    0    0    0    0 -0.00000000000E+00 -0.00000000000E+00 -0.45593999997E+02  0.45594000000E+02  0.51100000000E-03 0. -1.
    9900012    2    1    2    0    0 -0.39574149867E+01 -0.25133478813E+02 -0.19218947797E+02  0.59301939644E+02  0.49999992005E+02 0.  0.
        -12    1    1    2    0    0  0.39574149867E+01  0.25133478813E+02  0.19218947797E+02  0.31886060356E+02  0.00000000000E+00 0.  1.
         11    1    3    3    0    0  0.86389014982E-01 -0.87049335684E+00 -0.23319930506E+02  0.23336331777E+02  0.51100000000E-03 0. -1.
        -11    1    3    3    0    0  0.10530163243E+02 -0.15424834788E+02  0.17164166573E+01  0.18755158026E+02  0.51100000000E-03 0.  1.
        -12    1    3    3    0    0 -0.14573967245E+02 -0.88381506678E+01  0.23845660519E+01  0.17210449841E+02  0.00000000000E+00 0.  1.
</event>
<event>
 7    1  0.5761011E-013  0.5930198E+02  0.7816164E-02  0.1266605E+00
        -11   -1    0    0    0    0  0.00000000000E+00  0.00000000000E+00  0.45593999997E+02  0.45594000000E+02  0.51100000000E-03 0.  1.
         11   -1    0    0    0    0 -0.00000000000E+00 -0.00000000000E+00 -0.45593999997E+02  0.45594000000E+02  0.51100000000E-03 0. -1.
    9900012    2    1    2    0    0  0.68488180552E+00  0.79996142455E+01 -0.30858632092E+02  0.59301983225E+02  0.50000071486E+02 0.  0.
        -12    1    1    2    0    0 -0.68488180552E+00 -0.79996142455E+01  0.30858632092E+02  0.31886016775E+02  0.00000000000E+00 0.  1.
         11    1    3    3    0    0 -0.37995693300E+01  0.83372690740E+01 -0.41474146236E+02  0.42474128466E+02  0.51100000000E-03 0. -1.
        -11    1    3    3    0    0  0.63705949927E+00 -0.59871951088E+01  0.35144013278E+01  0.69716115088E+01  0.51100000000E-03 0.  1.
         12    1    3    3    0    0  0.38473916362E+01  0.56495402802E+01  0.71011128158E+01  0.98562432500E+01  0.00000000000E+00 0. -1.
</event>
<event>
 7    1  0.5761011E-013  0.5930193E+02  0.7816164E-02  0.1266605E+00
        -11   -1    0    0    0    0  0.00000000000E+00  0.00000000000E+00  0.45593999997E+02  0.45594000000E+02  0.51100000000E-03 0. -1.
         11   -1    0    0    0    0 -0.00000000000E+00 -0.00000000000E+00 -0.45593999997E+02  0.45594000000E+02  0.51100000000E-03 0.  1.
    9900012    2    1    2    0    0  0.11581559892E+02  0.69302644022E+01  0.28888753632E+02  0.59301934382E+02  0.49999982408E+02 0.  0.
        -12    1    1    2    0    0 -0.11581559892E+02 -0.69302644022E+01 -0.28888753632E+02  0.31886065618E+02  0.00000000000E+00 0.  1.
         11    1    3    3    0    0  0.18110917580E+02  0.15019154401E+02  0.28195071479E+02  0.36722505232E+02  0.51100000000E-03 0. -1.
        -11    1    3    3    0    0  0.13770670602E+01 -0.90600882286E+01  0.77009051217E+01  0.11970190155E+02  0.51100000000E-03 0.  1.
         12    1    3    3    0    0 -0.79064247484E+01  0.97119822930E+00 -0.70072229692E+01  0.10609238995E+02  0.00000000000E+00 0. -1.
</event>
<event>
 7    1  0.5761011E-013  0.5930194E+02  0.7816164E-02  0.1266605E+00
        -11   -1    0    0    0    0  0.00000000000E+00  0.00000000000E+00  0.45593999997E+02  0.45594000000E+02  0.51100000000E-03 0.  1.
         11   -1    0    0    0    0 -0.00000000000E+00 -0.00000000000E+00 -0.45593999997E+02  0.45594000000E+02  0.51100000000E-03 0. -1.
    9900012    2    1    2    0    0 -0.23375457935E+02  0.13493987567E-01 -0.21686605585E+02  0.59301935998E+02  0.49999985356E+02 0.  0.
        -12    1    1    2    0    0  0.23375457935E+02 -0.13493987567E-01  0.21686605585E+02  0.31886064002E+02  0.00000000000E+00 0.  1.
         11    1    3    3    0    0  0.96496725562E+01  0.19224145818E+01 -0.11008111394E+02  0.14764497113E+02  0.51100000000E-03 0. -1.
        -11    1    3    3    0    0 -0.12894485118E+02 -0.14549200377E+02 -0.40172981245E+01  0.19851590933E+02  0.51100000000E-03 0.  1.
         12    1    3    3    0    0 -0.20130645373E+02  0.12640279783E+02 -0.66611960657E+01  0.24685847953E+02  0.00000000000E+00 0. -1.
</event>
<event>
 7    1  0.5761011E-013  0.5930190E+02  0.7816164E-02  0.1266605E+00
        -11   -1    0    0    0    0  0.00000000000E+00  0.00000000000E+00  0.45593999997E+02  0.45594000000E+02  0.51100000000E-03 0. -1.
         11   -1    0    0    0    0 -0.00000000000E+00 -0.00000000000E+00 -0.45593999997E+02  0.45594000000E+02  0.51100000000E-03 0.  1.
    9900012    2    1    2    0    0  0.29555155795E+02  0.23896193322E+00 -0.11964913335E+02  0.59301898200E+02  0.49999916421E+02 0.  0.
        -12    1    1    2    0    0 -0.29555155795E+02 -0.23896193322E+00  0.11964913335E+02  0.31886101800E+02  0.00000000000E+00 0.  1.
         11    1    3    3    0    0  0.49319930425E+01 -0.15157471205E+02 -0.10344411266E+02  0.19002113920E+02  0.51100000000E-03 0. -1.
        -11    1    3    3    0    0  0.14744947062E+02  0.23159352273E+02 -0.31860283374E+01  0.27639099811E+02  0.51100000000E-03 0.  1.
        -12    1    3    3    0    0  0.98782156912E+01 -0.77629191341E+01  0.15655262683E+01  0.12660684469E+02  0.00000000000E+00 0.  1.
</event>
<event>
 7    1  0.5761011E-013  0.5930194E+02  0.7816164E-02  0.1266605E+00
        -11   -1    0    0    0    0  0.00000000000E+00  0.00000000000E+00  0.45593999997E+02  0.45594000000E+02  0.51100000000E-03 0. -1.
         11   -1    0    0    0    0 -0.00000000000E+00 -0.00000000000E+00 -0.45593999997E+02  0.45594000000E+02  0.51100000000E-03 0.  1.
    9900012    2    1    2    0    0 -0.14736194796E+02 -0.27128470713E+02 -0.79756794388E+01  0.59301939992E+02  0.49999992640E+02 0.  0.
        -12    1    1    2    0    0  0.14736194796E+02  0.27128470713E+02  0.79756794388E+01  0.31886060008E+02  0.00000000000E+00 0.  1.
         11    1    3    3    0    0 -0.11761022372E+02 -0.25683664912E+02 -0.32847217811E+01  0.28438735696E+02  0.51100000000E-03 0. -1.
        -11    1    3    3    0    0  0.11129649905E+02  0.69521115189E+01 -0.59325517926E+01  0.14401254550E+02  0.51100000000E-03 0.  1.
        -12    1    3    3    0    0 -0.14104822330E+02 -0.83969173201E+01  0.12415941349E+01  0.16461949746E+02  0.00000000000E+00 0.  1.
</event>
<event>
 7    1  0.5761011E-013  0.5930190E+02  0.7816164E-02  0.1266605E+00
        -11   -1    0    0    0    0  0.00000000000E+00  0.00000000000E+00  0.45593999997E+02  0.45594000000E+02  0.51100000000E-03 0. -1.
         11   -1    0    0    0    0 -0.00000000000E+00 -0.00000000000E+00 -0.45593999997E+02  0.45594000000E+02  0.51100000000E-03 0.  1.
    9900012    2    1    2    0    0 -0.17313025838E+02  0.56975796059E+01  0.26163336525E+02  0.59301898716E+02  0.49999917361E+02 0.  0.
        -12    1    1    2    0    0  0.17313025838E+02 -0.56975796059E+01 -0.26163336525E+02  0.31886101284E+02  0.00000000000E+00 0.  1.
         11    1    3    3    0    0  0.10279679174E+02 -0.80985916558E+01  0.24439224550E+02  0.27722458181E+02  0.51100000000E-03 0. -1.
        -11    1    3    3    0    0 -0.13498086290E+02  0.75437009378E+01 -0.23264727004E+01  0.15637078782E+02  0.51100000000E-03 0.  1.
         12    1    3    3    0    0 -0.14094618721E+02  0.62524703239E+01  0.40505846748E+01  0.15942361753E+02  0.00000000000E+00 0. -1.
</event>
<event>
 7    1  0.5761011E-013  0.5930195E+02  0.7816164E-02  0.1266605E+00
        -11   -1    0    0    0    0  0.00000000000E+00  0.00000000000E+00  0.45593999997E+02  0.45594000000E+02  0.51100000000E-03 0.  1.
         11   -1    0    0    0    0 -0.00000000000E+00 -0.00000000000E+00 -0.45593999997E+02  0.45594000000E+02  0.51100000000E-03 0. -1.
    9900012    2    1    2    0    0 -0.98402089352E+01  0.26024772298E+02 -0.15575679976E+02  0.59301948319E+02  0.50000007827E+02 0.  0.
        -12    1    1    2    0    0  0.98402089352E+01 -0.26024772298E+02  0.15575679976E+02  0.31886051681E+02  0.00000000000E+00 0.  1.
         11    1    3    3    0    0 -0.36161720445E+01  0.26873793326E+02 -0.21461352941E+02  0.34581311981E+02  0.51100000000E-03 0. -1.
        -11    1    3    3    0    0 -0.14360488611E+02 -0.41016874303E+01  0.56103606807E+01  0.15953796418E+02  0.51100000000E-03 0.  1.
        -12    1    3    3    0    0  0.81364517205E+01  0.32526664022E+01  0.27531228449E+00  0.87668399197E+01  0.00000000000E+00 0.  1.
</event>
<event>
 7    1  0.5761011E-013  0.5930196E+02  0.7816164E-02  0.1266605E+00
        -11   -1    0    0    0    0  0.00000000000E+00  0.00000000000E+00  0.45593999997E+02  0.45594000000E+02  0.51100000000E-03 0.  1.
         11   -1    0    0    0    0 -0.00000000000E+00 -0.00000000000E+00 -0.45593999997E+02  0.45594000000E+02  0.51100000000E-03 0. -1.
    9900012    2    1    2    0    0  0.28933983078E+02 -0.11308760439E+02 -0.71872302871E+01  0.59301957307E+02  0.50000024218E+02 0.  0.
        -12    1    1    2    0    0 -0.28933983078E+02  0.11308760439E+02  0.71872302871E+01  0.31886042693E+02  0.00000000000E+00 0.  1.
         11    1    3    3    0    0  0.28887692161E+02 -0.18873042481E+02 -0.13641638537E+02  0.37105050776E+02  0.51100000000E-03 0.  1.
        -11    1    3    3    0    0 -0.95789601854E+01  0.58983868388E+01  0.18601077865E+01  0.11402080809E+02  0.51100000000E-03 0. -1.
         12    1    3    3    0    0  0.96252511027E+01  0.16658952036E+01  0.45943004635E+01  0.10794825722E+02  0.00000000000E+00 0. -1.
</event>
<event>
 7    1  0.5761011E-013  0.5930193E+02  0.7816164E-02  0.1266605E+00
        -11   -1    0    0    0    0  0.00000000000E+00  0.00000000000E+00  0.45593999997E+02  0.45594000000E+02  0.51100000000E-03 0. -1.
         11   -1    0    0    0    0 -0.00000000000E+00 -0.00000000000E+00 -0.45593999997E+02  0.45594000000E+02  0.51100000000E-03 0.  1.
    9900012    2    1    2    0    0 -0.10285865784E+01 -0.20485439822E+02  0.24413315700E+02  0.59301933787E+02  0.49999981324E+02 0.  0.
        -12    1    1    2    0    0  0.10285865784E+01  0.20485439822E+02 -0.24413315700E+02  0.31886066213E+02  0.00000000000E+00 0.  1.
         11    1    3    3    0    0  0.87633602631E+01  0.27268170177E+01  0.31692574817E+02  0.32994716440E+02  0.51100000000E-03 0. -1.
        -11    1    3    3    0    0 -0.65454516839E+01 -0.17765183073E+02 -0.51978843506E+01  0.19633203237E+02  0.51100000000E-03 0.  1.
         12    1    3    3    0    0 -0.32464951575E+01 -0.54470737668E+01 -0.20813747665E+01  0.66740141105E+01  0.00000000000E+00 0. -1.
</event>
<event>
 7    1  0.5761011E-013  0.5930195E+02  0.7816164E-02  0.1266605E+00
        -11   -1    0    0    0    0  0.00000000000E+00  0.00000000000E+00  0.45593999997E+02  0.45594000000E+02  0.51100000000E-03 0. -1.
         11   -1    0    0    0    0 -0.00000000000E+00 -0.00000000000E+00 -0.45593999997E+02  0.45594000000E+02  0.51100000000E-03 0.  1.
    9900012    2    1    2    0    0 -0.28932593502E+02  0.11738666277E+02  0.64675429104E+01  0.59301947186E+02  0.50000005761E+02 0.  0.
        -12    1    1    2    0    0  0.28932593502E+02 -0.11738666277E+02 -0.64675429104E+01  0.31886052814E+02  0.00000000000E+00 0.  1.
         11    1    3    3    0    0 -0.30896636573E+02  0.17414942950E+02  0.52256737803E+01  0.35849547504E+02  0.51100000000E-03 0. -1.
        -11    1    3    3    0    0  0.10260777965E+02  0.39876822809E+00 -0.50020915048E+01  0.11422061996E+02  0.51100000000E-03 0.  1.
         12    1    3    3    0    0 -0.82967348941E+01 -0.60750449006E+01  0.62439606349E+01  0.12030337687E+02  0.00000000000E+00 0. -1.
</event>
<event>
 7    1  0.5761011E-013  0.5930195E+02  0.7816164E-02  0.1266605E+00
        -11   -1    0    0    0    0  0.00000000000E+00  0.00000000000E+00  0.45593999997E+02  0.45594000000E+02  0.51100000000E-03 0. -1.
         11   -1    0    0    0    0 -0.00000000000E+00 -0.00000000000E+00 -0.45593999997E+02  0.45594000000E+02  0.51100000000E-03 0.  1.
    9900012    2    1    2    0    0 -0.17987289256E+02 -0.20173131720E+02 -0.16918104418E+02  0.59301951714E+02  0.50000014018E+02 0.  0.
        -12    1    1    2    0    0  0.17987289256E+02  0.20173131720E+02  0.16918104418E+02  0.31886048286E+02  0.00000000000E+00 0.  1.
         11    1    3    3    0    0 -0.40365561118E+01 -0.20802569900E+02 -0.10805849807E+02  0.23786699855E+02  0.51100000000E-03 0. -1.
        -11    1    3    3    0    0 -0.20767330201E+02 -0.34405467251E+01  0.52112353270E+01  0.21685855743E+02  0.51100000000E-03 0.  1.
        -12    1    3    3    0    0  0.68165970563E+01  0.40699849043E+01 -0.11323489938E+02  0.13829396116E+02  0.00000000000E+00 0.  1.
</event>
<event>
 7    1  0.5761011E-013  0.5930193E+02  0.7816164E-02  0.1266605E+00
        -11   -1    0    0    0    0  0.00000000000E+00  0.00000000000E+00  0.45593999997E+02  0.45594000000E+02  0.51100000000E-03 0.  1.
         11   -1    0    0    0    0 -0.00000000000E+00 -0.00000000000E+00 -0.45593999997E+02  0.45594000000E+02  0.51100000000E-03 0. -1.
    9900012    2    1    2    0    0 -0.12474230313E+02  0.80730899636E+01 -0.28212411359E+02  0.59301931598E+02  0.49999977331E+02 0.  0.
        -12    1    1    2    0    0  0.12474230313E+02 -0.80730899636E+01  0.28212411359E+02  0.31886068402E+02  0.00000000000E+00 0.  1.
         11    1    3    3    0    0 -0.22390970348E+02  0.92807154663E+01 -0.88379414268E+01  0.25799155832E+02  0.51100000000E-03 0. -1.
        -11    1    3    3    0    0  0.49722546635E+01  0.12105980420E+02 -0.83535325153E+01  0.15526093653E+02  0.51100000000E-03 0.  1.
         12    1    3    3    0    0  0.49444853722E+01 -0.13313605923E+02 -0.11020937417E+02  0.17976682113E+02  0.00000000000E+00 0. -1.
</event>
<event>
 7    1  0.5761011E-013  0.5930200E+02  0.7816164E-02  0.1266605E+00
        -11   -1    0    0    0    0  0.00000000000E+00  0.00000000000E+00  0.45593999997E+02  0.45594000000E+02  0.51100000000E-03 0.  1.
         11   -1    0    0    0    0 -0.00000000000E+00 -0.00000000000E+00 -0.45593999997E+02  0.45594000000E+02  0.51100000000E-03 0. -1.
    9900012    2    1    2    0    0  0.31069388814E+02  0.50885411517E+01 -0.50514163048E+01  0.59302000266E+02  0.50000102566E+02 0.  0.
        -12    1    1    2    0    0 -0.31069388814E+02 -0.50885411517E+01  0.50514163048E+01  0.31885999734E+02  0.00000000000E+00 0.  1.
         11    1    3    3    0    0  0.27456808022E+02 -0.58936232990E+01 -0.78695755742E+01  0.29164041598E+02  0.51100000000E-03 0. -1.
        -11    1    3    3    0    0  0.26469158284E+01  0.19630376220E+02 -0.24602913801E+01  0.19960232160E+02  0.51100000000E-03 0.  1.
         12    1    3    3    0    0  0.96566496357E+00 -0.86482117692E+01  0.52784506495E+01  0.10177726509E+02  0.00000000000E+00 0. -1.
</event>
<event>
 7    1  0.5761011E-013  0.5930192E+02  0.7816164E-02  0.1266605E+00
        -11   -1    0    0    0    0  0.00000000000E+00  0.00000000000E+00  0.45593999997E+02  0.45594000000E+02  0.51100000000E-03 0.  1.
         11   -1    0    0    0    0 -0.00000000000E+00 -0.00000000000E+00 -0.45593999997E+02  0.45594000000E+02  0.51100000000E-03 0. -1.
    9900012    2    1    2    0    0  0.72109446835E+01  0.15612838422E+01 -0.31020747409E+02  0.59301919961E+02  0.49999956108E+02 0.  0.
        -12    1    1    2    0    0 -0.72109446835E+01 -0.15612838422E+01  0.31020747409E+02  0.31886080039E+02  0.00000000000E+00 0.  1.
         11    1    3    3    0    0 -0.48244622482E+01 -0.13033603400E+02 -0.25761444002E+02  0.29271184652E+02  0.51100000000E-03 0. -1.
        -11    1    3    3    0    0  0.13598344027E+02  0.11528000564E+01 -0.85493554017E+01  0.16103893514E+02  0.51100000000E-03 0.  1.
         12    1    3    3    0    0 -0.15629370958E+01  0.13442087185E+02  0.32900519954E+01  0.13926841795E+02  0.00000000000E+00 0. -1.
</event>
<event>
 7    1  0.5761011E-013  0.5930195E+02  0.7816164E-02  0.1266605E+00
        -11   -1    0    0    0    0  0.00000000000E+00  0.00000000000E+00  0.45593999997E+02  0.45594000000E+02  0.51100000000E-03 0. -1.
         11   -1    0    0    0    0 -0.00000000000E+00 -0.00000000000E+00 -0.45593999997E+02  0.45594000000E+02  0.51100000000E-03 0.  1.
    9900012    2    1    2    0    0  0.68880409317E+01 -0.25544658293E+02  0.17797338647E+02  0.59301953865E+02  0.50000017941E+02 0.  0.
        -12    1    1    2    0    0 -0.68880409317E+01  0.25544658293E+02 -0.17797338647E+02  0.31886046135E+02  0.00000000000E+00 0.  1.
         11    1    3    3    0    0  0.72328707249E+01  0.10832516870E+02  0.84650393532E+01  0.15534308230E+02  0.51100000000E-03 0. -1.
        -11    1    3    3    0    0  0.45822042780E+01 -0.33692910681E+02  0.13697998374E+02  0.36658477681E+02  0.51100000000E-03 0.  1.
         12    1    3    3    0    0 -0.49270340711E+01 -0.26842644825E+01 -0.43656990800E+01  0.71091679546E+01  0.00000000000E+00 0. -1.
</event>
<event>
 7    1  0.5761011E-013  0.5930193E+02  0.7816164E-02  0.1266605E+00
        -11   -1    0    0    0    0  0.00000000000E+00  0.00000000000E+00  0.45593999997E+02  0.45594000000E+02  0.51100000000E-03 0. -1.
         11   -1    0    0    0    0 -0.00000000000E+00 -0.00000000000E+00 -0.45593999997E+02  0.45594000000E+02  0.51100000000E-03 0.  1.
    9900012    2    1    2    0    0  0.16078868980E+02  0.25675492320E+02  0.99478791275E+01  0.59301933565E+02  0.49999980919E+02 0.  0.
        -12    1    1    2    0    0 -0.16078868980E+02 -0.25675492320E+02 -0.99478791275E+01  0.31886066435E+02  0.00000000000E+00 0.  1.
         11    1    3    3    0    0 -0.72821898564E+01 -0.10669465195E+02  0.55487852803E+01  0.14059046732E+02  0.51100000000E-03 0. -1.
        -11    1    3    3    0    0  0.49131495374E+01  0.14463064620E+02  0.63801964484E+01  0.16553736242E+02  0.51100000000E-03 0.  1.
         12    1    3    3    0    0  0.18447909299E+02  0.21881892894E+02 -0.19811026012E+01  0.28689150592E+02  0.00000000000E+00 0. -1.
</event>
<event>
 7    1  0.5761011E-013  0.5930197E+02  0.7816164E-02  0.1266605E+00
        -11   -1    0    0    0    0  0.00000000000E+00  0.00000000000E+00  0.45593999997E+02  0.45594000000E+02  0.51100000000E-03 0.  1.
         11   -1    0    0    0    0 -0.00000000000E+00 -0.00000000000E+00 -0.45593999997E+02  0.45594000000E+02  0.51100000000E-03 0. -1.
    9900012    2    1    2    0    0 -0.28492925564E+02  0.10010760166E+02  0.10230186316E+02  0.59301971111E+02  0.50000049392E+02 0.  0.
        -12    1    1    2    0    0  0.28492925564E+02 -0.10010760166E+02 -0.10230186316E+02  0.31886028889E+02  0.00000000000E+00 0.  1.
         11    1    3    3    0    0 -0.10030949287E+02 -0.25343685469E+01 -0.12477494663E+02  0.16208974084E+02  0.51100000000E-03 0. -1.
        -11    1    3    3    0    0 -0.17321772897E+02  0.39717950227E+01  0.27845524312E+02  0.33033198399E+02  0.51100000000E-03 0.  1.
        -12    1    3    3    0    0 -0.11402033802E+01  0.85733336901E+01 -0.51378433332E+01  0.10059798628E+02  0.00000000000E+00 0.  1.
</event>
<event>
 7    1  0.5761011E-013  0.5930196E+02  0.7816164E-02  0.1266605E+00
        -11   -1    0    0    0    0  0.00000000000E+00  0.00000000000E+00  0.45593999997E+02  0.45594000000E+02  0.51100000000E-03 0.  1.
         11   -1    0    0    0    0 -0.00000000000E+00 -0.00000000000E+00 -0.45593999997E+02  0.45594000000E+02  0.51100000000E-03 0. -1.
    9900012    2    1    2    0    0 -0.14711165348E+02  0.25579037400E+02  0.12083633169E+02  0.59301957117E+02  0.50000023871E+02 0.  0.
        -12    1    1    2    0    0  0.14711165348E+02 -0.25579037400E+02 -0.12083633169E+02  0.31886042883E+02  0.00000000000E+00 0.  1.
         11    1    3    3    0    0  0.99390745662E+01  0.13581193213E+02  0.48721052337E+01  0.17520599932E+02  0.51100000000E-03 0. -1.
        -11    1    3    3    0    0 -0.28583713811E+02  0.16533195342E+02  0.84636453230E+00  0.33031675353E+02  0.51100000000E-03 0.  1.
         12    1    3    3    0    0  0.39334738972E+01 -0.45353511549E+01  0.63651634026E+01  0.87496818308E+01  0.00000000000E+00 0. -1.
</event>
<event>
 7    1  0.5761011E-013  0.5930175E+02  0.7816164E-02  0.1266605E+00
        -11   -1    0    0    0    0  0.00000000000E+00  0.00000000000E+00  0.45593999997E+02  0.45594000000E+02  0.51100000000E-03 0. -1.
         11   -1    0    0    0    0 -0.00000000000E+00 -0.00000000000E+00 -0.45593999997E+02  0.45594000000E+02  0.51100000000E-03 0.  1.
    9900012    2    1    2    0    0  0.13447658506E+02 -0.24974250475E+02  0.14566406575E+02  0.59301750509E+02  0.49999647066E+02 0.  0.
        -12    1    1    2    0    0 -0.13447658506E+02  0.24974250475E+02 -0.14566406575E+02  0.31886249491E+02  0.00000000000E+00 0.  1.
         11    1    3    3    0    0 -0.12257850635E+02  0.84912405060E+01  0.52023434848E+01  0.15793050545E+02  0.51100000000E-03 0. -1.
        -11    1    3    3    0    0  0.93044592545E+01 -0.10055683434E+02  0.10476591464E+01  0.13739989857E+02  0.51100000000E-03 0.  1.
         12    1    3    3    0    0  0.16401049887E+02 -0.23409807548E+02  0.83164039441E+01  0.29768710106E+02  0.00000000000E+00 0. -1.
</event>
<event>
 7    1  0.5761011E-013  0.5930196E+02  0.7816164E-02  0.1266605E+00
        -11   -1    0    0    0    0  0.00000000000E+00  0.00000000000E+00  0.45593999997E+02  0.45594000000E+02  0.51100000000E-03 0.  1.
         11   -1    0    0    0    0 -0.00000000000E+00 -0.00000000000E+00 -0.45593999997E+02  0.45594000000E+02  0.51100000000E-03 0. -1.
    9900012    2    1    2    0    0 -0.27418621341E+02 -0.11205354120E+02 -0.11805875604E+02  0.59301961426E+02  0.50000031730E+02 0.  0.
        -12    1    1    2    0    0  0.27418621341E+02  0.11205354120E+02  0.11805875604E+02  0.31886038574E+02  0.00000000000E+00 0.  1.
         11    1    3    3    0    0 -0.58865402909E+01 -0.17624087753E+02 -0.18896804294E+02  0.26501868585E+02  0.51100000000E-03 0. -1.
        -11    1    3    3    0    0 -0.16187313435E+02  0.96600676760E+01 -0.47239866608E+01  0.19433529632E+02  0.51100000000E-03 0.  1.
         12    1    3    3    0    0 -0.53447676154E+01 -0.32413340424E+01  0.11814915351E+02  0.13366563208E+02  0.00000000000E+00 0. -1.
</event>
<event>
 7    1  0.5761011E-013  0.5930156E+02  0.7816164E-02  0.1266606E+00
        -11   -1    0    0    0    0  0.00000000000E+00  0.00000000000E+00  0.45593999997E+02  0.45594000000E+02  0.51100000000E-03 0.  1.
         11   -1    0    0    0    0 -0.00000000000E+00 -0.00000000000E+00 -0.45593999997E+02  0.45594000000E+02  0.51100000000E-03 0. -1.
    9900012    2    1    2    0    0 -0.19824679667E+01  0.69028916375E+01 -0.31067107754E+02  0.59301556542E+02  0.49999293315E+02 0.  0.
        -12    1    1    2    0    0  0.19824679667E+01 -0.69028916375E+01  0.31067107754E+02  0.31886443458E+02  0.00000000000E+00 0.  1.
         11    1    3    3    0    0 -0.66141282634E+01 -0.16885282711E+02 -0.32293897737E+01  0.18419783481E+02  0.51100000000E-03 0. -1.
        -11    1    3    3    0    0  0.51532925475E+01  0.16975400952E+02 -0.28955788794E+02  0.33958185560E+02  0.51100000000E-03 0.  1.
         12    1    3    3    0    0 -0.52163225072E+00  0.68127733961E+01  0.11180708137E+01  0.69235875019E+01  0.00000000000E+00 0. -1.
</event>
<event>
 7    1  0.5761011E-013  0.5930199E+02  0.7816164E-02  0.1266605E+00
        -11   -1    0    0    0    0  0.00000000000E+00  0.00000000000E+00  0.45593999997E+02  0.45594000000E+02  0.51100000000E-03 0.  1.
         11   -1    0    0    0    0 -0.00000000000E+00 -0.00000000000E+00 -0.45593999997E+02  0.45594000000E+02  0.51100000000E-03 0. -1.
    9900012    2    1    2    0    0  0.17742155716E+02  0.55134898937E+01 -0.25913996434E+02  0.59301986272E+02  0.50000077043E+02 0.  0.
        -12    1    1    2    0    0 -0.17742155716E+02 -0.55134898937E+01  0.25913996434E+02  0.31886013728E+02  0.00000000000E+00 0.  1.
         11    1    3    3    0    0  0.13842127300E+02  0.20087420127E+01 -0.15076024048E+02  0.20565165548E+02  0.51100000000E-03 0. -1.
        -11    1    3    3    0    0 -0.13395534211E+02 -0.81969078496E+01 -0.12364848904E+01  0.15753048284E+02  0.51100000000E-03 0.  1.
        -12    1    3    3    0    0  0.17295562627E+02  0.11701655731E+02 -0.96014874964E+01  0.22983772440E+02  0.00000000000E+00 0.  1.
</event>
<event>
 7    1  0.5761011E-013  0.5930195E+02  0.7816164E-02  0.1266605E+00
        -11   -1    0    0    0    0  0.00000000000E+00  0.00000000000E+00  0.45593999997E+02  0.45594000000E+02  0.51100000000E-03 0.  1.
         11   -1    0    0    0    0 -0.00000000000E+00 -0.00000000000E+00 -0.45593999997E+02  0.45594000000E+02  0.51100000000E-03 0. -1.
    9900012    2    1    2    0    0  0.15231412144E+01 -0.25406692348E+02 -0.19206777959E+02  0.59301948272E+02  0.50000007741E+02 0.  0.
        -12    1    1    2    0    0 -0.15231412144E+01  0.25406692348E+02  0.19206777959E+02  0.31886051728E+02  0.00000000000E+00 0.  1.
         11    1    3    3    0    0  0.20357994638E+02 -0.71952514887E+01 -0.67579782681E+01  0.22624983098E+02  0.51100000000E-03 0. -1.
        -11    1    3    3    0    0 -0.79705888803E+01 -0.17444551469E+02  0.11982955062E+01  0.19216622374E+02  0.51100000000E-03 0.  1.
         12    1    3    3    0    0 -0.10864264543E+02 -0.76688938947E+00 -0.13647095197E+02  0.17460342801E+02  0.00000000000E+00 0. -1.
</event>
<event>
 7    1  0.5761011E-013  0.5930195E+02  0.7816164E-02  0.1266605E+00
        -11   -1    0    0    0    0  0.00000000000E+00  0.00000000000E+00  0.45593999997E+02  0.45594000000E+02  0.51100000000E-03 0. -1.
         11   -1    0    0    0    0 -0.00000000000E+00 -0.00000000000E+00 -0.45593999997E+02  0.45594000000E+02  0.51100000000E-03 0.  1.
    9900012    2    1    2    0    0  0.31768745732E+02 -0.44511727237E+00  0.26961342164E+01  0.59301945455E+02  0.50000002603E+02 0.  0.
        -12    1    1    2    0    0 -0.31768745732E+02  0.44511727237E+00 -0.26961342164E+01  0.31886054545E+02  0.00000000000E+00 0.  1.
         11    1    3    3    0    0  0.26016173715E+01 -0.25465751987E+01  0.12610740872E+02  0.13125709268E+02  0.51100000000E-03 0. -1.
        -11    1    3    3    0    0  0.35176459781E+02  0.47915697739E+01 -0.15551993695E+01  0.35535350131E+02  0.51100000000E-03 0.  1.
        -12    1    3    3    0    0 -0.60093314206E+01 -0.26901118476E+01 -0.83594072861E+01  0.10640886056E+02  0.00000000000E+00 0.  1.
</event>
<event>
 7    1  0.5761011E-013  0.5930179E+02  0.7816164E-02  0.1266605E+00
        -11   -1    0    0    0    0  0.00000000000E+00  0.00000000000E+00  0.45593999997E+02  0.45594000000E+02  0.51100000000E-03 0.  1.
         11   -1    0    0    0    0 -0.00000000000E+00 -0.00000000000E+00 -0.45593999997E+02  0.45594000000E+02  0.51100000000E-03 0. -1.
    9900012    2    1    2    0    0  0.67758610472E+01 -0.26506974301E+02 -0.16376758397E+02  0.59301793027E+02  0.49999724611E+02 0.  0.
        -12    1    1    2    0    0 -0.67758610472E+01  0.26506974301E+02  0.16376758397E+02  0.31886206973E+02  0.00000000000E+00 0.  1.
         11    1    3    3    0    0 -0.68395263869E+01  0.63086365674E+01 -0.20180458330E+01  0.95210569677E+01  0.51100000000E-03 0. -1.
        -11    1    3    3    0    0  0.11520253825E+02 -0.38850537456E+02 -0.91613314307E+01  0.41545282556E+02  0.51100000000E-03 0.  1.
        -12    1    3    3    0    0  0.20951336089E+01  0.60349265883E+01 -0.51973811333E+01  0.82354535036E+01  0.00000000000E+00 0.  1.
</event>
<event>
 7    1  0.5761011E-013  0.5930196E+02  0.7816164E-02  0.1266605E+00
        -11   -1    0    0    0    0  0.00000000000E+00  0.00000000000E+00  0.45593999997E+02  0.45594000000E+02  0.51100000000E-03 0.  1.
         11   -1    0    0    0    0 -0.00000000000E+00 -0.00000000000E+00 -0.45593999997E+02  0.45594000000E+02  0.51100000000E-03 0. -1.
    9900012    2    1    2    0    0  0.11600787612E+02  0.26563856875E+02  0.13285433670E+02  0.59301960530E+02  0.50000030097E+02 0.  0.
        -12    1    1    2    0    0 -0.11600787612E+02 -0.26563856875E+02 -0.13285433670E+02  0.31886039470E+02  0.00000000000E+00 0.  1.
         11    1    3    3    0    0  0.10200272608E+01 -0.90398689501E+01 -0.73426355449E+01  0.11690764870E+02  0.51100000000E-03 0. -1.
        -11    1    3    3    0    0 -0.40393493677E+01  0.40355091679E+01  0.95028075617E+01  0.11086254073E+02  0.51100000000E-03 0.  1.
         12    1    3    3    0    0  0.14620109719E+02  0.31568216657E+02  0.11125261653E+02  0.36524941587E+02  0.00000000000E+00 0. -1.
</event>
<event>
 7    1  0.5761011E-013  0.5930198E+02  0.7816164E-02  0.1266605E+00
        -11   -1    0    0    0    0  0.00000000000E+00  0.00000000000E+00  0.45593999997E+02  0.45594000000E+02  0.51100000000E-03 0. -1.
         11   -1    0    0    0    0 -0.00000000000E+00 -0.00000000000E+00 -0.45593999997E+02  0.45594000000E+02  0.51100000000E-03 0.  1.
    9900012    2    1    2    0    0 -0.92095248864E+01  0.14176970434E+02  0.27035468125E+02  0.59301978360E+02  0.50000062613E+02 0.  0.
        -12    1    1    2    0    0  0.92095248864E+01 -0.14176970434E+02 -0.27035468125E+02  0.31886021640E+02  0.00000000000E+00 0.  1.
         11    1    3    3    0    0 -0.85162642440E+01  0.15267483888E+02  0.26064617929E+02  0.31384504600E+02  0.51100000000E-03 0. -1.
        -11    1    3    3    0    0  0.53129268391E+01 -0.12489019162E+02 -0.39348548801E+01  0.14131025242E+02  0.51100000000E-03 0.  1.
        -12    1    3    3    0    0 -0.60061874815E+01  0.11398505707E+02  0.49057050756E+01  0.13786448517E+02  0.00000000000E+00 0.  1.
</event>
<event>
 7    1  0.5761011E-013  0.5930195E+02  0.7816164E-02  0.1266605E+00
        -11   -1    0    0    0    0  0.00000000000E+00  0.00000000000E+00  0.45593999997E+02  0.45594000000E+02  0.51100000000E-03 0.  1.
         11   -1    0    0    0    0 -0.00000000000E+00 -0.00000000000E+00 -0.45593999997E+02  0.45594000000E+02  0.51100000000E-03 0. -1.
    9900012    2    1    2    0    0  0.92268991424E+01  0.30121552624E+02 -0.49271490970E+01  0.59301946646E+02  0.50000004775E+02 0.  0.
        -12    1    1    2    0    0 -0.92268991424E+01 -0.30121552624E+02  0.49271490970E+01  0.31886053354E+02  0.00000000000E+00 0.  1.
         11    1    3    3    0    0 -0.43403616838E+01  0.23562796607E+02 -0.20393711473E+02  0.31463432607E+02  0.51100000000E-03 0. -1.
        -11    1    3    3    0    0  0.11862113976E+02  0.62369541018E+01  0.19377159791E+02  0.23560213630E+02  0.51100000000E-03 0.  1.
         12    1    3    3    0    0  0.17051468499E+01  0.32180191521E+00 -0.39105974150E+01  0.42783004095E+01  0.00000000000E+00 0. -1.
</event>
<event>
 7    1  0.5761011E-013  0.5930193E+02  0.7816164E-02  0.1266605E+00
        -11   -1    0    0    0    0  0.00000000000E+00  0.00000000000E+00  0.45593999997E+02  0.45594000000E+02  0.51100000000E-03 0.  1.
         11   -1    0    0    0    0 -0.00000000000E+00 -0.00000000000E+00 -0.45593999997E+02  0.45594000000E+02  0.51100000000E-03 0. -1.
    9900012    2    1    2    0    0  0.21501443158E+02  0.22944213560E+02  0.52889177556E+01  0.59301927103E+02  0.49999969134E+02 0.  0.
        -12    1    1    2    0    0 -0.21501443158E+02 -0.22944213560E+02 -0.52889177556E+01  0.31886072897E+02  0.00000000000E+00 0.  1.
         11    1    3    3    0    0  0.20709504360E+02  0.36886616663E+02  0.10825679844E+02  0.43665792149E+02  0.51100000000E-03 0. -1.
        -11    1    3    3    0    0  0.86264247552E+00 -0.47184900479E+01 -0.40808727137E+01  0.62977633124E+01  0.51100000000E-03 0.  1.
         12    1    3    3    0    0 -0.70703677417E-01 -0.92239130546E+01 -0.14558893749E+01  0.93383716419E+01  0.00000000000E+00 0. -1.
</event>
<event>
 7    1  0.5761011E-013  0.5930193E+02  0.7816164E-02  0.1266605E+00
        -11   -1    0    0    0    0  0.00000000000E+00  0.00000000000E+00  0.45593999997E+02  0.45594000000E+02  0.51100000000E-03 0. -1.
         11   -1    0    0    0    0 -0.00000000000E+00 -0.00000000000E+00 -0.45593999997E+02  0.45594000000E+02  0.51100000000E-03 0.  1.
    9900012    2    1    2    0    0  0.57503776338E+01 -0.24461575555E+02  0.19628695612E+02  0.59301933874E+02  0.49999981482E+02 0.  0.
        -12    1    1    2    0    0 -0.57503776338E+01  0.24461575555E+02 -0.19628695612E+02  0.31886066126E+02  0.00000000000E+00 0.  1.
         11    1    3    3    0    0  0.76618952207E+01 -0.29905401523E+02  0.94960382042E+01  0.32298799056E+02  0.51100000000E-03 0. -1.
        -11    1    3    3    0    0 -0.11274043547E+02  0.84964375354E+01  0.97335154147E+01  0.17147443870E+02  0.51100000000E-03 0.  1.
         12    1    3    3    0    0  0.93625259599E+01 -0.30526115677E+01  0.39914199268E+00  0.98556909481E+01  0.00000000000E+00 0. -1.
</event>
<event>
 7    1  0.5761011E-013  0.5930195E+02  0.7816164E-02  0.1266605E+00
        -11   -1    0    0    0    0  0.00000000000E+00  0.00000000000E+00  0.45593999997E+02  0.45594000000E+02  0.51100000000E-03 0.  1.
         11   -1    0    0    0    0 -0.00000000000E+00 -0.00000000000E+00 -0.45593999997E+02  0.45594000000E+02  0.51100000000E-03 0. -1.
    9900012    2    1    2    0    0  0.19986245476E+01 -0.28737647749E+02 -0.13670168949E+02  0.59301946351E+02  0.50000004237E+02 0.  0.
        -12    1    1    2    0    0 -0.19986245476E+01  0.28737647749E+02  0.13670168949E+02  0.31886053649E+02  0.00000000000E+00 0.  1.
         11    1    3    3    0    0  0.12743150728E+02 -0.25544450758E+01 -0.88077147163E+01  0.15699965570E+02  0.51100000000E-03 0.  1.
        -11    1    3    3    0    0 -0.12112102650E+02 -0.56135449445E+01 -0.15457002279E+02  0.20423854610E+02  0.51100000000E-03 0. -1.
        -12    1    3    3    0    0  0.13675764689E+01 -0.20569657729E+02  0.10594548046E+02  0.23178126170E+02  0.00000000000E+00 0.  1.
</event>
<event>
 7    1  0.5761011E-013  0.5930194E+02  0.7816164E-02  0.1266605E+00
        -11   -1    0    0    0    0  0.00000000000E+00  0.00000000000E+00  0.45593999997E+02  0.45594000000E+02  0.51100000000E-03 0. -1.
         11   -1    0    0    0    0 -0.00000000000E+00 -0.00000000000E+00 -0.45593999997E+02  0.45594000000E+02  0.51100000000E-03 0.  1.
    9900012    2    1    2    0    0  0.22676776788E+02  0.20875958837E+02  0.81657366652E+01  0.59301935361E+02  0.49999984194E+02 0.  0.
        -12    1    1    2    0    0 -0.22676776788E+02 -0.20875958837E+02 -0.81657366652E+01  0.31886064639E+02  0.00000000000E+00 0.  1.
         11    1    3    3    0    0  0.56638635775E+01  0.25359184876E+02 -0.85570009034E+01  0.27356715317E+02  0.51100000000E-03 0. -1.
        -11    1    3    3    0    0  0.66518497113E+00 -0.95970917692E+01  0.89336826820E+01  0.13128492983E+02  0.51100000000E-03 0.  1.
         12    1    3    3    0    0  0.16347728239E+02  0.51138657304E+01  0.77890548865E+01  0.18816727062E+02  0.00000000000E+00 0. -1.
</event>
<event>
 7    1  0.5761011E-013  0.5930199E+02  0.7816164E-02  0.1266605E+00
        -11   -1    0    0    0    0  0.00000000000E+00  0.00000000000E+00  0.45593999997E+02  0.45594000000E+02  0.51100000000E-03 0.  1.
         11   -1    0    0    0    0 -0.00000000000E+00 -0.00000000000E+00 -0.45593999997E+02  0.45594000000E+02  0.51100000000E-03 0. -1.
    9900012    2    1    2    0    0  0.23892826531E+02  0.49819870024E+01 -0.20519028539E+02  0.59301986039E+02  0.50000076618E+02 0.  0.
        -12    1    1    2    0    0 -0.23892826531E+02 -0.49819870024E+01  0.20519028539E+02  0.31886013961E+02  0.00000000000E+00 0.  1.
         11    1    3    3    0    0  0.57437397260E+01 -0.70669482702E+01 -0.17604483280E+02  0.19820447415E+02  0.51100000000E-03 0. -1.
        -11    1    3    3    0    0  0.22614315238E+02  0.12047651076E+02 -0.12794029132E+02  0.28639838195E+02  0.51100000000E-03 0.  1.
        -12    1    3    3    0    0 -0.44652284328E+01  0.12841966486E-02  0.98794838730E+01  0.10841700430E+02  0.00000000000E+00 0.  1.
</event>
<event>
 7    1  0.5761011E-013  0.5930196E+02  0.7816164E-02  0.1266605E+00
        -11   -1    0    0    0    0  0.00000000000E+00  0.00000000000E+00  0.45593999997E+02  0.45594000000E+02  0.51100000000E-03 0. -1.
         11   -1    0    0    0    0 -0.00000000000E+00 -0.00000000000E+00 -0.45593999997E+02  0.45594000000E+02  0.51100000000E-03 0.  1.
    9900012    2    1    2    0    0  0.25968854946E+02  0.13173717495E+02 -0.12991961281E+02  0.59301963592E+02  0.50000035681E+02 0.  0.
        -12    1    1    2    0    0 -0.25968854946E+02 -0.13173717495E+02  0.12991961281E+02  0.31886036408E+02  0.00000000000E+00 0.  1.
         11    1    3    3    0    0  0.23852147088E+01 -0.73571246527E+01  0.10667164343E+02  0.13175922273E+02  0.51100000000E-03 0. -1.
        -11    1    3    3    0    0  0.53657899054E+01  0.44034150224E+01 -0.20436107753E+02  0.21582777057E+02  0.51100000000E-03 0.  1.
         12    1    3    3    0    0  0.18217850332E+02  0.16127427125E+02 -0.32230178721E+01  0.24543264262E+02  0.00000000000E+00 0. -1.
</event>
<event>
 7    1  0.5761011E-013  0.5930195E+02  0.7816164E-02  0.1266605E+00
        -11   -1    0    0    0    0  0.00000000000E+00  0.00000000000E+00  0.45593999997E+02  0.45594000000E+02  0.51100000000E-03 0.  1.
         11   -1    0    0    0    0 -0.00000000000E+00 -0.00000000000E+00 -0.45593999997E+02  0.45594000000E+02  0.51100000000E-03 0. -1.
    9900012    2    1    2    0    0 -0.25383262656E+02  0.10506275775E+02 -0.16187293318E+02  0.59301947898E+02  0.50000007058E+02 0.  0.
        -12    1    1    2    0    0  0.25383262656E+02 -0.10506275775E+02  0.16187293318E+02  0.31886052102E+02  0.00000000000E+00 0.  1.
         11    1    3    3    0    0 -0.84620306413E+01 -0.28138246933E+01 -0.25821689110E+02  0.27318184433E+02  0.51100000000E-03 0. -1.
        -11    1    3    3    0    0 -0.26086370604E+01  0.15515702328E+02  0.71914815943E+01  0.17299115984E+02  0.51100000000E-03 0.  1.
         12    1    3    3    0    0 -0.14312594954E+02 -0.21956018599E+01  0.24429141982E+01  0.14684647481E+02  0.00000000000E+00 0. -1.
</event>
<event>
 7    1  0.5761011E-013  0.5930194E+02  0.7816164E-02  0.1266605E+00
        -11   -1    0    0    0    0  0.00000000000E+00  0.00000000000E+00  0.45593999997E+02  0.45594000000E+02  0.51100000000E-03 0.  1.
         11   -1    0    0    0    0 -0.00000000000E+00 -0.00000000000E+00 -0.45593999997E+02  0.45594000000E+02  0.51100000000E-03 0. -1.
    9900012    2    1    2    0    0  0.13021900963E+02 -0.14640099592E+02  0.25155884988E+02  0.59301937681E+02  0.49999988424E+02 0.  0.
        -12    1    1    2    0    0 -0.13021900963E+02  0.14640099592E+02 -0.25155884988E+02  0.31886062319E+02  0.00000000000E+00 0.  1.
         11    1    3    3    0    0 -0.51504403274E+01 -0.17608111305E+02  0.14993951841E+02  0.23693695604E+02  0.51100000000E-03 0. -1.
        -11    1    3    3    0    0  0.85552431619E+01  0.42974732713E+01  0.19759368736E+02  0.21956618938E+02  0.51100000000E-03 0.  1.
         12    1    3    3    0    0  0.96170981279E+01 -0.13294615580E+01 -0.95974355893E+01  0.13651623139E+02  0.00000000000E+00 0. -1.
</event>
<event>
 7    1  0.5761011E-013  0.5930210E+02  0.7816164E-02  0.1266604E+00
        -11   -1    0    0    0    0  0.00000000000E+00  0.00000000000E+00  0.45593999997E+02  0.45594000000E+02  0.51100000000E-03 0.  1.
         11   -1    0    0    0    0 -0.00000000000E+00 -0.00000000000E+00 -0.45593999997E+02  0.45594000000E+02  0.51100000000E-03 0. -1.
    9900012    2    1    2    0    0 -0.27071583775E+02  0.15201497125E+02 -0.72632184944E+01  0.59302101771E+02  0.50000287686E+02 0.  0.
        -12    1    1    2    0    0  0.27071583775E+02 -0.15201497125E+02  0.72632184944E+01  0.31885898229E+02  0.00000000000E+00 0.  1.
         11    1    3    3    0    0 -0.20665529053E+02  0.64303026848E+01 -0.20942769583E+02  0.30116647916E+02  0.51100000000E-03 0. -1.
        -11    1    3    3    0    0  0.70322482367E+01  0.61309597361E+01  0.12275488438E+02  0.15418456447E+02  0.51100000000E-03 0.  1.
        -12    1    3    3    0    0 -0.13438302959E+02  0.26402347042E+01  0.14040626505E+01  0.13766997409E+02  0.00000000000E+00 0.  1.
</event>
<event>
 7    1  0.5761011E-013  0.5930194E+02  0.7816164E-02  0.1266605E+00
        -11   -1    0    0    0    0  0.00000000000E+00  0.00000000000E+00  0.45593999997E+02  0.45594000000E+02  0.51100000000E-03 0.  1.
         11   -1    0    0    0    0 -0.00000000000E+00 -0.00000000000E+00 -0.45593999997E+02  0.45594000000E+02  0.51100000000E-03 0. -1.
    9900012    2    1    2    0    0  0.77431694768E+01  0.30550215945E+02 -0.48423370200E+01  0.59301943554E+02  0.49999999136E+02 0.  0.
        -12    1    1    2    0    0 -0.77431694768E+01 -0.30550215945E+02  0.48423370200E+01  0.31886056446E+02  0.00000000000E+00 0.  1.
         11    1    3    3    0    0  0.18209469065E+02 -0.47300414091E+01 -0.66099310609E+01  0.19941144507E+02  0.51100000000E-03 0. -1.
        -11    1    3    3    0    0  0.12408268090E+01  0.98472236429E+01  0.51109387031E+01  0.11163743070E+02  0.51100000000E-03 0.  1.
         12    1    3    3    0    0 -0.11707126397E+02  0.25433033712E+02 -0.33433446622E+01  0.28197055977E+02  0.00000000000E+00 0. -1.
</event>
<event>
 7    1  0.5761011E-013  0.5930194E+02  0.7816164E-02  0.1266605E+00
        -11   -1    0    0    0    0  0.00000000000E+00  0.00000000000E+00  0.45593999997E+02  0.45594000000E+02  0.51100000000E-03 0.  1.
         11   -1    0    0    0    0 -0.00000000000E+00 -0.00000000000E+00 -0.45593999997E+02  0.45594000000E+02  0.51100000000E-03 0. -1.
    9900012    2    1    2    0    0  0.19798980181E+02 -0.88987620154E+01  0.23356650210E+02  0.59301942065E+02  0.49999996420E+02 0.  0.
        -12    1    1    2    0    0 -0.19798980181E+02  0.88987620154E+01 -0.23356650210E+02  0.31886057935E+02  0.00000000000E+00 0.  1.
         11    1    3    3    0    0  0.76716850763E+01 -0.10541827273E+02 -0.13046221401E+02  0.18444206876E+02  0.51100000000E-03 0. -1.
        -11    1    3    3    0    0  0.12237112544E+01  0.25382827154E+01  0.24613360930E+02  0.24774137420E+02  0.51100000000E-03 0.  1.
         12    1    3    3    0    0  0.10903583850E+02 -0.89521745764E+00  0.11789510682E+02  0.16083597769E+02  0.00000000000E+00 0. -1.
</event>
<event>
 7    1  0.5761011E-013  0.5930193E+02  0.7816164E-02  0.1266605E+00
        -11   -1    0    0    0    0  0.00000000000E+00  0.00000000000E+00  0.45593999997E+02  0.45594000000E+02  0.51100000000E-03 0. -1.
         11   -1    0    0    0    0 -0.00000000000E+00 -0.00000000000E+00 -0.45593999997E+02  0.45594000000E+02  0.51100000000E-03 0.  1.
    9900012    2    1    2    0    0  0.24115513781E+02  0.20359859583E+02  0.45430760358E+01  0.59301930518E+02  0.49999975361E+02 0.  0.
        -12    1    1    2    0    0 -0.24115513781E+02 -0.20359859583E+02 -0.45430760358E+01  0.31886069482E+02  0.00000000000E+00 0.  1.
         11    1    3    3    0    0 -0.47949429527E+01 -0.53658978105E+01  0.96305876105E+01  0.12022169322E+02  0.51100000000E-03 0.  1.
        -11    1    3    3    0    0  0.28520514853E+02  0.12189591333E+02 -0.10428948734E+02  0.32722604975E+02  0.51100000000E-03 0. -1.
        -12    1    3    3    0    0  0.38994188038E+00  0.13536166061E+02  0.53414371598E+01  0.14557156221E+02  0.00000000000E+00 0.  1.
</event>
<event>
 7    1  0.5761011E-013  0.5930193E+02  0.7816164E-02  0.1266605E+00
        -11   -1    0    0    0    0  0.00000000000E+00  0.00000000000E+00  0.45593999997E+02  0.45594000000E+02  0.51100000000E-03 0. -1.
         11   -1    0    0    0    0 -0.00000000000E+00 -0.00000000000E+00 -0.45593999997E+02  0.45594000000E+02  0.51100000000E-03 0.  1.
    9900012    2    1    2    0    0  0.21455257841E+02 -0.20527674922E+02  0.11619280432E+02  0.59301934007E+02  0.49999981725E+02 0.  0.
        -12    1    1    2    0    0 -0.21455257841E+02  0.20527674922E+02 -0.11619280432E+02  0.31886065993E+02  0.00000000000E+00 0.  1.
         11    1    3    3    0    0  0.19095484795E+02 -0.33315791131E+02  0.71147624295E+01  0.39053800364E+02  0.51100000000E-03 0. -1.
        -11    1    3    3    0    0  0.36382856496E+01  0.95647464786E+01  0.96351705280E+01  0.14055533040E+02  0.51100000000E-03 0.  1.
         12    1    3    3    0    0 -0.12785126030E+01  0.32233697306E+01 -0.51306525252E+01  0.61926006032E+01  0.00000000000E+00 0. -1.
</event>
<event>
 7    1  0.5761011E-013  0.5930191E+02  0.7816164E-02  0.1266605E+00
        -11   -1    0    0    0    0  0.00000000000E+00  0.00000000000E+00  0.45593999997E+02  0.45594000000E+02  0.51100000000E-03 0. -1.
         11   -1    0    0    0    0 -0.00000000000E+00 -0.00000000000E+00 -0.45593999997E+02  0.45594000000E+02  0.51100000000E-03 0.  1.
    9900012    2    1    2    0    0 -0.69857933679E+01  0.20293631296E+02  0.23581553557E+02  0.59301914503E+02  0.49999946153E+02 0.  0.
        -12    1    1    2    0    0  0.69857933679E+01 -0.20293631296E+02 -0.23581553557E+02  0.31886085497E+02  0.00000000000E+00 0.  1.
         11    1    3    3    0    0  0.96122507120E+01  0.21472880167E+02  0.41725611724E+01  0.23893308968E+02  0.51100000000E-03 0. -1.
        -11    1    3    3    0    0 -0.14787271027E+02 -0.46985534701E+01 -0.85883485039E-01  0.15516029304E+02  0.51100000000E-03 0.  1.
         12    1    3    3    0    0 -0.18107730533E+01  0.35193045987E+01  0.19494875870E+02  0.19892576231E+02  0.00000000000E+00 0. -1.
</event>
<event>
 7    1  0.5761011E-013  0.5930195E+02  0.7816164E-02  0.1266605E+00
        -11   -1    0    0    0    0  0.00000000000E+00  0.00000000000E+00  0.45593999997E+02  0.45594000000E+02  0.51100000000E-03 0.  1.
         11   -1    0    0    0    0 -0.00000000000E+00 -0.00000000000E+00 -0.45593999997E+02  0.45594000000E+02  0.51100000000E-03 0. -1.
    9900012    2    1    2    0    0 -0.61994921544E+01 -0.16940279724E+02 -0.26292840207E+02  0.59301949347E+02  0.50000009700E+02 0.  0.
        -12    1    1    2    0    0  0.61994921544E+01  0.16940279724E+02  0.26292840207E+02  0.31886050653E+02  0.00000000000E+00 0.  1.
         11    1    3    3    0    0 -0.26380334346E+01  0.39250040852E+01 -0.61610319035E+01  0.77668006185E+01  0.51100000000E-03 0. -1.
        -11    1    3    3    0    0 -0.69044880663E+01 -0.12985440901E+02  0.11560885612E+02  0.18706889299E+02  0.51100000000E-03 0.  1.
        -12    1    3    3    0    0  0.33430293465E+01 -0.78798429077E+01 -0.31692693916E+02  0.32828259429E+02  0.00000000000E+00 0.  1.
</event>
<event>
 7    1  0.5761011E-013  0.5930194E+02  0.7816164E-02  0.1266605E+00
        -11   -1    0    0    0    0  0.00000000000E+00  0.00000000000E+00  0.45593999997E+02  0.45594000000E+02  0.51100000000E-03 0. -1.
         11   -1    0    0    0    0 -0.00000000000E+00 -0.00000000000E+00 -0.45593999997E+02  0.45594000000E+02  0.51100000000E-03 0.  1.
    9900012    2    1    2    0    0  0.15170310302E+02 -0.19488175250E+02  0.20169123168E+02  0.59301940059E+02  0.49999992761E+02 0.  0.
        -12    1    1    2    0    0 -0.15170310302E+02  0.19488175250E+02 -0.20169123168E+02  0.31886059941E+02  0.00000000000E+00 0.  1.
         11    1    3    3    0    0  0.12109096268E+02 -0.21317985838E+02 -0.46300921586E+01  0.24950440603E+02  0.51100000000E-03 0. -1.
        -11    1    3    3    0    0 -0.71550809246E+01  0.26315420087E+01  0.22626062702E+02  0.23875906476E+02  0.51100000000E-03 0.  1.
        -12    1    3    3    0    0  0.10216294958E+02 -0.80173142084E+00  0.21731526240E+01  0.10475592980E+02  0.00000000000E+00 0.  1.
</event>
<event>
 7    1  0.5761011E-013  0.5930168E+02  0.7816164E-02  0.1266606E+00
        -11   -1    0    0    0    0  0.00000000000E+00  0.00000000000E+00  0.45593999997E+02  0.45594000000E+02  0.51100000000E-03 0. -1.
         11   -1    0    0    0    0 -0.00000000000E+00 -0.00000000000E+00 -0.45593999997E+02  0.45594000000E+02  0.51100000000E-03 0.  1.
    9900012    2    1    2    0    0  0.23517832116E+02  0.65870252277E+01  0.20500249387E+02  0.59301677639E+02  0.49999514169E+02 0.  0.
        -12    1    1    2    0    0 -0.23517832116E+02 -0.65870252277E+01 -0.20500249387E+02  0.31886322361E+02  0.00000000000E+00 0.  1.
         11    1    3    3    0    0  0.19944880134E+02  0.61711944452E+01  0.13385296445E+02  0.24800162210E+02  0.51100000000E-03 0. -1.
        -11    1    3    3    0    0 -0.14543466478E+02  0.43151401196E+01  0.42138205934E+01  0.15744495410E+02  0.51100000000E-03 0.  1.
        -12    1    3    3    0    0  0.18116418460E+02 -0.38993093371E+01  0.29011323478E+01  0.18757020020E+02  0.00000000000E+00 0.  1.
</event>
<event>
 7    1  0.5761011E-013  0.5930198E+02  0.7816164E-02  0.1266605E+00
        -11   -1    0    0    0    0  0.00000000000E+00  0.00000000000E+00  0.45593999997E+02  0.45594000000E+02  0.51100000000E-03 0.  1.
         11   -1    0    0    0    0 -0.00000000000E+00 -0.00000000000E+00 -0.45593999997E+02  0.45594000000E+02  0.51100000000E-03 0. -1.
    9900012    2    1    2    0    0 -0.37767930724E+01 -0.31454589769E+02  0.36142507914E+01  0.59301981242E+02  0.50000067870E+02 0.  0.
        -12    1    1    2    0    0  0.37767930724E+01  0.31454589769E+02 -0.36142507914E+01  0.31886018758E+02  0.00000000000E+00 0.  1.
         11    1    3    3    0    0 -0.12970146949E+02 -0.57855301958E+01  0.31564229084E+01  0.14548542105E+02  0.51100000000E-03 0. -1.
        -11    1    3    3    0    0  0.21444149637E+02 -0.73197431339E+01  0.10376326815E+01  0.22682743993E+02  0.51100000000E-03 0.  1.
        -12    1    3    3    0    0 -0.12250795761E+02 -0.18349316439E+02 -0.57980479849E+00  0.22070695144E+02  0.00000000000E+00 0.  1.
</event>
<event>
 7    1  0.5761011E-013  0.5930194E+02  0.7816164E-02  0.1266605E+00
        -11   -1    0    0    0    0  0.00000000000E+00  0.00000000000E+00  0.45593999997E+02  0.45594000000E+02  0.51100000000E-03 0.  1.
         11   -1    0    0    0    0 -0.00000000000E+00 -0.00000000000E+00 -0.45593999997E+02  0.45594000000E+02  0.51100000000E-03 0. -1.
    9900012    2    1    2    0    0 -0.16968772729E+02 -0.26546846170E+02  0.49037338549E+01  0.59301938856E+02  0.49999990569E+02 0.  0.
        -12    1    1    2    0    0  0.16968772729E+02  0.26546846170E+02 -0.49037338549E+01  0.31886061144E+02  0.00000000000E+00 0.  1.
         11    1    3    3    0    0  0.82758471499E+01 -0.24126772330E+01 -0.11996068988E+02  0.14772147065E+02  0.51100000000E-03 0. -1.
        -11    1    3    3    0    0 -0.31566113822E+01 -0.16261602690E+02  0.18534114036E+01  0.16668504779E+02  0.51100000000E-03 0.  1.
         12    1    3    3    0    0 -0.22088008497E+02 -0.78725662471E+01  0.15046391439E+02  0.27861287013E+02  0.00000000000E+00 0. -1.
</event>
<event>
 7    1  0.5761011E-013  0.5930189E+02  0.7816164E-02  0.1266605E+00
        -11   -1    0    0    0    0  0.00000000000E+00  0.00000000000E+00  0.45593999997E+02  0.45594000000E+02  0.51100000000E-03 0. -1.
         11   -1    0    0    0    0 -0.00000000000E+00 -0.00000000000E+00 -0.45593999997E+02  0.45594000000E+02  0.51100000000E-03 0.  1.
    9900012    2    1    2    0    0 -0.92654541322E+01  0.20951424702E+02 -0.22179120852E+02  0.59301886423E+02  0.49999894943E+02 0.  0.
        -12    1    1    2    0    0  0.92654541322E+01 -0.20951424702E+02  0.22179120852E+02  0.31886113577E+02  0.00000000000E+00 0.  1.
         11    1    3    3    0    0 -0.20011593953E+02 -0.23616388960E+01 -0.18581485041E+02  0.27410086052E+02  0.51100000000E-03 0. -1.
        -11    1    3    3    0    0  0.10009587964E+02  0.39239318561E+01 -0.60463037283E+01  0.12334783397E+02  0.51100000000E-03 0.  1.
         12    1    3    3    0    0  0.73655185635E+00  0.19389131741E+02  0.24486679179E+01  0.19557016973E+02  0.00000000000E+00 0. -1.
</event>
<event>
 7    1  0.5761011E-013  0.5930189E+02  0.7816164E-02  0.1266605E+00
        -11   -1    0    0    0    0  0.00000000000E+00  0.00000000000E+00  0.45593999997E+02  0.45594000000E+02  0.51100000000E-03 0.  1.
         11   -1    0    0    0    0 -0.00000000000E+00 -0.00000000000E+00 -0.45593999997E+02  0.45594000000E+02  0.51100000000E-03 0. -1.
    9900012    2    1    2    0    0 -0.17546387926E+02  0.11404722176E+02 -0.24057862893E+02  0.59301887284E+02  0.49999896513E+02 0.  0.
        -12    1    1    2    0    0  0.17546387926E+02 -0.11404722176E+02  0.24057862893E+02  0.31886112716E+02  0.00000000000E+00 0.  1.
         11    1    3    3    0    0 -0.31454630082E+02 -0.37375583547E+01 -0.11035770097E+02  0.33543275301E+02  0.51100000000E-03 0. -1.
        -11    1    3    3    0    0  0.67661083615E+01  0.10104454184E+02 -0.31269353647E+01  0.12556191371E+02  0.51100000000E-03 0.  1.
         12    1    3    3    0    0  0.71421337937E+01  0.50378263470E+01 -0.98951574309E+01  0.13202420612E+02  0.00000000000E+00 0. -1.
</event>
<event>
 7    1  0.5761011E-013  0.5930194E+02  0.7816164E-02  0.1266605E+00
        -11   -1    0    0    0    0  0.00000000000E+00  0.00000000000E+00  0.45593999997E+02  0.45594000000E+02  0.51100000000E-03 0.  1.
         11   -1    0    0    0    0 -0.00000000000E+00 -0.00000000000E+00 -0.45593999997E+02  0.45594000000E+02  0.51100000000E-03 0. -1.
    9900012    2    1    2    0    0  0.93370082051E+01 -0.29171958616E+02  0.88621626824E+01  0.59301940050E+02  0.49999992746E+02 0.  0.
        -12    1    1    2    0    0 -0.93370082051E+01  0.29171958616E+02 -0.88621626824E+01  0.31886059950E+02  0.00000000000E+00 0.  1.
         11    1    3    3    0    0  0.14575787079E+02 -0.16299948615E+02 -0.11643096972E+01  0.21897431611E+02  0.51100000000E-03 0. -1.
        -11    1    3    3    0    0 -0.10786134377E+02 -0.94012204330E+00  0.18725728108E+02  0.21630474283E+02  0.51100000000E-03 0.  1.
        -12    1    3    3    0    0  0.55473555034E+01 -0.11931887958E+02 -0.86992557287E+01  0.15774034156E+02  0.00000000000E+00 0.  1.
</event>
<event>
 7    1  0.5761011E-013  0.5930191E+02  0.7816164E-02  0.1266605E+00
        -11   -1    0    0    0    0  0.00000000000E+00  0.00000000000E+00  0.45593999997E+02  0.45594000000E+02  0.51100000000E-03 0. -1.
         11   -1    0    0    0    0 -0.00000000000E+00 -0.00000000000E+00 -0.45593999997E+02  0.45594000000E+02  0.51100000000E-03 0.  1.
    9900012    2    1    2    0    0 -0.22210027303E+02 -0.90857834552E+01 -0.20997280938E+02  0.59301912430E+02  0.49999942373E+02 0.  0.
        -12    1    1    2    0    0  0.22210027303E+02  0.90857834552E+01  0.20997280938E+02  0.31886087570E+02  0.00000000000E+00 0.  1.
         11    1    3    3    0    0 -0.90922728701E+01 -0.12867174370E+02  0.94751717642E+01  0.18385115785E+02  0.51100000000E-03 0. -1.
        -11    1    3    3    0    0 -0.12602024130E+02  0.54783026500E+01 -0.34162568584E+02  0.36822600459E+02  0.51100000000E-03 0.  1.
        -12    1    3    3    0    0 -0.51573030223E+00 -0.16969117356E+01  0.36901158818E+01  0.40941961853E+01  0.00000000000E+00 0.  1.
</event>
<event>
 7    1  0.5761011E-013  0.5930192E+02  0.7816164E-02  0.1266605E+00
        -11   -1    0    0    0    0  0.00000000000E+00  0.00000000000E+00  0.45593999997E+02  0.45594000000E+02  0.51100000000E-03 0.  1.
         11   -1    0    0    0    0 -0.00000000000E+00 -0.00000000000E+00 -0.45593999997E+02  0.45594000000E+02  0.51100000000E-03 0. -1.
    9900012    2    1    2    0    0  0.14801738867E+02 -0.16225782537E+02 -0.23116115872E+02  0.59301916744E+02  0.49999950241E+02 0.  0.
        -12    1    1    2    0    0 -0.14801738867E+02  0.16225782537E+02  0.23116115872E+02  0.31886083256E+02  0.00000000000E+00 0.  1.
         11    1    3    3    0    0  0.12848573241E+02  0.49101675543E+01 -0.44584608393E+01  0.14459372499E+02  0.51100000000E-03 0. -1.
        -11    1    3    3    0    0 -0.14214596155E+02 -0.64058649252E-01 -0.62790917088E+01  0.15539814681E+02  0.51100000000E-03 0.  1.
        -12    1    3    3    0    0  0.16167761781E+02 -0.21071891442E+02 -0.12378563324E+02  0.29302729564E+02  0.00000000000E+00 0.  1.
</event>
<event>
 7    1  0.5761011E-013  0.5930195E+02  0.7816164E-02  0.1266605E+00
        -11   -1    0    0    0    0  0.00000000000E+00  0.00000000000E+00  0.45593999997E+02  0.45594000000E+02  0.51100000000E-03 0. -1.
         11   -1    0    0    0    0 -0.00000000000E+00 -0.00000000000E+00 -0.45593999997E+02  0.45594000000E+02  0.51100000000E-03 0.  1.
    9900012    2    1    2    0    0  0.19668186008E+02 -0.19245013442E+02  0.16109379893E+02  0.59301949700E+02  0.50000010344E+02 0.  0.
        -12    1    1    2    0    0 -0.19668186008E+02  0.19245013442E+02 -0.16109379893E+02  0.31886050300E+02  0.00000000000E+00 0.  1.
         11    1    3    3    0    0  0.12944178566E+01 -0.10112344855E+02  0.29496405323E+02  0.31208539909E+02  0.51100000000E-03 0. -1.
        -11    1    3    3    0    0  0.80922539629E+01 -0.90564291233E+01 -0.13019855859E+02  0.17805059099E+02  0.51100000000E-03 0.  1.
        -12    1    3    3    0    0  0.10281514188E+02 -0.76239464048E-01 -0.36716957053E+00  0.10288350691E+02  0.00000000000E+00 0.  1.
</event>
<event>
 7    1  0.5761011E-013  0.5930195E+02  0.7816164E-02  0.1266605E+00
        -11   -1    0    0    0    0  0.00000000000E+00  0.00000000000E+00  0.45593999997E+02  0.45594000000E+02  0.51100000000E-03 0.  1.
         11   -1    0    0    0    0 -0.00000000000E+00 -0.00000000000E+00 -0.45593999997E+02  0.45594000000E+02  0.51100000000E-03 0. -1.
    9900012    2    1    2    0    0 -0.44230797430E+01 -0.30193410246E+02 -0.92474161005E+01  0.59301947230E+02  0.50000005840E+02 0.  0.
        -12    1    1    2    0    0  0.44230797430E+01  0.30193410246E+02  0.92474161005E+01  0.31886052770E+02  0.00000000000E+00 0.  1.
         11    1    3    3    0    0 -0.20521739306E+02 -0.58735033218E+01 -0.16399084129E+02  0.26917833976E+02  0.51100000000E-03 0. -1.
        -11    1    3    3    0    0  0.11340345444E+02 -0.16099638275E+02 -0.12099571898E+01  0.19729819666E+02  0.51100000000E-03 0.  1.
         12    1    3    3    0    0  0.47583141189E+01 -0.82202686490E+01  0.83616252186E+01  0.12654293588E+02  0.00000000000E+00 0. -1.
</event>
<event>
 7    1  0.5761011E-013  0.5930229E+02  0.7816164E-02  0.1266604E+00
        -11   -1    0    0    0    0  0.00000000000E+00  0.00000000000E+00  0.45593999997E+02  0.45594000000E+02  0.51100000000E-03 0.  1.
         11   -1    0    0    0    0 -0.00000000000E+00 -0.00000000000E+00 -0.45593999997E+02  0.45594000000E+02  0.51100000000E-03 0. -1.
    9900012    2    1    2    0    0 -0.85977849572E+01  0.28705997381E+02 -0.10896881842E+02  0.59302294336E+02  0.50000638874E+02 0.  0.
        -12    1    1    2    0    0  0.85977849572E+01 -0.28705997381E+02  0.10896881842E+02  0.31885705664E+02  0.00000000000E+00 0.  1.
         11    1    3    3    0    0 -0.13960623821E+02  0.36569961568E+02 -0.17805181308E+01  0.39184580534E+02  0.51100000000E-03 0. -1.
        -11    1    3    3    0    0  0.69176465177E+01 -0.47229189749E+01  0.18729950313E+01  0.85830010856E+01  0.51100000000E-03 0.  1.
         12    1    3    3    0    0 -0.15548076534E+01 -0.31410452121E+01 -0.10989358742E+02  0.11534712716E+02  0.00000000000E+00 0. -1.
</event>
<event>
 7    1  0.5761011E-013  0.5930193E+02  0.7816164E-02  0.1266605E+00
        -11   -1    0    0    0    0  0.00000000000E+00  0.00000000000E+00  0.45593999997E+02  0.45594000000E+02  0.51100000000E-03 0.  1.
         11   -1    0    0    0    0 -0.00000000000E+00 -0.00000000000E+00 -0.45593999997E+02  0.45594000000E+02  0.51100000000E-03 0. -1.
    9900012    2    1    2    0    0  0.30834262479E+02  0.49733217358E+01 -0.64214863978E+01  0.59301934717E+02  0.49999983019E+02 0.  0.
        -12    1    1    2    0    0 -0.30834262479E+02 -0.49733217358E+01  0.64214863978E+01  0.31886065283E+02  0.00000000000E+00 0.  1.
         11    1    3    3    0    0  0.11179837015E+02  0.52725151033E+00 -0.20885306302E+02  0.23695205621E+02  0.51100000000E-03 0. -1.
        -11    1    3    3    0    0  0.11053043882E+02  0.79062242984E+01  0.20462512669E+02  0.24564050698E+02  0.51100000000E-03 0.  1.
        -12    1    3    3    0    0  0.86013815816E+01 -0.34601540729E+01 -0.59986927648E+01  0.11042678398E+02  0.00000000000E+00 0.  1.
</event>
<event>
 7    1  0.5761011E-013  0.5930195E+02  0.7816164E-02  0.1266605E+00
        -11   -1    0    0    0    0  0.00000000000E+00  0.00000000000E+00  0.45593999997E+02  0.45594000000E+02  0.51100000000E-03 0. -1.
         11   -1    0    0    0    0 -0.00000000000E+00 -0.00000000000E+00 -0.45593999997E+02  0.45594000000E+02  0.51100000000E-03 0.  1.
    9900012    2    1    2    0    0  0.22865946402E+01  0.79404278152E+01  0.30796769314E+02  0.59301954320E+02  0.50000018771E+02 0.  0.
        -12    1    1    2    0    0 -0.22865946402E+01 -0.79404278152E+01 -0.30796769314E+02  0.31886045680E+02  0.00000000000E+00 0.  1.
         11    1    3    3    0    0 -0.15238508114E+02  0.67476121468E+01  0.13602099364E+02  0.21511845727E+02  0.51100000000E-03 0. -1.
        -11    1    3    3    0    0  0.96366459748E+01  0.20936728530E+01 -0.71517330489E+01  0.12181777273E+02  0.51100000000E-03 0.  1.
        -12    1    3    3    0    0  0.78884567795E+01 -0.90085718468E+00  0.24346402999E+02  0.25608331320E+02  0.00000000000E+00 0.  1.
</event>
<event>
 7    1  0.5761011E-013  0.5930201E+02  0.7816164E-02  0.1266605E+00
        -11   -1    0    0    0    0  0.00000000000E+00  0.00000000000E+00  0.45593999997E+02  0.45594000000E+02  0.51100000000E-03 0.  1.
         11   -1    0    0    0    0 -0.00000000000E+00 -0.00000000000E+00 -0.45593999997E+02  0.45594000000E+02  0.51100000000E-03 0. -1.
    9900012    2    1    2    0    0  0.29592225021E+02  0.10733439801E+02 -0.50803634744E+01  0.59302006137E+02  0.50000113272E+02 0.  0.
        -12    1    1    2    0    0 -0.29592225021E+02 -0.10733439801E+02  0.50803634744E+01  0.31885993863E+02  0.00000000000E+00 0.  1.
         11    1    3    3    0    0  0.29758933824E+02  0.70626742102E+01 -0.14413734464E+02  0.33811702867E+02  0.51100000000E-03 0. -1.
        -11    1    3    3    0    0 -0.94194696399E+01  0.84822805408E+01  0.79684234885E+01  0.14972350003E+02  0.51100000000E-03 0.  1.
        -12    1    3    3    0    0  0.92527608370E+01 -0.48115149502E+01  0.13649475015E+01  0.10517953266E+02  0.00000000000E+00 0.  1.
</event>
<event>
 7    1  0.5761011E-013  0.5930191E+02  0.7816164E-02  0.1266605E+00
        -11   -1    0    0    0    0  0.00000000000E+00  0.00000000000E+00  0.45593999997E+02  0.45594000000E+02  0.51100000000E-03 0. -1.
         11   -1    0    0    0    0 -0.00000000000E+00 -0.00000000000E+00 -0.45593999997E+02  0.45594000000E+02  0.51100000000E-03 0.  1.
    9900012    2    1    2    0    0 -0.61887137492E+01  0.80789303172E+01  0.30218430077E+02  0.59301908844E+02  0.49999935833E+02 0.  0.
        -12    1    1    2    0    0  0.61887137492E+01 -0.80789303172E+01 -0.30218430077E+02  0.31886091156E+02  0.00000000000E+00 0.  1.
         11    1    3    3    0    0 -0.43159238378E+01  0.53988557507E+00  0.23279078167E+02  0.23681937327E+02  0.51100000000E-03 0. -1.
        -11    1    3    3    0    0  0.43490241058E+01 -0.12867238205E+02  0.20921300132E+01  0.13742519345E+02  0.51100000000E-03 0.  1.
        -12    1    3    3    0    0 -0.62218140172E+01  0.20406282947E+02  0.48472218967E+01  0.21877452171E+02  0.00000000000E+00 0.  1.
</event>
<event>
 7    1  0.5761011E-013  0.5930195E+02  0.7816164E-02  0.1266605E+00
        -11   -1    0    0    0    0  0.00000000000E+00  0.00000000000E+00  0.45593999997E+02  0.45594000000E+02  0.51100000000E-03 0.  1.
         11   -1    0    0    0    0 -0.00000000000E+00 -0.00000000000E+00 -0.45593999997E+02  0.45594000000E+02  0.51100000000E-03 0. -1.
    9900012    2    1    2    0    0 -0.92349472417E+00  0.10266800517E+02 -0.30173832995E+02  0.59301949242E+02  0.50000009509E+02 0.  0.
        -12    1    1    2    0    0  0.92349472417E+00 -0.10266800517E+02  0.30173832995E+02  0.31886050758E+02  0.00000000000E+00 0.  1.
         11    1    3    3    0    0 -0.17103982021E+02  0.16345985172E+02 -0.10780696210E+02  0.25999246975E+02  0.51100000000E-03 0. -1.
        -11    1    3    3    0    0  0.18087545703E+02 -0.11024512456E+02 -0.18062379042E+02  0.27837900807E+02  0.51100000000E-03 0.  1.
        -12    1    3    3    0    0 -0.19070584061E+01  0.49453278006E+01 -0.13307577431E+01  0.54648014594E+01  0.00000000000E+00 0.  1.
</event>
<event>
 7    1  0.5761011E-013  0.5930195E+02  0.7816164E-02  0.1266605E+00
        -11   -1    0    0    0    0  0.00000000000E+00  0.00000000000E+00  0.45593999997E+02  0.45594000000E+02  0.51100000000E-03 0.  1.
         11   -1    0    0    0    0 -0.00000000000E+00 -0.00000000000E+00 -0.45593999997E+02  0.45594000000E+02  0.51100000000E-03 0. -1.
    9900012    2    1    2    0    0  0.21785088903E+02  0.21937133525E+02 -0.78033573093E+01  0.59301948017E+02  0.50000007275E+02 0.  0.
        -12    1    1    2    0    0 -0.21785088903E+02 -0.21937133525E+02  0.78033573093E+01  0.31886051983E+02  0.00000000000E+00 0.  1.
         11    1    3    3    0    0  0.21998190641E+02  0.28485110761E+02  0.53081426203E+00  0.35994495282E+02  0.51100000000E-03 0. -1.
        -11    1    3    3    0    0  0.34612502330E+01 -0.71623029841E+01  0.50447361982E+01  0.94195647873E+01  0.51100000000E-03 0.  1.
         12    1    3    3    0    0 -0.36743519715E+01  0.61432574795E+00 -0.13378907769E+02  0.13887887947E+02  0.00000000000E+00 0. -1.
</event>
<event>
 7    1  0.5761011E-013  0.5930195E+02  0.7816164E-02  0.1266605E+00
        -11   -1    0    0    0    0  0.00000000000E+00  0.00000000000E+00  0.45593999997E+02  0.45594000000E+02  0.51100000000E-03 0.  1.
         11   -1    0    0    0    0 -0.00000000000E+00 -0.00000000000E+00 -0.45593999997E+02  0.45594000000E+02  0.51100000000E-03 0. -1.
    9900012    2    1    2    0    0  0.29325519289E+02  0.11282528719E+02 -0.54257569859E+01  0.59301947019E+02  0.50000005455E+02 0.  0.
        -12    1    1    2    0    0 -0.29325519289E+02 -0.11282528719E+02  0.54257569859E+01  0.31886052981E+02  0.00000000000E+00 0.  1.
         11    1    3    3    0    0 -0.57375660796E+01  0.32506032189E+01 -0.95014641758E+01  0.11565634766E+02  0.51100000000E-03 0. -1.
        -11    1    3    3    0    0  0.38916295463E+02  0.60792514479E+01  0.97767984544E+01  0.40583508215E+02  0.51100000000E-03 0.  1.
        -12    1    3    3    0    0 -0.38532100951E+01  0.19526740522E+01 -0.57010912645E+01  0.71528040374E+01  0.00000000000E+00 0.  1.
</event>
<event>
 7    1  0.5761011E-013  0.5930190E+02  0.7816164E-02  0.1266605E+00
        -11   -1    0    0    0    0  0.00000000000E+00  0.00000000000E+00  0.45593999997E+02  0.45594000000E+02  0.51100000000E-03 0.  1.
         11   -1    0    0    0    0 -0.00000000000E+00 -0.00000000000E+00 -0.45593999997E+02  0.45594000000E+02  0.51100000000E-03 0. -1.
    9900012    2    1    2    0    0 -0.15661454660E+01  0.22062742700E+02 -0.22967502287E+02  0.59301896627E+02  0.49999913552E+02 0.  0.
        -12    1    1    2    0    0  0.15661454660E+01 -0.22062742700E+02  0.22967502287E+02  0.31886103373E+02  0.00000000000E+00 0.  1.
         11    1    3    3    0    0 -0.18844388302E+01 -0.12827319305E+02 -0.18316460238E+02  0.22440676152E+02  0.51100000000E-03 0. -1.
        -11    1    3    3    0    0  0.54433169079E+01  0.20718732197E+02 -0.38919655820E+01  0.21772527625E+02  0.51100000000E-03 0.  1.
         12    1    3    3    0    0 -0.51250235437E+01  0.14171329807E+02 -0.75907646721E+00  0.15088692850E+02  0.00000000000E+00 0. -1.
</event>
<event>
 7    1  0.5761011E-013  0.5930194E+02  0.7816164E-02  0.1266605E+00
        -11   -1    0    0    0    0  0.00000000000E+00  0.00000000000E+00  0.45593999997E+02  0.45594000000E+02  0.51100000000E-03 0.  1.
         11   -1    0    0    0    0 -0.00000000000E+00 -0.00000000000E+00 -0.45593999997E+02  0.45594000000E+02  0.51100000000E-03 0. -1.
    9900012    2    1    2    0    0  0.84248950686E+01 -0.30721552056E+02 -0.13886498168E+01  0.59301937748E+02  0.49999988547E+02 0.  0.
        -12    1    1    2    0    0 -0.84248950686E+01  0.30721552056E+02  0.13886498168E+01  0.31886062252E+02  0.00000000000E+00 0.  1.
         11    1    3    3    0    0  0.99409306682E+01 -0.20601212874E+02  0.16431670321E+02  0.28164372250E+02  0.51100000000E-03 0. -1.
        -11    1    3    3    0    0 -0.10889509024E+02 -0.85877248203E+01 -0.41207986423E+01  0.14467598491E+02  0.51100000000E-03 0.  1.
        -12    1    3    3    0    0  0.93734734244E+01 -0.15326143614E+01 -0.13699521495E+02  0.16669967007E+02  0.00000000000E+00 0.  1.
</event>
<event>
 7    1  0.5761011E-013  0.5930197E+02  0.7816164E-02  0.1266605E+00
        -11   -1    0    0    0    0  0.00000000000E+00  0.00000000000E+00  0.45593999997E+02  0.45594000000E+02  0.51100000000E-03 0. -1.
         11   -1    0    0    0    0 -0.00000000000E+00 -0.00000000000E+00 -0.45593999997E+02  0.45594000000E+02  0.51100000000E-03 0.  1.
    9900012    2    1    2    0    0  0.24349968687E+02  0.20586139620E+02  0.94179146401E-01  0.59301968744E+02  0.50000045077E+02 0.  0.
        -12    1    1    2    0    0 -0.24349968687E+02 -0.20586139620E+02 -0.94179146401E-01  0.31886031256E+02  0.00000000000E+00 0.  1.
         11    1    3    3    0    0  0.23549609075E+02  0.23738525016E+02 -0.10818378607E+02  0.35144544008E+02  0.51100000000E-03 0. -1.
        -11    1    3    3    0    0 -0.71014333346E+01 -0.24694195399E+01 -0.30386321117E+01  0.81093571657E+01  0.51100000000E-03 0.  1.
         12    1    3    3    0    0  0.79017929462E+01 -0.68296585626E+00  0.13951189865E+02  0.16048067571E+02  0.00000000000E+00 0. -1.
</event>
<event>
 7    1  0.5761011E-013  0.5930192E+02  0.7816164E-02  0.1266605E+00
        -11   -1    0    0    0    0  0.00000000000E+00  0.00000000000E+00  0.45593999997E+02  0.45594000000E+02  0.51100000000E-03 0.  1.
         11   -1    0    0    0    0 -0.00000000000E+00 -0.00000000000E+00 -0.45593999997E+02  0.45594000000E+02  0.51100000000E-03 0. -1.
    9900012    2    1    2    0    0 -0.14663360524E+02  0.11738129195E+02 -0.25766727699E+02  0.59301920354E+02  0.49999956824E+02 0.  0.
        -12    1    1    2    0    0  0.14663360524E+02 -0.11738129195E+02  0.25766727699E+02  0.31886079646E+02  0.00000000000E+00 0.  1.
         11    1    3    3    0    0 -0.15447271067E+02 -0.14615135540E+02 -0.16748625951E+02  0.27069112320E+02  0.51100000000E-03 0.  1.
        -11    1    3    3    0    0 -0.61506413152E+01  0.14453062204E+02  0.11283242977E+00  0.15707772824E+02  0.51100000000E-03 0. -1.
         12    1    3    3    0    0  0.69345518579E+01  0.11900202531E+02 -0.91309341782E+01  0.16525035211E+02  0.00000000000E+00 0. -1.
</event>
<event>
 7    1  0.6687232E-013  0.5930193E+02  0.7816164E-02  0.1266605E+00
        -11   -1    0    0    0    0  0.00000000000E+00  0.00000000000E+00  0.45593999997E+02  0.45594000000E+02  0.51100000000E-03 0. -1.
         11   -1    0    0    0    0 -0.00000000000E+00 -0.00000000000E+00 -0.45593999997E+02  0.45594000000E+02  0.51100000000E-03 0.  1.
    9900012    2    1    2    0    0 -0.11348143840E+02  0.73148513363E-01  0.29798246968E+02  0.59301933424E+02  0.49999980662E+02 0.  0.
        -12    1    1    2    0    0  0.11348143840E+02 -0.73148513363E-01 -0.29798246968E+02  0.31886066576E+02  0.00000000000E+00 0.  1.
         11    1    3    3    0    0  0.10778095560E+02 -0.10203799155E+02  0.49599067172E+01  0.15648818997E+02  0.51100000000E-03 0. -1.
        -11    1    3    3    0    0 -0.17293654232E+02  0.89158119829E+01  0.12067224284E+01  0.19494059590E+02  0.51100000000E-03 0.  1.
         12    1    3    3    0    0 -0.48325851674E+01  0.13611356850E+01  0.23631617822E+02  0.24159054838E+02  0.00000000000E+00 0. -1.
</event>
<event>
 7    1  0.5761011E-013  0.5930175E+02  0.7816164E-02  0.1266605E+00
        -11   -1    0    0    0    0  0.00000000000E+00  0.00000000000E+00  0.45593999997E+02  0.45594000000E+02  0.51100000000E-03 0.  1.
         11   -1    0    0    0    0 -0.00000000000E+00 -0.00000000000E+00 -0.45593999997E+02  0.45594000000E+02  0.51100000000E-03 0. -1.
    9900012    2    1    2    0    0 -0.13382110991E+02  0.17553159563E+02 -0.23011707076E+02  0.59301749550E+02  0.49999645318E+02 0.  0.
        -12    1    1    2    0    0  0.13382110991E+02 -0.17553159563E+02  0.23011707076E+02  0.31886250450E+02  0.00000000000E+00 0.  1.
         11    1    3    3    0    0 -0.25378227076E+02  0.10944081187E+02 -0.15821211575E+02  0.31845534357E+02  0.51100000000E-03 0. -1.
        -11    1    3    3    0    0  0.81085626206E+01  0.46853790419E+01  0.75887286254E+01  0.12053645380E+02  0.51100000000E-03 0.  1.
         12    1    3    3    0    0  0.38875534646E+01  0.19236993338E+01 -0.14779224126E+02  0.15402569813E+02  0.00000000000E+00 0. -1.
</event>
<event>
 7    1  0.5761011E-013  0.5930195E+02  0.7816164E-02  0.1266605E+00
        -11   -1    0    0    0    0  0.00000000000E+00  0.00000000000E+00  0.45593999997E+02  0.45594000000E+02  0.51100000000E-03 0.  1.
         11   -1    0    0    0    0 -0.00000000000E+00 -0.00000000000E+00 -0.45593999997E+02  0.45594000000E+02  0.51100000000E-03 0. -1.
    9900012    2    1    2    0    0 -0.28688065416E+01  0.31740022272E+02 -0.10299625787E+01  0.59301954655E+02  0.50000019382E+02 0.  0.
        -12    1    1    2    0    0  0.28688065416E+01 -0.31740022272E+02  0.10299625787E+01  0.31886045345E+02  0.00000000000E+00 0.  1.
         11    1    3    3    0    0  0.15912967467E+02  0.14837830294E+02 -0.15639393037E+02  0.26795043502E+02  0.51100000000E-03 0. -1.
        -11    1    3    3    0    0 -0.75182033795E+01  0.11598668511E+02  0.14533733986E+02  0.20056966798E+02  0.51100000000E-03 0.  1.
         12    1    3    3    0    0 -0.11263570629E+02  0.53035234671E+01  0.75696472576E-01  0.12449944355E+02  0.00000000000E+00 0. -1.
</event>
<event>
 7    1  0.5761011E-013  0.5930193E+02  0.7816164E-02  0.1266605E+00
        -11   -1    0    0    0    0  0.00000000000E+00  0.00000000000E+00  0.45593999997E+02  0.45594000000E+02  0.51100000000E-03 0. -1.
         11   -1    0    0    0    0 -0.00000000000E+00 -0.00000000000E+00 -0.45593999997E+02  0.45594000000E+02  0.51100000000E-03 0.  1.
    9900012    2    1    2    0    0 -0.19155702921E+02  0.15851805877E+02  0.19962482450E+02  0.59301930792E+02  0.49999975861E+02 0.  0.
        -12    1    1    2    0    0  0.19155702921E+02 -0.15851805877E+02 -0.19962482450E+02  0.31886069208E+02  0.00000000000E+00 0.  1.
         11    1    3    3    0    0 -0.23834655984E+02  0.19454167355E+02  0.19091368629E+02  0.36208228481E+02  0.51100000000E-03 0. -1.
        -11    1    3    3    0    0 -0.41631336436E+01 -0.75326326303E+01  0.74579720848E+01  0.11388309091E+02  0.51100000000E-03 0.  1.
         12    1    3    3    0    0  0.88420867064E+01  0.39302711527E+01 -0.65868582632E+01  0.11705393220E+02  0.00000000000E+00 0. -1.
</event>
<event>
 7    1  0.5761011E-013  0.5930193E+02  0.7816164E-02  0.1266605E+00
        -11   -1    0    0    0    0  0.00000000000E+00  0.00000000000E+00  0.45593999997E+02  0.45594000000E+02  0.51100000000E-03 0.  1.
         11   -1    0    0    0    0 -0.00000000000E+00 -0.00000000000E+00 -0.45593999997E+02  0.45594000000E+02  0.51100000000E-03 0. -1.
    9900012    2    1    2    0    0 -0.17401057417E+01  0.23487877801E+02 -0.21494485679E+02  0.59301932726E+02  0.49999979388E+02 0.  0.
        -12    1    1    2    0    0  0.17401057417E+01 -0.23487877801E+02  0.21494485679E+02  0.31886067274E+02  0.00000000000E+00 0.  1.
         11    1    3    3    0    0 -0.33554862675E+01 -0.59071816332E+01 -0.24107836576E+02  0.25046793559E+02  0.51100000000E-03 0. -1.
        -11    1    3    3    0    0 -0.59573298243E+01  0.55735260323E+01  0.42626237059E+01  0.92045604016E+01  0.51100000000E-03 0.  1.
         12    1    3    3    0    0  0.75727103501E+01  0.23821533402E+02 -0.16492728096E+01  0.25050578765E+02  0.00000000000E+00 0. -1.
</event>
<event>
 7    1  0.5761011E-013  0.5930196E+02  0.7816164E-02  0.1266605E+00
        -11   -1    0    0    0    0  0.00000000000E+00  0.00000000000E+00  0.45593999997E+02  0.45594000000E+02  0.51100000000E-03 0. -1.
         11   -1    0    0    0    0 -0.00000000000E+00 -0.00000000000E+00 -0.45593999997E+02  0.45594000000E+02  0.51100000000E-03 0.  1.
    9900012    2    1    2    0    0  0.11584379944E+02  0.61524924853E+01  0.29063184161E+02  0.59301957661E+02  0.50000024864E+02 0.  0.
        -12    1    1    2    0    0 -0.11584379944E+02 -0.61524924853E+01 -0.29063184161E+02  0.31886042339E+02  0.00000000000E+00 0.  1.
         11    1    3    3    0    0  0.16687683606E+01 -0.45029174618E+01  0.16261561608E+02  0.16955808436E+02  0.51100000000E-03 0. -1.
        -11    1    3    3    0    0 -0.10033164160E+02  0.16502795806E+02  0.37557586853E+01  0.19675171563E+02  0.51100000000E-03 0.  1.
        -12    1    3    3    0    0  0.19948775744E+02 -0.58473858585E+01  0.90458638673E+01  0.22670977662E+02  0.00000000000E+00 0.  1.
</event>
<event>
 7    1  0.5761011E-013  0.5930194E+02  0.7816164E-02  0.1266605E+00
        -11   -1    0    0    0    0  0.00000000000E+00  0.00000000000E+00  0.45593999997E+02  0.45594000000E+02  0.51100000000E-03 0. -1.
         11   -1    0    0    0    0 -0.00000000000E+00 -0.00000000000E+00 -0.45593999997E+02  0.45594000000E+02  0.51100000000E-03 0.  1.
    9900012    2    1    2    0    0  0.74454875415E+01  0.30916328456E+02 -0.23380145301E+01  0.59301937812E+02  0.49999988664E+02 0.  0.
        -12    1    1    2    0    0 -0.74454875415E+01 -0.30916328456E+02  0.23380145301E+01  0.31886062188E+02  0.00000000000E+00 0.  1.
         11    1    3    3    0    0  0.11881554765E+02  0.25528303530E+02  0.16896138964E+02  0.32838165858E+02  0.51100000000E-03 0. -1.
        -11    1    3    3    0    0 -0.96047240162E+01 -0.40581076684E+00 -0.66930693814E+01  0.11713777521E+02  0.51100000000E-03 0.  1.
         12    1    3    3    0    0  0.51686567929E+01  0.57938356923E+01 -0.12541084112E+02  0.14749994433E+02  0.00000000000E+00 0. -1.
</event>
<event>
 7    1  0.5761011E-013  0.5930192E+02  0.7816164E-02  0.1266605E+00
        -11   -1    0    0    0    0  0.00000000000E+00  0.00000000000E+00  0.45593999997E+02  0.45594000000E+02  0.51100000000E-03 0. -1.
         11   -1    0    0    0    0 -0.00000000000E+00 -0.00000000000E+00 -0.45593999997E+02  0.45594000000E+02  0.51100000000E-03 0.  1.
    9900012    2    1    2    0    0 -0.11889233978E+02 -0.27025209892E+02  0.12041846194E+02  0.59301922881E+02  0.49999961433E+02 0.  0.
        -12    1    1    2    0    0  0.11889233978E+02  0.27025209892E+02 -0.12041846194E+02  0.31886077119E+02  0.00000000000E+00 0.  1.
         11    1    3    3    0    0 -0.21369591418E+02 -0.13098029027E+01  0.18167429896E+02  0.28079005151E+02  0.51100000000E-03 0. -1.
        -11    1    3    3    0    0  0.55685786176E+01 -0.22915934765E+02 -0.19091322500E+00  0.23583587133E+02  0.51100000000E-03 0.  1.
         12    1    3    3    0    0  0.39117788217E+01 -0.27994722247E+01 -0.59346704772E+01  0.76393305963E+01  0.00000000000E+00 0. -1.
</event>
<event>
 7    1  0.5761011E-013  0.5930195E+02  0.7816164E-02  0.1266605E+00
        -11   -1    0    0    0    0  0.00000000000E+00  0.00000000000E+00  0.45593999997E+02  0.45594000000E+02  0.51100000000E-03 0.  1.
         11   -1    0    0    0    0 -0.00000000000E+00 -0.00000000000E+00 -0.45593999997E+02  0.45594000000E+02  0.51100000000E-03 0. -1.
    9900012    2    1    2    0    0  0.15046551062E+02 -0.22163711856E+02 -0.17294255486E+02  0.59301951406E+02  0.50000013457E+02 0.  0.
        -12    1    1    2    0    0 -0.15046551062E+02  0.22163711856E+02  0.17294255486E+02  0.31886048594E+02  0.00000000000E+00 0.  1.
         11    1    3    3    0    0  0.26614249018E+02 -0.17719470802E+02 -0.21729761677E+01  0.32047148422E+02  0.51100000000E-03 0. -1.
        -11    1    3    3    0    0 -0.12641195565E+02  0.34805852670E+01 -0.42991567968E+01  0.13798443700E+02  0.51100000000E-03 0.  1.
         12    1    3    3    0    0  0.10734976102E+01 -0.79248263207E+01 -0.10822122521E+02  0.13456359285E+02  0.00000000000E+00 0. -1.
</event>
<event>
 7    1  0.5761011E-013  0.5930188E+02  0.7816164E-02  0.1266605E+00
        -11   -1    0    0    0    0  0.00000000000E+00  0.00000000000E+00  0.45593999997E+02  0.45594000000E+02  0.51100000000E-03 0.  1.
         11   -1    0    0    0    0 -0.00000000000E+00 -0.00000000000E+00 -0.45593999997E+02  0.45594000000E+02  0.51100000000E-03 0. -1.
    9900012    2    1    2    0    0 -0.16243563323E+02  0.17898738396E+01 -0.27380057593E+02  0.59301881522E+02  0.49999886005E+02 0.  0.
        -12    1    1    2    0    0  0.16243563323E+02 -0.17898738396E+01  0.27380057593E+02  0.31886118478E+02  0.00000000000E+00 0.  1.
         11    1    3    3    0    0  0.15211790611E+02  0.61655992913E+01 -0.71838018523E+00  0.16429523990E+02  0.51100000000E-03 0. -1.
        -11    1    3    3    0    0 -0.39733243322E+01 -0.24661221599E+01 -0.21063548711E+00  0.46811785190E+01  0.51100000000E-03 0.  1.
         12    1    3    3    0    0 -0.27482029601E+02 -0.19096032917E+01 -0.26451041920E+02  0.38191179013E+02  0.00000000000E+00 0. -1.
</event>
<event>
 7    1  0.5761011E-013  0.5930195E+02  0.7816164E-02  0.1266605E+00
        -11   -1    0    0    0    0  0.00000000000E+00  0.00000000000E+00  0.45593999997E+02  0.45594000000E+02  0.51100000000E-03 0. -1.
         11   -1    0    0    0    0 -0.00000000000E+00 -0.00000000000E+00 -0.45593999997E+02  0.45594000000E+02  0.51100000000E-03 0.  1.
    9900012    2    1    2    0    0  0.11838054481E+02  0.37997333362E+01  0.29362267043E+02  0.59301949238E+02  0.50000009502E+02 0.  0.
        -12    1    1    2    0    0 -0.11838054481E+02 -0.37997333362E+01 -0.29362267043E+02  0.31886050762E+02  0.00000000000E+00 0.  1.
         11    1    3    3    0    0 -0.14381447734E+02  0.88958666512E+01  0.12220064010E+02  0.20863663319E+02  0.51100000000E-03 0. -1.
        -11    1    3    3    0    0  0.16425417886E+02 -0.10406327029E+02  0.18950391657E+02  0.27151488710E+02  0.51100000000E-03 0.  1.
         12    1    3    3    0    0  0.97940843301E+01  0.53101937136E+01 -0.18081886243E+01  0.11286797209E+02  0.00000000000E+00 0. -1.
</event>
<event>
 7    1  0.5761011E-013  0.5930193E+02  0.7816164E-02  0.1266605E+00
        -11   -1    0    0    0    0  0.00000000000E+00  0.00000000000E+00  0.45593999997E+02  0.45594000000E+02  0.51100000000E-03 0.  1.
         11   -1    0    0    0    0 -0.00000000000E+00 -0.00000000000E+00 -0.45593999997E+02  0.45594000000E+02  0.51100000000E-03 0. -1.
    9900012    2    1    2    0    0  0.10853865024E+02 -0.18024333470E+02 -0.23959094869E+02  0.59301933922E+02  0.49999981570E+02 0.  0.
        -12    1    1    2    0    0 -0.10853865024E+02  0.18024333470E+02  0.23959094869E+02  0.31886066078E+02  0.00000000000E+00 0.  1.
         11    1    3    3    0    0  0.22863544888E+02 -0.27110420934E+02 -0.19262688993E+02  0.40357995436E+02  0.51100000000E-03 0. -1.
        -11    1    3    3    0    0 -0.11959038961E+02  0.41742418018E+01 -0.57651813413E+01  0.13916904241E+02  0.51100000000E-03 0.  1.
         12    1    3    3    0    0 -0.50640902973E-01  0.49118456623E+01  0.10687754657E+01  0.50270342457E+01  0.00000000000E+00 0. -1.
</event>
<event>
 7    1  0.5761011E-013  0.5930195E+02  0.7816164E-02  0.1266605E+00
        -11   -1    0    0    0    0  0.00000000000E+00  0.00000000000E+00  0.45593999997E+02  0.45594000000E+02  0.51100000000E-03 0. -1.
         11   -1    0    0    0    0 -0.00000000000E+00 -0.00000000000E+00 -0.45593999997E+02  0.45594000000E+02  0.51100000000E-03 0.  1.
    9900012    2    1    2    0    0 -0.10394810298E+02 -0.14784113428E+02  0.26269719890E+02  0.59301948597E+02  0.50000008334E+02 0.  0.
        -12    1    1    2    0    0  0.10394810298E+02  0.14784113428E+02 -0.26269719890E+02  0.31886051403E+02  0.00000000000E+00 0.  1.
         11    1    3    3    0    0  0.65049390386E+01  0.12409348569E+02  0.18323902944E+02  0.23066676899E+02  0.51100000000E-03 0. -1.
        -11    1    3    3    0    0 -0.50496310061E+01 -0.16348375710E+02 -0.21765393156E+01  0.17248347321E+02  0.51100000000E-03 0.  1.
         12    1    3    3    0    0 -0.11850118330E+02 -0.10845086287E+02  0.10122356262E+02  0.18986924377E+02  0.00000000000E+00 0. -1.
</event>
<event>
 7    1  0.5761011E-013  0.5930196E+02  0.7816164E-02  0.1266605E+00
        -11   -1    0    0    0    0  0.00000000000E+00  0.00000000000E+00  0.45593999997E+02  0.45594000000E+02  0.51100000000E-03 0. -1.
         11   -1    0    0    0    0 -0.00000000000E+00 -0.00000000000E+00 -0.45593999997E+02  0.45594000000E+02  0.51100000000E-03 0.  1.
    9900012    2    1    2    0    0  0.16849132723E+02 -0.21838462276E+02  0.15997127966E+02  0.59301955855E+02  0.50000021570E+02 0.  0.
        -12    1    1    2    0    0 -0.16849132723E+02  0.21838462276E+02 -0.15997127966E+02  0.31886044145E+02  0.00000000000E+00 0.  1.
         11    1    3    3    0    0 -0.94309847467E+01  0.31137814663E+01 -0.81660606283E+01  0.12857824651E+02  0.51100000000E-03 0.  1.
        -11    1    3    3    0    0  0.27567201083E+02 -0.19826740390E+02  0.23057460501E+02  0.41045056889E+02  0.51100000000E-03 0. -1.
        -12    1    3    3    0    0 -0.12870836126E+01 -0.51255033520E+01  0.11057280927E+01  0.53990743144E+01  0.00000000000E+00 0.  1.
</event>
<event>
 7    1  0.5761011E-013  0.5930195E+02  0.7816164E-02  0.1266605E+00
        -11   -1    0    0    0    0  0.00000000000E+00  0.00000000000E+00  0.45593999997E+02  0.45594000000E+02  0.51100000000E-03 0.  1.
         11   -1    0    0    0    0 -0.00000000000E+00 -0.00000000000E+00 -0.45593999997E+02  0.45594000000E+02  0.51100000000E-03 0. -1.
    9900012    2    1    2    0    0 -0.43592430277E+01 -0.30255624680E+02  0.90727375516E+01  0.59301946760E+02  0.50000004983E+02 0.  0.
        -12    1    1    2    0    0  0.43592430277E+01  0.30255624680E+02 -0.90727375516E+01  0.31886053240E+02  0.00000000000E+00 0.  1.
         11    1    3    3    0    0 -0.82828644309E+01 -0.63653923558E+01 -0.52125696086E+01  0.11674542612E+02  0.51100000000E-03 0. -1.
        -11    1    3    3    0    0  0.30146198365E+01 -0.19829698599E+02  0.27349774459E+02  0.33916294646E+02  0.51100000000E-03 0.  1.
        -12    1    3    3    0    0  0.90900156664E+00 -0.40605337249E+01 -0.13064467299E+02  0.13711109502E+02  0.00000000000E+00 0.  1.
</event>
<event>
 7    1  0.5761011E-013  0.5930193E+02  0.7816164E-02  0.1266605E+00
        -11   -1    0    0    0    0  0.00000000000E+00  0.00000000000E+00  0.45593999997E+02  0.45594000000E+02  0.51100000000E-03 0.  1.
         11   -1    0    0    0    0 -0.00000000000E+00 -0.00000000000E+00 -0.45593999997E+02  0.45594000000E+02  0.51100000000E-03 0. -1.
    9900012    2    1    2    0    0  0.25699312628E+02 -0.18627592141E+02 -0.30462416537E+01  0.59301930209E+02  0.49999974798E+02 0.  0.
        -12    1    1    2    0    0 -0.25699312628E+02  0.18627592141E+02  0.30462416537E+01  0.31886069791E+02  0.00000000000E+00 0.  1.
         11    1    3    3    0    0  0.13857384340E+02  0.44061413294E+01 -0.16674481116E+02  0.22124183666E+02  0.51100000000E-03 0. -1.
        -11    1    3    3    0    0  0.14429453145E+00 -0.22433572888E+02  0.60803583574E+01  0.23243424262E+02  0.51100000000E-03 0.  1.
         12    1    3    3    0    0  0.11697633756E+02 -0.60016058305E+00  0.75478811051E+01  0.13934322280E+02  0.00000000000E+00 0. -1.
</event>
<event>
 7    1  0.5761011E-013  0.5930194E+02  0.7816164E-02  0.1266605E+00
        -11   -1    0    0    0    0  0.00000000000E+00  0.00000000000E+00  0.45593999997E+02  0.45594000000E+02  0.51100000000E-03 0. -1.
         11   -1    0    0    0    0 -0.00000000000E+00 -0.00000000000E+00 -0.45593999997E+02  0.45594000000E+02  0.51100000000E-03 0.  1.
    9900012    2    1    2    0    0  0.29447702323E+02  0.12192516734E+02 -0.94671790365E+00  0.59301938607E+02  0.49999990114E+02 0.  0.
        -12    1    1    2    0    0 -0.29447702323E+02 -0.12192516734E+02  0.94671790365E+00  0.31886061393E+02  0.00000000000E+00 0.  1.
         11    1    3    3    0    0 -0.73869622295E+01 -0.93974807941E+00 -0.12913986113E+02  0.14907091434E+02  0.51100000000E-03 0.  1.
        -11    1    3    3    0    0  0.32538809433E+02  0.14856503962E+02  0.51270168123E+01  0.36135524501E+02  0.51100000000E-03 0. -1.
        -12    1    3    3    0    0  0.42958551189E+01 -0.17242391486E+01  0.68402513966E+01  0.82593226728E+01  0.00000000000E+00 0.  1.
</event>
<event>
 7    1  0.5761011E-013  0.5930194E+02  0.7816164E-02  0.1266605E+00
        -11   -1    0    0    0    0  0.00000000000E+00  0.00000000000E+00  0.45593999997E+02  0.45594000000E+02  0.51100000000E-03 0.  1.
         11   -1    0    0    0    0 -0.00000000000E+00 -0.00000000000E+00 -0.45593999997E+02  0.45594000000E+02  0.51100000000E-03 0. -1.
    9900012    2    1    2    0    0 -0.38382746838E+01  0.38476802613E+01 -0.31419482770E+02  0.59301938884E+02  0.49999990620E+02 0.  0.
        -12    1    1    2    0    0  0.38382746838E+01 -0.38476802613E+01  0.31419482770E+02  0.31886061116E+02  0.00000000000E+00 0.  1.
         11    1    3    3    0    0 -0.37212927937E+00 -0.21890301535E+01 -0.26529790878E+02  0.26622549417E+02  0.51100000000E-03 0. -1.
        -11    1    3    3    0    0 -0.16297011815E+02 -0.69540261572E+00 -0.75049773208E+01  0.17955524602E+02  0.51100000000E-03 0.  1.
         12    1    3    3    0    0  0.12830866410E+02  0.67321130306E+01  0.26152854285E+01  0.14723864865E+02  0.00000000000E+00 0. -1.
</event>
<event>
 7    1  0.5761011E-013  0.5930191E+02  0.7816164E-02  0.1266605E+00
        -11   -1    0    0    0    0  0.00000000000E+00  0.00000000000E+00  0.45593999997E+02  0.45594000000E+02  0.51100000000E-03 0. -1.
         11   -1    0    0    0    0 -0.00000000000E+00 -0.00000000000E+00 -0.45593999997E+02  0.45594000000E+02  0.51100000000E-03 0.  1.
    9900012    2    1    2    0    0  0.18072096940E+01 -0.30637273974E+02  0.86495305354E+01  0.59301906763E+02  0.49999932038E+02 0.  0.
        -12    1    1    2    0    0 -0.18072096940E+01  0.30637273974E+02 -0.86495305354E+01  0.31886093237E+02  0.00000000000E+00 0.  1.
         11    1    3    3    0    0  0.83605142546E+01 -0.76527868406E+01  0.15491267324E+02  0.19194861516E+02  0.51100000000E-03 0. -1.
        -11    1    3    3    0    0 -0.25040488828E+01 -0.10068875350E+02 -0.19170617886E+02  0.21798282089E+02  0.51100000000E-03 0.  1.
         12    1    3    3    0    0 -0.40492556778E+01 -0.12915611783E+02  0.12328881098E+02  0.18308763158E+02  0.00000000000E+00 0. -1.
</event>
<event>
 7    1  0.1064542E-012  0.5930195E+02  0.7816164E-02  0.1266605E+00
        -11   -1    0    0    0    0  0.00000000000E+00  0.00000000000E+00  0.45593999997E+02  0.45594000000E+02  0.51100000000E-03 0. -1.
         11   -1    0    0    0    0 -0.00000000000E+00 -0.00000000000E+00 -0.45593999997E+02  0.45594000000E+02  0.51100000000E-03 0.  1.
    9900012    2    1    2    0    0 -0.92001448511E+01 -0.10712247652E+02  0.28588902178E+02  0.59301949087E+02  0.50000009228E+02 0.  0.
        -12    1    1    2    0    0  0.92001448511E+01  0.10712247652E+02 -0.28588902178E+02  0.31886050913E+02  0.00000000000E+00 0.  1.
         11    1    3    3    0    0 -0.45992296934E+01 -0.66675241092E+01  0.22650753924E+02  0.24055466013E+02  0.51100000000E-03 0. -1.
        -11    1    3    3    0    0  0.72560883689E+01  0.12225049677E+02 -0.14019471396E+00  0.14216972703E+02  0.51100000000E-03 0.  1.
        -12    1    3    3    0    0 -0.11857003527E+02 -0.16269773219E+02  0.60783429682E+01  0.21029510372E+02  0.00000000000E+00 0.  1.
</event>
<event>
 7    1  0.5761011E-013  0.5930215E+02  0.7816164E-02  0.1266604E+00
        -11   -1    0    0    0    0  0.00000000000E+00  0.00000000000E+00  0.45593999997E+02  0.45594000000E+02  0.51100000000E-03 0. -1.
         11   -1    0    0    0    0 -0.00000000000E+00 -0.00000000000E+00 -0.45593999997E+02  0.45594000000E+02  0.51100000000E-03 0.  1.
    9900012    2    1    2    0    0 -0.13744459859E+02 -0.21797725131E+02  0.18779147707E+02  0.59302150689E+02  0.50000376899E+02 0.  0.
        -12    1    1    2    0    0  0.13744459859E+02  0.21797725131E+02 -0.18779147707E+02  0.31885849311E+02  0.00000000000E+00 0.  1.
         11    1    3    3    0    0 -0.34994374423E+01 -0.18278735399E+02  0.20305155853E+01  0.18721143768E+02  0.51100000000E-03 0. -1.
        -11    1    3    3    0    0 -0.23431327450E+02 -0.34039951238E+01  0.93186171831E+01  0.25445056796E+02  0.51100000000E-03 0.  1.
        -12    1    3    3    0    0  0.13186305034E+02 -0.11499460876E+00  0.74300149383E+01  0.15135950125E+02  0.00000000000E+00 0.  1.
</event>
<event>
 7    1  0.5761011E-013  0.5930197E+02  0.7816164E-02  0.1266605E+00
        -11   -1    0    0    0    0  0.00000000000E+00  0.00000000000E+00  0.45593999997E+02  0.45594000000E+02  0.51100000000E-03 0.  1.
         11   -1    0    0    0    0 -0.00000000000E+00 -0.00000000000E+00 -0.45593999997E+02  0.45594000000E+02  0.51100000000E-03 0. -1.
    9900012    2    1    2    0    0 -0.29390341600E+02  0.12365190151E+02 -0.17036470004E+00  0.59301966522E+02  0.50000041023E+02 0.  0.
        -12    1    1    2    0    0  0.29390341600E+02 -0.12365190151E+02  0.17036470004E+00  0.31886033478E+02  0.00000000000E+00 0.  1.
         11    1    3    3    0    0  0.48241437544E+01  0.74691110003E+00 -0.38208665082E+01  0.61991338338E+01  0.51100000000E-03 0. -1.
        -11    1    3    3    0    0 -0.30633067908E+02  0.24005876559E+02 -0.21182949489E+01  0.38976327849E+02  0.51100000000E-03 0.  1.
        -12    1    3    3    0    0 -0.35814174470E+01 -0.12387597508E+02  0.57687967571E+01  0.14126504839E+02  0.00000000000E+00 0.  1.
</event>
<event>
 7    1  0.5761011E-013  0.5930194E+02  0.7816164E-02  0.1266605E+00
        -11   -1    0    0    0    0  0.00000000000E+00  0.00000000000E+00  0.45593999997E+02  0.45594000000E+02  0.51100000000E-03 0. -1.
         11   -1    0    0    0    0 -0.00000000000E+00 -0.00000000000E+00 -0.45593999997E+02  0.45594000000E+02  0.51100000000E-03 0.  1.
    9900012    2    1    2    0    0  0.30475805442E+01 -0.31361249009E+02  0.48893167690E+01  0.59301935567E+02  0.49999984569E+02 0.  0.
        -12    1    1    2    0    0 -0.30475805442E+01  0.31361249009E+02 -0.48893167690E+01  0.31886064433E+02  0.00000000000E+00 0.  1.
         11    1    3    3    0    0  0.11133180516E+02 -0.27087765108E+02  0.14197423767E+02  0.32546298850E+02  0.51100000000E-03 0. -1.
        -11    1    3    3    0    0 -0.55243739945E+01  0.35356516451E+01  0.63136615045E+01  0.91039476295E+01  0.51100000000E-03 0.  1.
        -12    1    3    3    0    0 -0.25612259775E+01 -0.78091355466E+01 -0.15621768502E+02  0.17651689087E+02  0.00000000000E+00 0.  1.
</event>
<event>
 7    1  0.5761011E-013  0.5930196E+02  0.7816164E-02  0.1266605E+00
        -11   -1    0    0    0    0  0.00000000000E+00  0.00000000000E+00  0.45593999997E+02  0.45594000000E+02  0.51100000000E-03 0.  1.
         11   -1    0    0    0    0 -0.00000000000E+00 -0.00000000000E+00 -0.45593999997E+02  0.45594000000E+02  0.51100000000E-03 0. -1.
    9900012    2    1    2    0    0 -0.30880392598E+02  0.55401752476E+01  0.56944962903E+01  0.59301961099E+02  0.50000031134E+02 0.  0.
        -12    1    1    2    0    0  0.30880392598E+02 -0.55401752476E+01 -0.56944962903E+01  0.31886038901E+02  0.00000000000E+00 0.  1.
         11    1    3    3    0    0 -0.34194527249E+00  0.12532516923E+02  0.34057408410E+01  0.12991534856E+02  0.51100000000E-03 0. -1.
        -11    1    3    3    0    0 -0.34071101200E+02 -0.12260831965E+02  0.87538509204E+01  0.37253158841E+02  0.51100000000E-03 0.  1.
         12    1    3    3    0    0  0.35326538744E+01  0.52684902896E+01 -0.64650954711E+01  0.90572674013E+01  0.00000000000E+00 0. -1.
</event>
<event>
 7    1  0.5761011E-013  0.5930195E+02  0.7816164E-02  0.1266605E+00
        -11   -1    0    0    0    0  0.00000000000E+00  0.00000000000E+00  0.45593999997E+02  0.45594000000E+02  0.51100000000E-03 0.  1.
         11   -1    0    0    0    0 -0.00000000000E+00 -0.00000000000E+00 -0.45593999997E+02  0.45594000000E+02  0.51100000000E-03 0. -1.
    9900012    2    1    2    0    0 -0.17715428156E+02  0.20964333875E+02 -0.16228995726E+02  0.59301953023E+02  0.50000016405E+02 0.  0.
        -12    1    1    2    0    0  0.17715428156E+02 -0.20964333875E+02  0.16228995726E+02  0.31886046977E+02  0.00000000000E+00 0.  1.
         11    1    3    3    0    0  0.50310944920E+01 -0.75023670708E+01 -0.17649309977E+02  0.19826637798E+02  0.51100000000E-03 0. -1.
        -11    1    3    3    0    0 -0.80399280713E+01  0.16475628952E+02  0.71131196616E+01  0.19664263636E+02  0.51100000000E-03 0.  1.
         12    1    3    3    0    0 -0.14706594577E+02  0.11991071993E+02 -0.56928054098E+01  0.19811051588E+02  0.00000000000E+00 0. -1.
</event>
<event>
 7    1  0.5761011E-013  0.5930195E+02  0.7816164E-02  0.1266605E+00
        -11   -1    0    0    0    0  0.00000000000E+00  0.00000000000E+00  0.45593999997E+02  0.45594000000E+02  0.51100000000E-03 0.  1.
         11   -1    0    0    0    0 -0.00000000000E+00 -0.00000000000E+00 -0.45593999997E+02  0.45594000000E+02  0.51100000000E-03 0. -1.
    9900012    2    1    2    0    0 -0.19587384774E+02  0.25139495500E+02 -0.10296298961E+01  0.59301952675E+02  0.50000015771E+02 0.  0.
        -12    1    1    2    0    0  0.19587384774E+02 -0.25139495500E+02  0.10296298961E+01  0.31886047325E+02  0.00000000000E+00 0.  1.
         11    1    3    3    0    0 -0.25432245646E+02  0.28823844992E+02  0.74215474094E+01  0.39149617175E+02  0.51100000000E-03 0. -1.
        -11    1    3    3    0    0 -0.58661693596E+01 -0.25920229888E+01 -0.18988107285E+01  0.66884982300E+01  0.51100000000E-03 0.  1.
         12    1    3    3    0    0  0.11711030232E+02 -0.10923265029E+01 -0.65523665770E+01  0.13463837270E+02  0.00000000000E+00 0. -1.
</event>
<event>
 7    1  0.5761011E-013  0.5930195E+02  0.7816164E-02  0.1266605E+00
        -11   -1    0    0    0    0  0.00000000000E+00  0.00000000000E+00  0.45593999997E+02  0.45594000000E+02  0.51100000000E-03 0. -1.
         11   -1    0    0    0    0 -0.00000000000E+00 -0.00000000000E+00 -0.45593999997E+02  0.45594000000E+02  0.51100000000E-03 0.  1.
    9900012    2    1    2    0    0 -0.24490912675E+02  0.15882235213E+02 -0.12832370073E+02  0.59301954138E+02  0.50000018439E+02 0.  0.
        -12    1    1    2    0    0  0.24490912675E+02 -0.15882235213E+02  0.12832370073E+02  0.31886045862E+02  0.00000000000E+00 0.  1.
         11    1    3    3    0    0  0.11061548657E+00  0.88223606976E+01  0.99771735484E+01  0.13318794102E+02  0.51100000000E-03 0. -1.
        -11    1    3    3    0    0 -0.22446127124E+02  0.17929083084E+02 -0.18018709829E+02  0.33910979746E+02  0.51100000000E-03 0.  1.
         12    1    3    3    0    0 -0.21554010372E+01 -0.10869208569E+02 -0.47908337916E+01  0.12072180290E+02  0.00000000000E+00 0. -1.
</event>
<event>
 7    1  0.5761011E-013  0.5930198E+02  0.7816164E-02  0.1266605E+00
        -11   -1    0    0    0    0  0.00000000000E+00  0.00000000000E+00  0.45593999997E+02  0.45594000000E+02  0.51100000000E-03 0.  1.
         11   -1    0    0    0    0 -0.00000000000E+00 -0.00000000000E+00 -0.45593999997E+02  0.45594000000E+02  0.51100000000E-03 0. -1.
    9900012    2    1    2    0    0  0.55196157041E+01  0.13152250680E+02 -0.28517895378E+02  0.59301980928E+02  0.50000067298E+02 0.  0.
        -12    1    1    2    0    0 -0.55196157041E+01 -0.13152250680E+02  0.28517895378E+02  0.31886019072E+02  0.00000000000E+00 0.  1.
         11    1    3    3    0    0  0.40458629314E+01  0.26756525917E+02 -0.16312381155E+02  0.31597064186E+02  0.51100000000E-03 0. -1.
        -11    1    3    3    0    0  0.14790105881E+01 -0.13728814395E+02 -0.17565707618E+02  0.22343274187E+02  0.51100000000E-03 0.  1.
         12    1    3    3    0    0 -0.52578154848E-02  0.12453915818E+00  0.53601933958E+01  0.53616425549E+01  0.00000000000E+00 0. -1.
</event>
<event>
 7    1  0.5761011E-013  0.5930193E+02  0.7816164E-02  0.1266605E+00
        -11   -1    0    0    0    0  0.00000000000E+00  0.00000000000E+00  0.45593999997E+02  0.45594000000E+02  0.51100000000E-03 0.  1.
         11   -1    0    0    0    0 -0.00000000000E+00 -0.00000000000E+00 -0.45593999997E+02  0.45594000000E+02  0.51100000000E-03 0. -1.
    9900012    2    1    2    0    0  0.50349634203E+01  0.28588452759E+02 -0.13193603860E+02  0.59301926698E+02  0.49999968394E+02 0.  0.
        -12    1    1    2    0    0 -0.50349634203E+01 -0.28588452759E+02  0.13193603860E+02  0.31886073302E+02  0.00000000000E+00 0.  1.
         11    1    3    3    0    0  0.17725535972E+02  0.13932704502E+02 -0.22488186898E+02  0.31843891572E+02  0.51100000000E-03 0. -1.
        -11    1    3    3    0    0 -0.69990776195E+01  0.15036104254E+02  0.38339142278E-01  0.16585324502E+02  0.51100000000E-03 0.  1.
         12    1    3    3    0    0 -0.56914949319E+01 -0.38035599746E+00  0.92562438961E+01  0.10872710624E+02  0.00000000000E+00 0. -1.
</event>
<event>
 7    1  0.5761011E-013  0.5930199E+02  0.7816164E-02  0.1266605E+00
        -11   -1    0    0    0    0  0.00000000000E+00  0.00000000000E+00  0.45593999997E+02  0.45594000000E+02  0.51100000000E-03 0.  1.
         11   -1    0    0    0    0 -0.00000000000E+00 -0.00000000000E+00 -0.45593999997E+02  0.45594000000E+02  0.51100000000E-03 0. -1.
    9900012    2    1    2    0    0 -0.29749687257E+02  0.37425480792E+01 -0.10847456200E+02  0.59301986389E+02  0.50000077257E+02 0.  0.
        -12    1    1    2    0    0  0.29749687257E+02 -0.37425480792E+01  0.10847456200E+02  0.31886013611E+02  0.00000000000E+00 0.  1.
         11    1    3    3    0    0  0.26191328794E+01 -0.14677308726E+02 -0.79623304700E+01  0.16902128719E+02  0.51100000000E-03 0. -1.
        -11    1    3    3    0    0 -0.14703106065E+02  0.72403050580E+01  0.86404597543E+01  0.18527301215E+02  0.51100000000E-03 0.  1.
         12    1    3    3    0    0 -0.17665714071E+02  0.11179551747E+02 -0.11525585484E+02  0.23872556454E+02  0.00000000000E+00 0. -1.
</event>
<event>
 7    1  0.5761011E-013  0.5930194E+02  0.7816164E-02  0.1266605E+00
        -11   -1    0    0    0    0  0.00000000000E+00  0.00000000000E+00  0.45593999997E+02  0.45594000000E+02  0.51100000000E-03 0. -1.
         11   -1    0    0    0    0 -0.00000000000E+00 -0.00000000000E+00 -0.45593999997E+02  0.45594000000E+02  0.51100000000E-03 0.  1.
    9900012    2    1    2    0    0  0.67163980664E+01 -0.24904168613E+02  0.18745492701E+02  0.59301935428E+02  0.49999984317E+02 0.  0.
        -12    1    1    2    0    0 -0.67163980664E+01  0.24904168613E+02 -0.18745492701E+02  0.31886064572E+02  0.00000000000E+00 0.  1.
         11    1    3    3    0    0 -0.26063260724E+01 -0.19598172372E+02 -0.41486653029E+01  0.20201304908E+02  0.51100000000E-03 0. -1.
        -11    1    3    3    0    0  0.90917468889E+01 -0.11874053812E+02  0.27342135981E+02  0.31164810535E+02  0.51100000000E-03 0.  1.
        -12    1    3    3    0    0  0.23097724996E+00  0.65680575715E+01 -0.44479779773E+01  0.79358199853E+01  0.00000000000E+00 0.  1.
</event>
<event>
 7    1  0.5761011E-013  0.5930195E+02  0.7816164E-02  0.1266605E+00
        -11   -1    0    0    0    0  0.00000000000E+00  0.00000000000E+00  0.45593999997E+02  0.45594000000E+02  0.51100000000E-03 0.  1.
         11   -1    0    0    0    0 -0.00000000000E+00 -0.00000000000E+00 -0.45593999997E+02  0.45594000000E+02  0.51100000000E-03 0. -1.
    9900012    2    1    2    0    0 -0.24123238605E+02  0.17294380843E+02 -0.11648770878E+02  0.59301951130E+02  0.50000012953E+02 0.  0.
        -12    1    1    2    0    0  0.24123238605E+02 -0.17294380843E+02  0.11648770878E+02  0.31886048870E+02  0.00000000000E+00 0.  1.
         11    1    3    3    0    0 -0.27952515654E+01  0.45226441317E+01 -0.24217840790E+02  0.24794587193E+02  0.51100000000E-03 0. -1.
        -11    1    3    3    0    0 -0.57629225672E+01  0.12084664509E+02  0.13350832943E+02  0.18907541705E+02  0.51100000000E-03 0.  1.
        -12    1    3    3    0    0 -0.15565064472E+02  0.68707220303E+00 -0.78176303093E+00  0.15599822232E+02  0.00000000000E+00 0.  1.
</event>
<event>
 7    1  0.5761011E-013  0.5930193E+02  0.7816164E-02  0.1266605E+00
        -11   -1    0    0    0    0  0.00000000000E+00  0.00000000000E+00  0.45593999997E+02  0.45594000000E+02  0.51100000000E-03 0.  1.
         11   -1    0    0    0    0 -0.00000000000E+00 -0.00000000000E+00 -0.45593999997E+02  0.45594000000E+02  0.51100000000E-03 0. -1.
    9900012    2    1    2    0    0 -0.28708293110E+02  0.88796470913E+01 -0.10663346706E+02  0.59301934255E+02  0.49999982176E+02 0.  0.
        -12    1    1    2    0    0  0.28708293110E+02 -0.88796470913E+01  0.10663346706E+02  0.31886065745E+02  0.00000000000E+00 0.  1.
         11    1    3    3    0    0 -0.14535158018E+02 -0.93883348229E+01  0.65340531534E+01  0.18496094188E+02  0.51100000000E-03 0. -1.
        -11    1    3    3    0    0 -0.51385277173E+01  0.22936124281E+02 -0.19309837227E+02  0.30419402988E+02  0.51100000000E-03 0.  1.
        -12    1    3    3    0    0 -0.90346073742E+01 -0.46681423665E+01  0.21124373673E+01  0.10386437079E+02  0.00000000000E+00 0.  1.
</event>
<event>
 7    1  0.5761011E-013  0.5930191E+02  0.7816164E-02  0.1266605E+00
        -11   -1    0    0    0    0  0.00000000000E+00  0.00000000000E+00  0.45593999997E+02  0.45594000000E+02  0.51100000000E-03 0. -1.
         11   -1    0    0    0    0 -0.00000000000E+00 -0.00000000000E+00 -0.45593999997E+02  0.45594000000E+02  0.51100000000E-03 0.  1.
    9900012    2    1    2    0    0  0.80612853711E+01  0.29299171363E+02  0.96590489498E+01  0.59301905993E+02  0.49999930634E+02 0.  0.
        -12    1    1    2    0    0 -0.80612853711E+01 -0.29299171363E+02 -0.96590489498E+01  0.31886094007E+02  0.00000000000E+00 0.  1.
         11    1    3    3    0    0  0.91268158849E+01 -0.65100620046E+00  0.96781568327E+01  0.13318757345E+02  0.51100000000E-03 0. -1.
        -11    1    3    3    0    0 -0.12371783547E+02  0.91853047600E+01 -0.11950395682E+02  0.19499815612E+02  0.51100000000E-03 0.  1.
        -12    1    3    3    0    0  0.11306253033E+02  0.20764872804E+02  0.11931287799E+02  0.26483333037E+02  0.00000000000E+00 0.  1.
</event>
<event>
 7    1  0.5761011E-013  0.5930204E+02  0.7816164E-02  0.1266604E+00
        -11   -1    0    0    0    0  0.00000000000E+00  0.00000000000E+00  0.45593999997E+02  0.45594000000E+02  0.51100000000E-03 0.  1.
         11   -1    0    0    0    0 -0.00000000000E+00 -0.00000000000E+00 -0.45593999997E+02  0.45594000000E+02  0.51100000000E-03 0. -1.
    9900012    2    1    2    0    0 -0.75968844819E+01  0.30101173797E+02 -0.72746827133E+01  0.59302041862E+02  0.50000178425E+02 0.  0.
        -12    1    1    2    0    0  0.75968844819E+01 -0.30101173797E+02  0.72746827133E+01  0.31885958138E+02  0.00000000000E+00 0.  1.
         11    1    3    3    0    0 -0.93034829976E+01  0.15717601305E+02  0.85854317387E+00  0.18284826587E+02  0.51100000000E-03 0. -1.
        -11    1    3    3    0    0  0.13430133242E+02  0.27408622848E+01 -0.17339523317E+02  0.22102938132E+02  0.51100000000E-03 0.  1.
        -12    1    3    3    0    0 -0.11723534726E+02  0.11642710207E+02  0.92062974297E+01  0.18914277142E+02  0.00000000000E+00 0.  1.
</event>
<event>
 7    1  0.5761011E-013  0.5930196E+02  0.7816164E-02  0.1266605E+00
        -11   -1    0    0    0    0  0.00000000000E+00  0.00000000000E+00  0.45593999997E+02  0.45594000000E+02  0.51100000000E-03 0. -1.
         11   -1    0    0    0    0 -0.00000000000E+00 -0.00000000000E+00 -0.45593999997E+02  0.45594000000E+02  0.51100000000E-03 0.  1.
    9900012    2    1    2    0    0 -0.13141600140E+02 -0.18762172038E+02  0.22181047012E+02  0.59301959161E+02  0.50000027600E+02 0.  0.
        -12    1    1    2    0    0  0.13141600140E+02  0.18762172038E+02 -0.22181047012E+02  0.31886040839E+02  0.00000000000E+00 0.  1.
         11    1    3    3    0    0 -0.27593161666E+02 -0.14749618070E+02  0.13850827271E+02  0.34216651214E+02  0.51100000000E-03 0. -1.
        -11    1    3    3    0    0  0.10229958891E+02  0.57404855856E+01  0.84500594035E+01  0.14457134497E+02  0.51100000000E-03 0.  1.
         12    1    3    3    0    0  0.42216026352E+01 -0.97530395537E+01 -0.11983966292E+00  0.10628173450E+02  0.00000000000E+00 0. -1.
</event>
<event>
 7    1  0.5761011E-013  0.5930192E+02  0.7816164E-02  0.1266605E+00
        -11   -1    0    0    0    0  0.00000000000E+00  0.00000000000E+00  0.45593999997E+02  0.45594000000E+02  0.51100000000E-03 0. -1.
         11   -1    0    0    0    0 -0.00000000000E+00 -0.00000000000E+00 -0.45593999997E+02  0.45594000000E+02  0.51100000000E-03 0.  1.
    9900012    2    1    2    0    0 -0.18900528767E+02  0.25566327412E+02  0.24196562133E+01  0.59301924337E+02  0.49999964088E+02 0.  0.
        -12    1    1    2    0    0  0.18900528767E+02 -0.25566327412E+02 -0.24196562133E+01  0.31886075663E+02  0.00000000000E+00 0.  1.
         11    1    3    3    0    0 -0.11992567122E+02  0.38203296294E+02  0.10520010785E+02  0.41400291558E+02  0.51100000000E-03 0. -1.
        -11    1    3    3    0    0 -0.20470966285E+01 -0.10395095472E+02 -0.49953356017E+01  0.11713325425E+02  0.51100000000E-03 0.  1.
         12    1    3    3    0    0 -0.48608650171E+01 -0.22418734105E+01 -0.31050189700E+01  0.61883073539E+01  0.00000000000E+00 0. -1.
</event>
<event>
 7    1  0.5761011E-013  0.5930196E+02  0.7816164E-02  0.1266605E+00
        -11   -1    0    0    0    0  0.00000000000E+00  0.00000000000E+00  0.45593999997E+02  0.45594000000E+02  0.51100000000E-03 0. -1.
         11   -1    0    0    0    0 -0.00000000000E+00 -0.00000000000E+00 -0.45593999997E+02  0.45594000000E+02  0.51100000000E-03 0.  1.
    9900012    2    1    2    0    0  0.43712072854E+00  0.10165378265E+02  0.30219096508E+02  0.59301956289E+02  0.50000022361E+02 0.  0.
        -12    1    1    2    0    0 -0.43712072854E+00 -0.10165378265E+02 -0.30219096508E+02  0.31886043711E+02  0.00000000000E+00 0.  1.
         11    1    3    3    0    0  0.19949624658E+02  0.92277079826E+01  0.24275497212E+02  0.32748097407E+02  0.51100000000E-03 0. -1.
        -11    1    3    3    0    0 -0.75018898791E+01  0.78369916087E+01 -0.12940322132E+01  0.10925717773E+02  0.51100000000E-03 0.  1.
         12    1    3    3    0    0 -0.12010614051E+02 -0.68993213264E+01  0.72376315095E+01  0.15628141109E+02  0.00000000000E+00 0. -1.
</event>
<event>
 7    1  0.5761011E-013  0.5930166E+02  0.7816164E-02  0.1266606E+00
        -11   -1    0    0    0    0  0.00000000000E+00  0.00000000000E+00  0.45593999997E+02  0.45594000000E+02  0.51100000000E-03 0.  1.
         11   -1    0    0    0    0 -0.00000000000E+00 -0.00000000000E+00 -0.45593999997E+02  0.45594000000E+02  0.51100000000E-03 0. -1.
    9900012    2    1    2    0    0  0.92452842069E+01  0.22585028362E+02 -0.20522671057E+02  0.59301657885E+02  0.49999478141E+02 0.  0.
        -12    1    1    2    0    0 -0.92452842069E+01 -0.22585028362E+02  0.20522671057E+02  0.31886342115E+02  0.00000000000E+00 0.  1.
         11    1    3    3    0    0  0.13381229083E+02  0.38732632701E+01 -0.11421760354E+02  0.18014329573E+02  0.51100000000E-03 0. -1.
        -11    1    3    3    0    0 -0.62232772453E+01  0.28521515020E+02 -0.25405629128E+01  0.29302908710E+02  0.51100000000E-03 0.  1.
        -12    1    3    3    0    0  0.20873323688E+01 -0.98097499275E+01 -0.65603477902E+01  0.11984419602E+02  0.00000000000E+00 0.  1.
</event>
<event>
 7    1  0.5761011E-013  0.5930198E+02  0.7816164E-02  0.1266605E+00
        -11   -1    0    0    0    0  0.00000000000E+00  0.00000000000E+00  0.45593999997E+02  0.45594000000E+02  0.51100000000E-03 0. -1.
         11   -1    0    0    0    0 -0.00000000000E+00 -0.00000000000E+00 -0.45593999997E+02  0.45594000000E+02  0.51100000000E-03 0.  1.
    9900012    2    1    2    0    0 -0.21536358966E+02  0.22586323669E+02 -0.65392419847E+01  0.59301977042E+02  0.50000060210E+02 0.  0.
        -12    1    1    2    0    0  0.21536358966E+02 -0.22586323669E+02  0.65392419847E+01  0.31886022958E+02  0.00000000000E+00 0.  1.
         11    1    3    3    0    0 -0.20999085494E+02  0.17099243470E+02  0.76970134793E+01  0.28152970280E+02  0.51100000000E-03 0. -1.
        -11    1    3    3    0    0  0.77109678989E+00 -0.92575202811E+01 -0.13423182840E+02  0.16324157247E+02  0.51100000000E-03 0.  1.
        -12    1    3    3    0    0 -0.13083702613E+01  0.14744600479E+02 -0.81307262438E+00  0.14824849514E+02  0.00000000000E+00 0.  1.
</event>
<event>
 7    1  0.5761011E-013  0.5930194E+02  0.7816164E-02  0.1266605E+00
        -11   -1    0    0    0    0  0.00000000000E+00  0.00000000000E+00  0.45593999997E+02  0.45594000000E+02  0.51100000000E-03 0. -1.
         11   -1    0    0    0    0 -0.00000000000E+00 -0.00000000000E+00 -0.45593999997E+02  0.45594000000E+02  0.51100000000E-03 0.  1.
    9900012    2    1    2    0    0  0.83583090981E+01 -0.29365873610E+02  0.91926473092E+01  0.59301943041E+02  0.49999998200E+02 0.  0.
        -12    1    1    2    0    0 -0.83583090981E+01  0.29365873610E+02 -0.91926473092E+01  0.31886056959E+02  0.00000000000E+00 0.  1.
         11    1    3    3    0    0 -0.69015390419E+01 -0.70492219221E+01  0.12036927549E+01  0.99383925945E+01  0.51100000000E-03 0. -1.
        -11    1    3    3    0    0  0.68733401577E+01  0.11734960833E+02  0.31762680534E+01  0.13965700472E+02  0.51100000000E-03 0.  1.
        -12    1    3    3    0    0  0.83865079823E+01 -0.34051612521E+02  0.48126865009E+01  0.35397849974E+02  0.00000000000E+00 0.  1.
</event>
<event>
 7    1  0.5761011E-013  0.5930192E+02  0.7816164E-02  0.1266605E+00
        -11   -1    0    0    0    0  0.00000000000E+00  0.00000000000E+00  0.45593999997E+02  0.45594000000E+02  0.51100000000E-03 0. -1.
         11   -1    0    0    0    0 -0.00000000000E+00 -0.00000000000E+00 -0.45593999997E+02  0.45594000000E+02  0.51100000000E-03 0.  1.
    9900012    2    1    2    0    0 -0.28352816490E+02 -0.13083532934E+02 -0.64545339368E+01  0.59301920823E+02  0.49999957680E+02 0.  0.
        -12    1    1    2    0    0  0.28352816490E+02  0.13083532934E+02  0.64545339368E+01  0.31886079177E+02  0.00000000000E+00 0.  1.
         11    1    3    3    0    0 -0.13340199867E+01  0.35361208400E+01  0.16852209313E+02  0.17270805393E+02  0.51100000000E-03 0. -1.
        -11    1    3    3    0    0 -0.21871817463E+02 -0.18797427284E+02 -0.16507503262E+02  0.33229765810E+02  0.51100000000E-03 0.  1.
        -12    1    3    3    0    0 -0.51469790407E+01  0.21777735103E+01 -0.67992399883E+01  0.88013496195E+01  0.00000000000E+00 0.  1.
</event>
<event>
 7    1  0.5761011E-013  0.5930200E+02  0.7816164E-02  0.1266605E+00
        -11   -1    0    0    0    0  0.00000000000E+00  0.00000000000E+00  0.45593999997E+02  0.45594000000E+02  0.51100000000E-03 0.  1.
         11   -1    0    0    0    0 -0.00000000000E+00 -0.00000000000E+00 -0.45593999997E+02  0.45594000000E+02  0.51100000000E-03 0. -1.
    9900012    2    1    2    0    0  0.11966260224E+02  0.15202227978E+02 -0.25345961708E+02  0.59302001597E+02  0.50000104992E+02 0.  0.
        -12    1    1    2    0    0 -0.11966260224E+02 -0.15202227978E+02  0.25345961708E+02  0.31885998403E+02  0.00000000000E+00 0.  1.
         11    1    3    3    0    0  0.54099177172E+01 -0.12192242840E+02  0.73298064462E+01  0.15219857357E+02  0.51100000000E-03 0. -1.
        -11    1    3    3    0    0 -0.12415727140E+01  0.21284789310E+01 -0.64480996739E+00  0.25470974695E+01  0.51100000000E-03 0.  1.
         12    1    3    3    0    0  0.77979152212E+01  0.25265991887E+02 -0.32030958187E+02  0.41535046770E+02  0.00000000000E+00 0. -1.
</event>
<event>
 7    1  0.5761011E-013  0.5930191E+02  0.7816164E-02  0.1266605E+00
        -11   -1    0    0    0    0  0.00000000000E+00  0.00000000000E+00  0.45593999997E+02  0.45594000000E+02  0.51100000000E-03 0.  1.
         11   -1    0    0    0    0 -0.00000000000E+00 -0.00000000000E+00 -0.45593999997E+02  0.45594000000E+02  0.51100000000E-03 0. -1.
    9900012    2    1    2    0    0  0.20620916907E+02  0.15496475356E+02 -0.18744596962E+02  0.59301907768E+02  0.49999933871E+02 0.  0.
        -12    1    1    2    0    0 -0.20620916907E+02 -0.15496475356E+02  0.18744596962E+02  0.31886092232E+02  0.00000000000E+00 0.  1.
         11    1    3    3    0    0  0.16371983066E+02  0.97407944347E+01 -0.14776708476E+02  0.24109666514E+02  0.51100000000E-03 0. -1.
        -11    1    3    3    0    0  0.11293816098E+01  0.16456741701E+02  0.84263655762E+01  0.18523052862E+02  0.51100000000E-03 0.  1.
        -12    1    3    3    0    0  0.31195522313E+01 -0.10701060779E+02 -0.12394254062E+02  0.16669188393E+02  0.00000000000E+00 0.  1.
</event>
<event>
 7    1  0.5761011E-013  0.5930194E+02  0.7816164E-02  0.1266605E+00
        -11   -1    0    0    0    0  0.00000000000E+00  0.00000000000E+00  0.45593999997E+02  0.45594000000E+02  0.51100000000E-03 0. -1.
         11   -1    0    0    0    0 -0.00000000000E+00 -0.00000000000E+00 -0.45593999997E+02  0.45594000000E+02  0.51100000000E-03 0.  1.
    9900012    2    1    2    0    0  0.11667240951E+02 -0.21162030542E+01  0.29599290726E+02  0.59301939751E+02  0.49999992200E+02 0.  0.
        -12    1    1    2    0    0 -0.11667240951E+02  0.21162030542E+01 -0.29599290726E+02  0.31886060249E+02  0.00000000000E+00 0.  1.
         11    1    3    3    0    0  0.28237013244E+02  0.87433356718E+01  0.21913300485E+02  0.36796298374E+02  0.51100000000E-03 0. -1.
        -11    1    3    3    0    0 -0.77707941033E+01 -0.35478389085E+01 -0.30979991884E+00  0.85480043382E+01  0.51100000000E-03 0.  1.
         12    1    3    3    0    0 -0.87989781904E+01 -0.73116998175E+01  0.79957901599E+01  0.13957637038E+02  0.00000000000E+00 0. -1.
</event>
<event>
 7    1  0.5761011E-013  0.5930193E+02  0.7816164E-02  0.1266605E+00
        -11   -1    0    0    0    0  0.00000000000E+00  0.00000000000E+00  0.45593999997E+02  0.45594000000E+02  0.51100000000E-03 0. -1.
         11   -1    0    0    0    0 -0.00000000000E+00 -0.00000000000E+00 -0.45593999997E+02  0.45594000000E+02  0.51100000000E-03 0.  1.
    9900012    2    1    2    0    0  0.55409962677E+01 -0.23696444585E+02  0.20603329133E+02  0.59301932557E+02  0.49999979080E+02 0.  0.
        -12    1    1    2    0    0 -0.55409962677E+01  0.23696444585E+02 -0.20603329133E+02  0.31886067443E+02  0.00000000000E+00 0.  1.
         11    1    3    3    0    0 -0.18313488785E+01 -0.20394185755E+01  0.72476384700E+01  0.77486341050E+01  0.51100000000E-03 0. -1.
        -11    1    3    3    0    0  0.12373254051E+02  0.11101319572E+02  0.35927103155E+01  0.17007183180E+02  0.51100000000E-03 0.  1.
        -12    1    3    3    0    0 -0.50009089044E+01 -0.32758345582E+02  0.97629803472E+01  0.34546115272E+02  0.00000000000E+00 0.  1.
</event>
<event>
 7    1  0.5761011E-013  0.5930195E+02  0.7816164E-02  0.1266605E+00
        -11   -1    0    0    0    0  0.00000000000E+00  0.00000000000E+00  0.45593999997E+02  0.45594000000E+02  0.51100000000E-03 0. -1.
         11   -1    0    0    0    0 -0.00000000000E+00 -0.00000000000E+00 -0.45593999997E+02  0.45594000000E+02  0.51100000000E-03 0.  1.
    9900012    2    1    2    0    0  0.99139228825E+01 -0.26773697612E+02  0.14198701689E+02  0.59301954770E+02  0.50000019592E+02 0.  0.
        -12    1    1    2    0    0 -0.99139228825E+01  0.26773697612E+02 -0.14198701689E+02  0.31886045230E+02  0.00000000000E+00 0.  1.
         11    1    3    3    0    0 -0.17132083726E+02 -0.17235691726E+02  0.85438853355E+01  0.25759956113E+02  0.51100000000E-03 0. -1.
        -11    1    3    3    0    0  0.11710040402E+01 -0.44721523682E+01 -0.33184387324E+01  0.56906443527E+01  0.51100000000E-03 0.  1.
         12    1    3    3    0    0  0.25875002568E+02 -0.50658535177E+01  0.89732550858E+01  0.27851354304E+02  0.00000000000E+00 0. -1.
</event>
<event>
 7    1  0.5761011E-013  0.5930194E+02  0.7816164E-02  0.1266605E+00
        -11   -1    0    0    0    0  0.00000000000E+00  0.00000000000E+00  0.45593999997E+02  0.45594000000E+02  0.51100000000E-03 0.  1.
         11   -1    0    0    0    0 -0.00000000000E+00 -0.00000000000E+00 -0.45593999997E+02  0.45594000000E+02  0.51100000000E-03 0. -1.
    9900012    2    1    2    0    0  0.70022464007E+00 -0.22838627931E+02 -0.22240222760E+02  0.59301941154E+02  0.49999994759E+02 0.  0.
        -12    1    1    2    0    0 -0.70022464007E+00  0.22838627931E+02  0.22240222760E+02  0.31886058846E+02  0.00000000000E+00 0.  1.
         11    1    3    3    0    0 -0.32410471707E+01  0.44890062357E+01 -0.10550952513E+02  0.11915458990E+02  0.51100000000E-03 0. -1.
        -11    1    3    3    0    0 -0.86124097940E+01 -0.18658486638E+02  0.83660996767E+01  0.22187932534E+02  0.51100000000E-03 0.  1.
        -12    1    3    3    0    0  0.12553681605E+02 -0.86691475288E+01 -0.20055369924E+02  0.25198549631E+02  0.00000000000E+00 0.  1.
</event>
<event>
 7    1  0.5761011E-013  0.5930193E+02  0.7816164E-02  0.1266605E+00
        -11   -1    0    0    0    0  0.00000000000E+00  0.00000000000E+00  0.45593999997E+02  0.45594000000E+02  0.51100000000E-03 0.  1.
         11   -1    0    0    0    0 -0.00000000000E+00 -0.00000000000E+00 -0.45593999997E+02  0.45594000000E+02  0.51100000000E-03 0. -1.
    9900012    2    1    2    0    0  0.73897157502E+01  0.25226658032E+02 -0.18047973698E+02  0.59301928920E+02  0.49999972447E+02 0.  0.
        -12    1    1    2    0    0 -0.73897157502E+01 -0.25226658032E+02  0.18047973698E+02  0.31886071080E+02  0.00000000000E+00 0.  1.
         11    1    3    3    0    0  0.23275846156E+01  0.38931194779E+01 -0.15589195264E+01  0.47962756137E+01  0.51100000000E-03 0. -1.
        -11    1    3    3    0    0 -0.45521096234E+00  0.45758627436E+01  0.16481815351E+02  0.17111282079E+02  0.51100000000E-03 0.  1.
        -12    1    3    3    0    0  0.55173420970E+01  0.16757675810E+02 -0.32970869523E+02  0.37394371227E+02  0.00000000000E+00 0.  1.
</event>
<event>
 7    1  0.5761011E-013  0.5930190E+02  0.7816164E-02  0.1266605E+00
        -11   -1    0    0    0    0  0.00000000000E+00  0.00000000000E+00  0.45593999997E+02  0.45594000000E+02  0.51100000000E-03 0.  1.
         11   -1    0    0    0    0 -0.00000000000E+00 -0.00000000000E+00 -0.45593999997E+02  0.45594000000E+02  0.51100000000E-03 0. -1.
    9900012    2    1    2    0    0 -0.18176419338E+02 -0.24717548736E+02 -0.86823774283E+01  0.59301904076E+02  0.49999927138E+02 0.  0.
        -12    1    1    2    0    0  0.18176419338E+02  0.24717548736E+02  0.86823774283E+01  0.31886095924E+02  0.00000000000E+00 0.  1.
         11    1    3    3    0    0  0.46459918341E+01  0.14861150363E+01 -0.11802456267E+02  0.12770738124E+02  0.51100000000E-03 0. -1.
        -11    1    3    3    0    0 -0.29688446248E+02 -0.21781161030E+02 -0.20274147784E+01  0.36877272504E+02  0.51100000000E-03 0.  1.
        -12    1    3    3    0    0  0.68660350760E+01 -0.44225027421E+01  0.51474936172E+01  0.96538934481E+01  0.00000000000E+00 0.  1.
</event>
<event>
 7    1  0.5761011E-013  0.5930195E+02  0.7816164E-02  0.1266605E+00
        -11   -1    0    0    0    0  0.00000000000E+00  0.00000000000E+00  0.45593999997E+02  0.45594000000E+02  0.51100000000E-03 0.  1.
         11   -1    0    0    0    0 -0.00000000000E+00 -0.00000000000E+00 -0.45593999997E+02  0.45594000000E+02  0.51100000000E-03 0. -1.
    9900012    2    1    2    0    0 -0.93930446442E+01  0.20406932003E+02 -0.22628483085E+02  0.59301946494E+02  0.50000004498E+02 0.  0.
        -12    1    1    2    0    0  0.93930446442E+01 -0.20406932003E+02  0.22628483085E+02  0.31886053506E+02  0.00000000000E+00 0.  1.
         11    1    3    3    0    0 -0.25650114907E+01  0.57107176657E+01 -0.34587564410E+02  0.35149554652E+02  0.51100000000E-03 0. -1.
        -11    1    3    3    0    0  0.28823619127E+01  0.19309198583E+01  0.62116734644E+01  0.71148681776E+01  0.51100000000E-03 0.  1.
         12    1    3    3    0    0 -0.97103950662E+01  0.12765294479E+02  0.57474078606E+01  0.17037523664E+02  0.00000000000E+00 0. -1.
</event>
<event>
 7    1  0.5761011E-013  0.5930185E+02  0.7816164E-02  0.1266605E+00
        -11   -1    0    0    0    0  0.00000000000E+00  0.00000000000E+00  0.45593999997E+02  0.45594000000E+02  0.51100000000E-03 0.  1.
         11   -1    0    0    0    0 -0.00000000000E+00 -0.00000000000E+00 -0.45593999997E+02  0.45594000000E+02  0.51100000000E-03 0. -1.
    9900012    2    1    2    0    0  0.23057207482E+02  0.92476317377E+00 -0.22005381619E+02  0.59301845889E+02  0.49999821018E+02 0.  0.
        -12    1    1    2    0    0 -0.23057207482E+02 -0.92476317377E+00  0.22005381619E+02  0.31886154111E+02  0.00000000000E+00 0.  1.
         11    1    3    3    0    0  0.11849913995E+01 -0.68533812193E+01 -0.12012266693E+01  0.70580439590E+01  0.51100000000E-03 0. -1.
        -11    1    3    3    0    0  0.30435519030E+02  0.41842550668E+01 -0.14255939243E+01  0.30754855346E+02  0.51100000000E-03 0.  1.
        -12    1    3    3    0    0 -0.85633029474E+01  0.35938893263E+01 -0.19378561026E+02  0.21488946584E+02  0.00000000000E+00 0.  1.
</event>
<event>
 7    1  0.5761011E-013  0.5930194E+02  0.7816164E-02  0.1266605E+00
        -11   -1    0    0    0    0  0.00000000000E+00  0.00000000000E+00  0.45593999997E+02  0.45594000000E+02  0.51100000000E-03 0.  1.
         11   -1    0    0    0    0 -0.00000000000E+00 -0.00000000000E+00 -0.45593999997E+02  0.45594000000E+02  0.51100000000E-03 0. -1.
    9900012    2    1    2    0    0  0.10946629742E+02  0.23084984854E+02  0.19078147455E+02  0.59301938175E+02  0.49999989325E+02 0.  0.
        -12    1    1    2    0    0 -0.10946629742E+02 -0.23084984854E+02 -0.19078147455E+02  0.31886061825E+02  0.00000000000E+00 0.  1.
         11    1    3    3    0    0  0.20514949511E+02  0.11427056119E+02  0.30556180455E+02  0.38537266759E+02  0.51100000000E-03 0. -1.
        -11    1    3    3    0    0 -0.41892270098E+01  0.10680896103E+02 -0.57030535183E+01  0.12812337187E+02  0.51100000000E-03 0.  1.
         12    1    3    3    0    0 -0.53790927592E+01  0.97703263253E+00 -0.57749794817E+01  0.79523342291E+01  0.00000000000E+00 0. -1.
</event>
<event>
 7    1  0.5761011E-013  0.5930195E+02  0.7816164E-02  0.1266605E+00
        -11   -1    0    0    0    0  0.00000000000E+00  0.00000000000E+00  0.45593999997E+02  0.45594000000E+02  0.51100000000E-03 0. -1.
         11   -1    0    0    0    0 -0.00000000000E+00 -0.00000000000E+00 -0.45593999997E+02  0.45594000000E+02  0.51100000000E-03 0.  1.
    9900012    2    1    2    0    0 -0.31841141567E+02  0.16902059504E+01  0.71858632043E-01  0.59301948879E+02  0.50000008847E+02 0.  0.
        -12    1    1    2    0    0  0.31841141567E+02 -0.16902059504E+01 -0.71858632043E-01  0.31886051121E+02  0.00000000000E+00 0.  1.
         11    1    3    3    0    0 -0.52146986400E+01 -0.63845832478E+01  0.22092427899E+02  0.23580317129E+02  0.51100000000E-03 0. -1.
        -11    1    3    3    0    0 -0.12897526792E+02  0.56805868372E+01 -0.12559758442E+02  0.18877573905E+02  0.51100000000E-03 0.  1.
         12    1    3    3    0    0 -0.13728916135E+02  0.23942023609E+01 -0.94608108250E+01  0.16844057844E+02  0.00000000000E+00 0. -1.
</event>
<event>
 7    1  0.5761011E-013  0.5930193E+02  0.7816164E-02  0.1266605E+00
        -11   -1    0    0    0    0  0.00000000000E+00  0.00000000000E+00  0.45593999997E+02  0.45594000000E+02  0.51100000000E-03 0. -1.
         11   -1    0    0    0    0 -0.00000000000E+00 -0.00000000000E+00 -0.45593999997E+02  0.45594000000E+02  0.51100000000E-03 0.  1.
    9900012    2    1    2    0    0 -0.28563445350E+02 -0.14171103169E+02  0.17658389243E+00  0.59301925341E+02  0.49999965921E+02 0.  0.
        -12    1    1    2    0    0  0.28563445350E+02  0.14171103169E+02 -0.17658389243E+00  0.31886074659E+02  0.00000000000E+00 0.  1.
         11    1    3    3    0    0 -0.45324317775E-01 -0.17075564518E+02  0.11288050171E+02  0.20469417062E+02  0.51100000000E-03 0. -1.
        -11    1    3    3    0    0 -0.69619455532E+01  0.61771448008E+01 -0.14028322770E+02  0.16835071837E+02  0.51100000000E-03 0.  1.
         12    1    3    3    0    0 -0.21556175479E+02 -0.32726834509E+01  0.29168564910E+01  0.21997436442E+02  0.00000000000E+00 0. -1.
</event>
<event>
 7    1  0.5761011E-013  0.5930199E+02  0.7816164E-02  0.1266605E+00
        -11   -1    0    0    0    0  0.00000000000E+00  0.00000000000E+00  0.45593999997E+02  0.45594000000E+02  0.51100000000E-03 0.  1.
         11   -1    0    0    0    0 -0.00000000000E+00 -0.00000000000E+00 -0.45593999997E+02  0.45594000000E+02  0.51100000000E-03 0. -1.
    9900012    2    1    2    0    0  0.32232731910E+01  0.24499612948E+00 -0.31721726262E+02  0.59301993191E+02  0.50000089662E+02 0.  0.
        -12    1    1    2    0    0 -0.32232731910E+01 -0.24499612948E+00  0.31721726262E+02  0.31886006809E+02  0.00000000000E+00 0.  1.
         11    1    3    3    0    0  0.11694662866E+02 -0.15099409904E+02 -0.18937733640E+02  0.26896004809E+02  0.51100000000E-03 0. -1.
        -11    1    3    3    0    0 -0.40036147138E+01 -0.28977026578E+01  0.46458628125E+01  0.67830415746E+01  0.51100000000E-03 0.  1.
         12    1    3    3    0    0 -0.44677749616E+01  0.18242108691E+02 -0.17429855435E+02  0.25622946807E+02  0.00000000000E+00 0. -1.
</event>
<event>
 7    1  0.5761011E-013  0.5930194E+02  0.7816164E-02  0.1266605E+00
        -11   -1    0    0    0    0  0.00000000000E+00  0.00000000000E+00  0.45593999997E+02  0.45594000000E+02  0.51100000000E-03 0.  1.
         11   -1    0    0    0    0 -0.00000000000E+00 -0.00000000000E+00 -0.45593999997E+02  0.45594000000E+02  0.51100000000E-03 0. -1.
    9900012    2    1    2    0    0  0.12255860964E+02  0.23401527246E+02 -0.17857299393E+02  0.59301941181E+02  0.49999994808E+02 0.  0.
        -12    1    1    2    0    0 -0.12255860964E+02 -0.23401527246E+02  0.17857299393E+02  0.31886058819E+02  0.00000000000E+00 0.  1.
         11    1    3    3    0    0 -0.11739704072E+02  0.20143829193E+02 -0.12072188229E+01  0.23346346262E+02  0.51100000000E-03 0. -1.
        -11    1    3    3    0    0  0.17675315465E+02 -0.76514158292E+01 -0.10017815101E+02  0.21709849392E+02  0.51100000000E-03 0.  1.
         12    1    3    3    0    0  0.63202495708E+01  0.10909113883E+02 -0.66322654691E+01  0.14245745526E+02  0.00000000000E+00 0. -1.
</event>
<event>
 7    1  0.5761011E-013  0.5930195E+02  0.7816164E-02  0.1266605E+00
        -11   -1    0    0    0    0  0.00000000000E+00  0.00000000000E+00  0.45593999997E+02  0.45594000000E+02  0.51100000000E-03 0.  1.
         11   -1    0    0    0    0 -0.00000000000E+00 -0.00000000000E+00 -0.45593999997E+02  0.45594000000E+02  0.51100000000E-03 0. -1.
    9900012    2    1    2    0    0 -0.27358519177E+02 -0.57343287667E+01 -0.15341098893E+02  0.59301946415E+02  0.50000004354E+02 0.  0.
        -12    1    1    2    0    0  0.27358519177E+02  0.57343287667E+01  0.15341098893E+02  0.31886053585E+02  0.00000000000E+00 0.  1.
         11    1    3    3    0    0 -0.57379823062E+01 -0.43133456756E+01 -0.15431670995E+02  0.17019572904E+02  0.51100000000E-03 0. -1.
        -11    1    3    3    0    0 -0.13258693971E+02  0.13131236445E+02  0.11562719577E+02  0.21952649514E+02  0.51100000000E-03 0.  1.
        -12    1    3    3    0    0 -0.83618429002E+01 -0.14552219536E+02 -0.11472147475E+02  0.20329723997E+02  0.00000000000E+00 0.  1.
</event>
<event>
 7    1  0.5761011E-013  0.5930193E+02  0.7816164E-02  0.1266605E+00
        -11   -1    0    0    0    0  0.00000000000E+00  0.00000000000E+00  0.45593999997E+02  0.45594000000E+02  0.51100000000E-03 0.  1.
         11   -1    0    0    0    0 -0.00000000000E+00 -0.00000000000E+00 -0.45593999997E+02  0.45594000000E+02  0.51100000000E-03 0. -1.
    9900012    2    1    2    0    0  0.15504624499E+02 -0.23104124905E+02  0.15573290087E+02  0.59301931998E+02  0.49999978061E+02 0.  0.
        -12    1    1    2    0    0 -0.15504624499E+02  0.23104124905E+02 -0.15573290087E+02  0.31886068002E+02  0.00000000000E+00 0.  1.
         11    1    3    3    0    0 -0.47875074985E+01  0.58265216797E+01 -0.12309684534E+01  0.76409336161E+01  0.51100000000E-03 0. -1.
        -11    1    3    3    0    0  0.28034154995E+02 -0.28423467693E+02  0.95712860640E+01  0.41053829044E+02  0.51100000000E-03 0.  1.
        -12    1    3    3    0    0 -0.77420229975E+01 -0.50717889216E+00  0.72329724762E+01  0.10607169338E+02  0.00000000000E+00 0.  1.
</event>
<event>
 7    1  0.5761011E-013  0.5930193E+02  0.7816164E-02  0.1266605E+00
        -11   -1    0    0    0    0  0.00000000000E+00  0.00000000000E+00  0.45593999997E+02  0.45594000000E+02  0.51100000000E-03 0.  1.
         11   -1    0    0    0    0 -0.00000000000E+00 -0.00000000000E+00 -0.45593999997E+02  0.45594000000E+02  0.51100000000E-03 0. -1.
    9900012    2    1    2    0    0  0.24249847393E+02 -0.16174125461E+02  0.12925316325E+02  0.59301933527E+02  0.49999980849E+02 0.  0.
        -12    1    1    2    0    0 -0.24249847393E+02  0.16174125461E+02 -0.12925316325E+02  0.31886066473E+02  0.00000000000E+00 0.  1.
         11    1    3    3    0    0  0.12158375402E+02 -0.19861815991E+02 -0.44239101949E+01  0.23704193902E+02  0.51100000000E-03 0. -1.
        -11    1    3    3    0    0  0.19125960570E+02  0.95673667736E+01  0.15036049005E+02  0.26142296086E+02  0.51100000000E-03 0.  1.
        -12    1    3    3    0    0 -0.70344885792E+01 -0.58796762438E+01  0.23131775149E+01  0.94554435389E+01  0.00000000000E+00 0.  1.
</event>
<event>
 7    1  0.6625837E-013  0.5930191E+02  0.7816164E-02  0.1266605E+00
        -11   -1    0    0    0    0  0.00000000000E+00  0.00000000000E+00  0.45593999997E+02  0.45594000000E+02  0.51100000000E-03 0.  1.
         11   -1    0    0    0    0 -0.00000000000E+00 -0.00000000000E+00 -0.45593999997E+02  0.45594000000E+02  0.51100000000E-03 0. -1.
    9900012    2    1    2    0    0  0.13886668528E+02 -0.27043635750E+02 -0.96189735542E+01  0.59301914483E+02  0.49999946118E+02 0.  0.
        -12    1    1    2    0    0 -0.13886668528E+02  0.27043635750E+02  0.96189735542E+01  0.31886085517E+02  0.00000000000E+00 0.  1.
         11    1    3    3    0    0 -0.10047907780E+02 -0.24167087147E+02 -0.11801434015E+02  0.28710318650E+02  0.51100000000E-03 0. -1.
        -11    1    3    3    0    0  0.49205295290E+01  0.69450286010E+01 -0.20994345507E+01  0.87665648237E+01  0.51100000000E-03 0.  1.
         12    1    3    3    0    0  0.19014046779E+02 -0.98215772035E+01  0.42818950112E+01  0.21825031009E+02  0.00000000000E+00 0. -1.
</event>
<event>
 7    1  0.5761011E-013  0.5930196E+02  0.7816164E-02  0.1266605E+00
        -11   -1    0    0    0    0  0.00000000000E+00  0.00000000000E+00  0.45593999997E+02  0.45594000000E+02  0.51100000000E-03 0.  1.
         11   -1    0    0    0    0 -0.00000000000E+00 -0.00000000000E+00 -0.45593999997E+02  0.45594000000E+02  0.51100000000E-03 0. -1.
    9900012    2    1    2    0    0 -0.11720351577E+02 -0.20660050875E+02 -0.21272404973E+02  0.59301959848E+02  0.50000028853E+02 0.  0.
        -12    1    1    2    0    0  0.11720351577E+02  0.20660050875E+02  0.21272404973E+02  0.31886040152E+02  0.00000000000E+00 0.  1.
         11    1    3    3    0    0 -0.71909223424E+01 -0.13293314855E+02 -0.24093852532E+01  0.15304467371E+02  0.51100000000E-03 0. -1.
        -11    1    3    3    0    0  0.76425407237E+01  0.72178361822E+01  0.64620698044E+01  0.12339527312E+02  0.51100000000E-03 0.  1.
        -12    1    3    3    0    0 -0.12171969958E+02 -0.14584572203E+02 -0.25325089524E+02  0.31657965165E+02  0.00000000000E+00 0.  1.
</event>
<event>
 7    1  0.5761011E-013  0.5930193E+02  0.7816164E-02  0.1266605E+00
        -11   -1    0    0    0    0  0.00000000000E+00  0.00000000000E+00  0.45593999997E+02  0.45594000000E+02  0.51100000000E-03 0. -1.
         11   -1    0    0    0    0 -0.00000000000E+00 -0.00000000000E+00 -0.45593999997E+02  0.45594000000E+02  0.51100000000E-03 0.  1.
    9900012    2    1    2    0    0  0.22158105359E+01  0.27278613900E+02 -0.16361195121E+02  0.59301932534E+02  0.49999979038E+02 0.  0.
        -12    1    1    2    0    0 -0.22158105359E+01 -0.27278613900E+02  0.16361195121E+02  0.31886067466E+02  0.00000000000E+00 0.  1.
         11    1    3    3    0    0  0.60674925102E+01  0.91767067073E+01 -0.20260485128E+02  0.23054580223E+02  0.51100000000E-03 0.  1.
        -11    1    3    3    0    0 -0.14001422561E+02  0.16944714440E+02  0.10213495503E+02  0.24237959317E+02  0.51100000000E-03 0. -1.
         12    1    3    3    0    0  0.10149740587E+02  0.11571927526E+01 -0.63142054964E+01  0.12009392994E+02  0.00000000000E+00 0. -1.
</event>
<event>
 7    1  0.5761011E-013  0.5930197E+02  0.7816164E-02  0.1266605E+00
        -11   -1    0    0    0    0  0.00000000000E+00  0.00000000000E+00  0.45593999997E+02  0.45594000000E+02  0.51100000000E-03 0.  1.
         11   -1    0    0    0    0 -0.00000000000E+00 -0.00000000000E+00 -0.45593999997E+02  0.45594000000E+02  0.51100000000E-03 0. -1.
    9900012    2    1    2    0    0 -0.25718513015E+02 -0.14441716612E+02  0.12112556965E+02  0.59301966589E+02  0.50000041147E+02 0.  0.
        -12    1    1    2    0    0  0.25718513015E+02  0.14441716612E+02 -0.12112556965E+02  0.31886033411E+02  0.00000000000E+00 0.  1.
         11    1    3    3    0    0  0.89537524431E+01 -0.57977930209E+01  0.73728853534E+01  0.12967016828E+02  0.51100000000E-03 0. -1.
        -11    1    3    3    0    0 -0.28300842428E+02  0.45904888903E+01 -0.44424068065E+01  0.29012846273E+02  0.51100000000E-03 0.  1.
        -12    1    3    3    0    0 -0.63714230303E+01 -0.13234412482E+02  0.91820784184E+01  0.17322103488E+02  0.00000000000E+00 0.  1.
</event>
<event>
 7    1  0.5761011E-013  0.5930198E+02  0.7816164E-02  0.1266605E+00
        -11   -1    0    0    0    0  0.00000000000E+00  0.00000000000E+00  0.45593999997E+02  0.45594000000E+02  0.51100000000E-03 0. -1.
         11   -1    0    0    0    0 -0.00000000000E+00 -0.00000000000E+00 -0.45593999997E+02  0.45594000000E+02  0.51100000000E-03 0.  1.
    9900012    2    1    2    0    0 -0.31133720418E+02 -0.68312187824E+01 -0.86250319656E+00  0.59301984117E+02  0.50000073113E+02 0.  0.
        -12    1    1    2    0    0  0.31133720418E+02  0.68312187824E+01  0.86250319656E+00  0.31886015883E+02  0.00000000000E+00 0.  1.
         11    1    3    3    0    0  0.33571416963E+01  0.15537648551E+02 -0.60553933307E+01  0.17010488280E+02  0.51100000000E-03 0.  1.
        -11    1    3    3    0    0 -0.27431976827E+02 -0.13643722458E+02  0.24328026651E+01  0.30734069763E+02  0.51100000000E-03 0. -1.
        -12    1    3    3    0    0 -0.70588852877E+01 -0.87251448758E+01  0.27600874690E+01  0.11557426074E+02  0.00000000000E+00 0.  1.
</event>
<event>
 7    1  0.5761011E-013  0.5930196E+02  0.7816164E-02  0.1266605E+00
        -11   -1    0    0    0    0  0.00000000000E+00  0.00000000000E+00  0.45593999997E+02  0.45594000000E+02  0.51100000000E-03 0. -1.
         11   -1    0    0    0    0 -0.00000000000E+00 -0.00000000000E+00 -0.45593999997E+02  0.45594000000E+02  0.51100000000E-03 0.  1.
    9900012    2    1    2    0    0  0.12131601538E+02 -0.26257547790E+01  0.29370894674E+02  0.59301956062E+02  0.50000021947E+02 0.  0.
        -12    1    1    2    0    0 -0.12131601538E+02  0.26257547790E+01 -0.29370894674E+02  0.31886043938E+02  0.00000000000E+00 0.  1.
         11    1    3    3    0    0  0.22310529004E+02 -0.14793571790E+01  0.16042998463E+02  0.27519556720E+02  0.51100000000E-03 0.  1.
        -11    1    3    3    0    0 -0.50081862909E+01 -0.37193561196E+01 -0.77378270665E+01  0.99392911136E+01  0.51100000000E-03 0. -1.
        -12    1    3    3    0    0 -0.51707411751E+01  0.25729585196E+01  0.21065723278E+02  0.21843108229E+02  0.00000000000E+00 0.  1.
</event>
<event>
 7    1  0.5761011E-013  0.5930188E+02  0.7816164E-02  0.1266605E+00
        -11   -1    0    0    0    0  0.00000000000E+00  0.00000000000E+00  0.45593999997E+02  0.45594000000E+02  0.51100000000E-03 0.  1.
         11   -1    0    0    0    0 -0.00000000000E+00 -0.00000000000E+00 -0.45593999997E+02  0.45594000000E+02  0.51100000000E-03 0. -1.
    9900012    2    1    2    0    0 -0.17541619224E+02  0.11885630768E+02 -0.23827457778E+02  0.59301884403E+02  0.49999891258E+02 0.  0.
        -12    1    1    2    0    0  0.17541619224E+02 -0.11885630768E+02  0.23827457778E+02  0.31886115597E+02  0.00000000000E+00 0.  1.
         11    1    3    3    0    0  0.65970147727E+01 -0.49004763655E+01 -0.23945572624E+02  0.25316510840E+02  0.51100000000E-03 0. -1.
        -11    1    3    3    0    0 -0.15335608111E+00  0.51644735328E+01  0.46490711065E+01  0.69504796506E+01  0.51100000000E-03 0.  1.
         12    1    3    3    0    0 -0.23985277916E+02  0.11621633601E+02 -0.45309562596E+01  0.27034893912E+02  0.00000000000E+00 0. -1.
</event>
<event>
 7    1  0.5761011E-013  0.5930195E+02  0.7816164E-02  0.1266605E+00
        -11   -1    0    0    0    0  0.00000000000E+00  0.00000000000E+00  0.45593999997E+02  0.45594000000E+02  0.51100000000E-03 0.  1.
         11   -1    0    0    0    0 -0.00000000000E+00 -0.00000000000E+00 -0.45593999997E+02  0.45594000000E+02  0.51100000000E-03 0. -1.
    9900012    2    1    2    0    0  0.31888394208E+01  0.20896268088E+02 -0.23872521157E+02  0.59301953158E+02  0.50000016651E+02 0.  0.
        -12    1    1    2    0    0 -0.31888394208E+01 -0.20896268088E+02  0.23872521157E+02  0.31886046842E+02  0.00000000000E+00 0.  1.
         11    1    3    3    0    0 -0.17343590048E+02  0.18870210963E+02 -0.84403400820E+01  0.26983778803E+02  0.51100000000E-03 0. -1.
        -11    1    3    3    0    0  0.91671842902E+01  0.53337478187E+01  0.24387241955E+01  0.10882716093E+02  0.51100000000E-03 0.  1.
         12    1    3    3    0    0  0.11365245179E+02 -0.33076906936E+01 -0.17870905270E+02  0.21435458261E+02  0.00000000000E+00 0. -1.
</event>
<event>
 7    1  0.5761011E-013  0.5930201E+02  0.7816164E-02  0.1266605E+00
        -11   -1    0    0    0    0  0.00000000000E+00  0.00000000000E+00  0.45593999997E+02  0.45594000000E+02  0.51100000000E-03 0.  1.
         11   -1    0    0    0    0 -0.00000000000E+00 -0.00000000000E+00 -0.45593999997E+02  0.45594000000E+02  0.51100000000E-03 0. -1.
    9900012    2    1    2    0    0 -0.17701290372E+02  0.16274824994E+00 -0.26520830835E+02  0.59302005645E+02  0.50000112375E+02 0.  0.
        -12    1    1    2    0    0  0.17701290372E+02 -0.16274824994E+00  0.26520830835E+02  0.31885994355E+02  0.00000000000E+00 0.  1.
         11    1    3    3    0    0 -0.63847484576E+01 -0.54579137003E+01 -0.58393512698E+01  0.10229949088E+02  0.51100000000E-03 0. -1.
        -11    1    3    3    0    0 -0.58136498839E+01  0.18016210701E+02  0.53906194231E+01  0.19683524862E+02  0.51100000000E-03 0.  1.
        -12    1    3    3    0    0 -0.55028920304E+01 -0.12395548750E+02 -0.26072098988E+02  0.29388531695E+02  0.00000000000E+00 0.  1.
</event>
<event>
 7    1  0.5761011E-013  0.5930195E+02  0.7816164E-02  0.1266605E+00
        -11   -1    0    0    0    0  0.00000000000E+00  0.00000000000E+00  0.45593999997E+02  0.45594000000E+02  0.51100000000E-03 0. -1.
         11   -1    0    0    0    0 -0.00000000000E+00 -0.00000000000E+00 -0.45593999997E+02  0.45594000000E+02  0.51100000000E-03 0.  1.
    9900012    2    1    2    0    0 -0.18134353076E+02  0.10343309229E+02  0.24101475616E+02  0.59301953927E+02  0.50000018054E+02 0.  0.
        -12    1    1    2    0    0  0.18134353076E+02 -0.10343309229E+02 -0.24101475616E+02  0.31886046073E+02  0.00000000000E+00 0.  1.
         11    1    3    3    0    0 -0.75859887925E+01  0.10379676231E+02  0.22722312375E+02  0.26107247740E+02  0.51100000000E-03 0. -1.
        -11    1    3    3    0    0  0.88583944085E+01  0.65939659302E+01 -0.44006114792E+01  0.11887679329E+02  0.51100000000E-03 0.  1.
         12    1    3    3    0    0 -0.19406758692E+02 -0.66303329322E+01  0.57797747205E+01  0.21307026858E+02  0.00000000000E+00 0. -1.
</event>
<event>
 7    1  0.5761011E-013  0.5930191E+02  0.7816164E-02  0.1266605E+00
        -11   -1    0    0    0    0  0.00000000000E+00  0.00000000000E+00  0.45593999997E+02  0.45594000000E+02  0.51100000000E-03 0. -1.
         11   -1    0    0    0    0 -0.00000000000E+00 -0.00000000000E+00 -0.45593999997E+02  0.45594000000E+02  0.51100000000E-03 0.  1.
    9900012    2    1    2    0    0 -0.16620138458E+02 -0.24737326097E+02  0.11338359541E+02  0.59301910527E+02  0.49999938903E+02 0.  0.
        -12    1    1    2    0    0  0.16620138458E+02  0.24737326097E+02 -0.11338359541E+02  0.31886089473E+02  0.00000000000E+00 0.  1.
         11    1    3    3    0    0  0.13650156143E+01 -0.13278675161E+02  0.27000678475E+02  0.30120144755E+02  0.51100000000E-03 0. -1.
        -11    1    3    3    0    0 -0.11162053887E+02 -0.13459034544E+02 -0.11745296769E+02  0.21063927798E+02  0.51100000000E-03 0.  1.
         12    1    3    3    0    0 -0.68231001858E+01  0.20003836083E+01 -0.39170221657E+01  0.81178379740E+01  0.00000000000E+00 0. -1.
</event>
<event>
 7    1  0.5761011E-013  0.5930193E+02  0.7816164E-02  0.1266605E+00
        -11   -1    0    0    0    0  0.00000000000E+00  0.00000000000E+00  0.45593999997E+02  0.45594000000E+02  0.51100000000E-03 0.  1.
         11   -1    0    0    0    0 -0.00000000000E+00 -0.00000000000E+00 -0.45593999997E+02  0.45594000000E+02  0.51100000000E-03 0. -1.
    9900012    2    1    2    0    0  0.85077745930E+01  0.30467966856E+02  0.40053001687E+01  0.59301926828E+02  0.49999968633E+02 0.  0.
        -12    1    1    2    0    0 -0.85077745930E+01 -0.30467966856E+02 -0.40053001687E+01  0.31886073172E+02  0.00000000000E+00 0.  1.
         11    1    3    3    0    0  0.15944295221E+02  0.31588909590E+02  0.50879720610E+01  0.35748667376E+02  0.51100000000E-03 0. -1.
        -11    1    3    3    0    0 -0.13449409954E+02 -0.18370681725E+01  0.54664943604E+01  0.14633660118E+02  0.51100000000E-03 0.  1.
        -12    1    3    3    0    0  0.60128893265E+01  0.71612543844E+00 -0.65491662527E+01  0.89195993352E+01  0.00000000000E+00 0.  1.
</event>
<event>
 7    1  0.5761011E-013  0.5930205E+02  0.7816164E-02  0.1266604E+00
        -11   -1    0    0    0    0  0.00000000000E+00  0.00000000000E+00  0.45593999997E+02  0.45594000000E+02  0.51100000000E-03 0. -1.
         11   -1    0    0    0    0 -0.00000000000E+00 -0.00000000000E+00 -0.45593999997E+02  0.45594000000E+02  0.51100000000E-03 0.  1.
    9900012    2    1    2    0    0 -0.28004901926E+02  0.32430292459E+01 -0.14897048994E+02  0.59302049500E+02  0.50000192356E+02 0.  0.
        -12    1    1    2    0    0  0.28004901926E+02 -0.32430292459E+01  0.14897048994E+02  0.31885950500E+02  0.00000000000E+00 0.  1.
         11    1    3    3    0    0 -0.32939403167E+02 -0.14679749991E+02 -0.32432715954E+01  0.36207984640E+02  0.51100000000E-03 0. -1.
        -11    1    3    3    0    0  0.41063882116E+01  0.60708551007E+01 -0.15351564506E+01  0.74882849430E+01  0.51100000000E-03 0.  1.
         12    1    3    3    0    0  0.82811302907E+00  0.11851924137E+02 -0.10118620948E+02  0.15605779917E+02  0.00000000000E+00 0. -1.
</event>
<event>
 7    1  0.5761011E-013  0.5930192E+02  0.7816164E-02  0.1266605E+00
        -11   -1    0    0    0    0  0.00000000000E+00  0.00000000000E+00  0.45593999997E+02  0.45594000000E+02  0.51100000000E-03 0.  1.
         11   -1    0    0    0    0 -0.00000000000E+00 -0.00000000000E+00 -0.45593999997E+02  0.45594000000E+02  0.51100000000E-03 0. -1.
    9900012    2    1    2    0    0 -0.12198148101E+02  0.27090714599E+01 -0.29335779490E+02  0.59301923986E+02  0.49999963449E+02 0.  0.
        -12    1    1    2    0    0  0.12198148101E+02 -0.27090714599E+01  0.29335779490E+02  0.31886076014E+02  0.00000000000E+00 0.  1.
         11    1    3    3    0    0  0.76867776421E+01  0.17254501700E+02 -0.23854679960E+02  0.30427785587E+02  0.51100000000E-03 0. -1.
        -11    1    3    3    0    0 -0.20580072687E+02 -0.12451091912E+02 -0.81632100436E+01  0.25400926757E+02  0.51100000000E-03 0.  1.
         12    1    3    3    0    0  0.69514694438E+00 -0.20943383282E+01  0.26821105135E+01  0.34732116425E+01  0.00000000000E+00 0. -1.
</event>
<event>
 7    1  0.5761011E-013  0.5930190E+02  0.7816164E-02  0.1266605E+00
        -11   -1    0    0    0    0  0.00000000000E+00  0.00000000000E+00  0.45593999997E+02  0.45594000000E+02  0.51100000000E-03 0. -1.
         11   -1    0    0    0    0 -0.00000000000E+00 -0.00000000000E+00 -0.45593999997E+02  0.45594000000E+02  0.51100000000E-03 0.  1.
    9900012    2    1    2    0    0  0.30066994655E+02 -0.14858577811E+01  0.10511484341E+02  0.59301902026E+02  0.49999923399E+02 0.  0.
        -12    1    1    2    0    0 -0.30066994655E+02  0.14858577811E+01 -0.10511484341E+02  0.31886097974E+02  0.00000000000E+00 0.  1.
         11    1    3    3    0    0  0.35179319588E+02  0.26152542117E-01  0.18749506006E+02  0.39863883233E+02  0.51100000000E-03 0. -1.
        -11    1    3    3    0    0 -0.58411298229E+01 -0.46165163019E+01 -0.12236574823E+02  0.14323574415E+02  0.51100000000E-03 0.  1.
         12    1    3    3    0    0  0.72880488973E+00  0.31045059787E+01  0.39985531579E+01  0.51144443780E+01  0.00000000000E+00 0. -1.
</event>
<event>
 7    1  0.5761011E-013  0.5930197E+02  0.7816164E-02  0.1266605E+00
        -11   -1    0    0    0    0  0.00000000000E+00  0.00000000000E+00  0.45593999997E+02  0.45594000000E+02  0.51100000000E-03 0.  1.
         11   -1    0    0    0    0 -0.00000000000E+00 -0.00000000000E+00 -0.45593999997E+02  0.45594000000E+02  0.51100000000E-03 0. -1.
    9900012    2    1    2    0    0 -0.10330966508E+02  0.69956033956E+01 -0.29343676106E+02  0.59301973856E+02  0.50000054400E+02 0.  0.
        -12    1    1    2    0    0  0.10330966508E+02 -0.69956033956E+01  0.29343676106E+02  0.31886026144E+02  0.00000000000E+00 0.  1.
         11    1    3    3    0    0  0.91659554973E+01  0.18321123823E+02 -0.15198635820E+02  0.25508368222E+02  0.51100000000E-03 0.  1.
        -11    1    3    3    0    0 -0.11196929375E+02  0.80660780243E+00 -0.15381169085E+02  0.19042116644E+02  0.51100000000E-03 0. -1.
         12    1    3    3    0    0 -0.82999926301E+01 -0.12132128229E+02  0.12361287990E+01  0.14751488991E+02  0.00000000000E+00 0. -1.
</event>
<event>
 7    1  0.5761011E-013  0.5930195E+02  0.7816164E-02  0.1266605E+00
        -11   -1    0    0    0    0  0.00000000000E+00  0.00000000000E+00  0.45593999997E+02  0.45594000000E+02  0.51100000000E-03 0. -1.
         11   -1    0    0    0    0 -0.00000000000E+00 -0.00000000000E+00 -0.45593999997E+02  0.45594000000E+02  0.51100000000E-03 0.  1.
    9900012    2    1    2    0    0  0.43270342909E+01  0.29206346369E+02  0.12041035296E+02  0.59301946230E+02  0.50000004017E+02 0.  0.
        -12    1    1    2    0    0 -0.43270342909E+01 -0.29206346369E+02 -0.12041035296E+02  0.31886053770E+02  0.00000000000E+00 0.  1.
         11    1    3    3    0    0 -0.14450560785E+02  0.37988453718E+01  0.32903152115E+01  0.15299545994E+02  0.51100000000E-03 0. -1.
        -11    1    3    3    0    0  0.14720335673E+02 -0.15976396322E+01  0.76637691583E+01  0.16672555074E+02  0.51100000000E-03 0.  1.
         12    1    3    3    0    0  0.40572594032E+01  0.27005140630E+02  0.10869509264E+01  0.27329845163E+02  0.00000000000E+00 0. -1.
</event>
<event>
 7    1  0.5761011E-013  0.5930195E+02  0.7816164E-02  0.1266605E+00
        -11   -1    0    0    0    0  0.00000000000E+00  0.00000000000E+00  0.45593999997E+02  0.45594000000E+02  0.51100000000E-03 0.  1.
         11   -1    0    0    0    0 -0.00000000000E+00 -0.00000000000E+00 -0.45593999997E+02  0.45594000000E+02  0.51100000000E-03 0. -1.
    9900012    2    1    2    0    0 -0.20409621942E+02  0.16943934887E+02 -0.17693802808E+02  0.59301948894E+02  0.50000008876E+02 0.  0.
        -12    1    1    2    0    0  0.20409621942E+02 -0.16943934887E+02  0.17693802808E+02  0.31886051106E+02  0.00000000000E+00 0.  1.
         11    1    3    3    0    0  0.58396835294E+01  0.13351803310E+01 -0.71980009404E+01  0.93646050658E+01  0.51100000000E-03 0. -1.
        -11    1    3    3    0    0 -0.30532586097E+02  0.84334822588E+00 -0.14843953946E+02  0.33960168124E+02  0.51100000000E-03 0.  1.
        -12    1    3    3    0    0  0.42832806253E+01  0.14765406330E+02  0.43481520774E+01  0.15977175705E+02  0.00000000000E+00 0.  1.
</event>
<event>
 7    1  0.5761011E-013  0.5930203E+02  0.7816164E-02  0.1266604E+00
        -11   -1    0    0    0    0  0.00000000000E+00  0.00000000000E+00  0.45593999997E+02  0.45594000000E+02  0.51100000000E-03 0. -1.
         11   -1    0    0    0    0 -0.00000000000E+00 -0.00000000000E+00 -0.45593999997E+02  0.45594000000E+02  0.51100000000E-03 0.  1.
    9900012    2    1    2    0    0  0.17664673097E+02 -0.17903291961E+02  0.19599660254E+02  0.59302027838E+02  0.50000152850E+02 0.  0.
        -12    1    1    2    0    0 -0.17664673097E+02  0.17903291961E+02 -0.19599660254E+02  0.31885972162E+02  0.00000000000E+00 0.  1.
         11    1    3    3    0    0  0.70750741980E+01  0.54604698850E+01  0.14503509726E+02  0.17035997209E+02  0.51100000000E-03 0. -1.
        -11    1    3    3    0    0 -0.10828153887E+02 -0.29996087437E+01 -0.29883308515E+01  0.11626551111E+02  0.51100000000E-03 0.  1.
        -12    1    3    3    0    0  0.21417752785E+02 -0.20364153103E+02  0.80844813792E+01  0.30639479518E+02  0.00000000000E+00 0.  1.
</event>
<event>
 7    1  0.5761011E-013  0.5930195E+02  0.7816164E-02  0.1266605E+00
        -11   -1    0    0    0    0  0.00000000000E+00  0.00000000000E+00  0.45593999997E+02  0.45594000000E+02  0.51100000000E-03 0. -1.
         11   -1    0    0    0    0 -0.00000000000E+00 -0.00000000000E+00 -0.45593999997E+02  0.45594000000E+02  0.51100000000E-03 0.  1.
    9900012    2    1    2    0    0  0.14594022634E+02 -0.19096678521E+02 -0.20953564419E+02  0.59301945226E+02  0.50000002186E+02 0.  0.
        -12    1    1    2    0    0 -0.14594022634E+02  0.19096678521E+02  0.20953564419E+02  0.31886054774E+02  0.00000000000E+00 0.  1.
         11    1    3    3    0    0 -0.10156859643E+02  0.45365472902E+01 -0.12380180547E+01  0.11192620252E+02  0.51100000000E-03 0. -1.
        -11    1    3    3    0    0  0.19480619564E+02 -0.27309438041E+02 -0.76006313310E+01  0.34395777962E+02  0.51100000000E-03 0.  1.
        -12    1    3    3    0    0  0.52702627127E+01  0.36762122296E+01 -0.12114915033E+02  0.13713547013E+02  0.00000000000E+00 0.  1.
</event>
<event>
 7    1  0.5761011E-013  0.5930192E+02  0.7816164E-02  0.1266605E+00
        -11   -1    0    0    0    0  0.00000000000E+00  0.00000000000E+00  0.45593999997E+02  0.45594000000E+02  0.51100000000E-03 0.  1.
         11   -1    0    0    0    0 -0.00000000000E+00 -0.00000000000E+00 -0.45593999997E+02  0.45594000000E+02  0.51100000000E-03 0. -1.
    9900012    2    1    2    0    0 -0.92573530944E+01 -0.83475033597E+01 -0.29348642559E+02  0.59301918104E+02  0.49999952721E+02 0.  0.
        -12    1    1    2    0    0  0.92573530944E+01  0.83475033597E+01  0.29348642559E+02  0.31886081896E+02  0.00000000000E+00 0.  1.
         11    1    3    3    0    0 -0.28741383221E+02 -0.76469567825E+01 -0.12656408000E+02  0.32322248084E+02  0.51100000000E-03 0.  1.
        -11    1    3    3    0    0  0.96275391988E+01 -0.20162985839E+01 -0.34593216077E+01  0.10426978337E+02  0.51100000000E-03 0. -1.
         12    1    3    3    0    0  0.98564909278E+01  0.13157520067E+01 -0.13232912951E+02  0.16552691682E+02  0.00000000000E+00 0. -1.
</event>
<event>
 7    1  0.5761011E-013  0.5930194E+02  0.7816164E-02  0.1266605E+00
        -11   -1    0    0    0    0  0.00000000000E+00  0.00000000000E+00  0.45593999997E+02  0.45594000000E+02  0.51100000000E-03 0.  1.
         11   -1    0    0    0    0 -0.00000000000E+00 -0.00000000000E+00 -0.45593999997E+02  0.45594000000E+02  0.51100000000E-03 0. -1.
    9900012    2    1    2    0    0  0.35250375522E+01 -0.10741403011E+02 -0.29814717792E+02  0.59301936816E+02  0.49999986847E+02 0.  0.
        -12    1    1    2    0    0 -0.35250375522E+01  0.10741403011E+02  0.29814717792E+02  0.31886063184E+02  0.00000000000E+00 0.  1.
         11    1    3    3    0    0  0.17339333202E+02 -0.18733136203E+02 -0.90251170792E+01  0.27074630310E+02  0.51100000000E-03 0. -1.
        -11    1    3    3    0    0 -0.90094186031E+01  0.11135645982E+02 -0.45917734912E+01  0.15041828980E+02  0.51100000000E-03 0.  1.
         12    1    3    3    0    0 -0.48048770466E+01 -0.31439127904E+01 -0.16197827222E+02  0.17185477525E+02  0.00000000000E+00 0. -1.
</event>
<event>
 7    1  0.5761011E-013  0.5930185E+02  0.7816164E-02  0.1266605E+00
        -11   -1    0    0    0    0  0.00000000000E+00  0.00000000000E+00  0.45593999997E+02  0.45594000000E+02  0.51100000000E-03 0.  1.
         11   -1    0    0    0    0 -0.00000000000E+00 -0.00000000000E+00 -0.45593999997E+02  0.45594000000E+02  0.51100000000E-03 0. -1.
    9900012    2    1    2    0    0 -0.23354721174E+02 -0.17116574424E+02 -0.13353152678E+02  0.59301846146E+02  0.49999821487E+02 0.  0.
        -12    1    1    2    0    0  0.23354721174E+02  0.17116574424E+02  0.13353152678E+02  0.31886153854E+02  0.00000000000E+00 0.  1.
         11    1    3    3    0    0  0.49305001507E+00 -0.16429236784E+02 -0.95217275342E+01  0.18995426163E+02  0.51100000000E-03 0. -1.
        -11    1    3    3    0    0 -0.42050799564E+01  0.44404672980E+01  0.12719687458E+02  0.14113500506E+02  0.51100000000E-03 0.  1.
        -12    1    3    3    0    0 -0.19642691233E+02 -0.51278049377E+01 -0.16551112601E+02  0.26192919476E+02  0.00000000000E+00 0.  1.
</event>
<event>
 7    1  0.5761011E-013  0.5930198E+02  0.7816164E-02  0.1266605E+00
        -11   -1    0    0    0    0  0.00000000000E+00  0.00000000000E+00  0.45593999997E+02  0.45594000000E+02  0.51100000000E-03 0.  1.
         11   -1    0    0    0    0 -0.00000000000E+00 -0.00000000000E+00 -0.45593999997E+02  0.45594000000E+02  0.51100000000E-03 0. -1.
    9900012    2    1    2    0    0  0.28337448546E+01  0.30194215353E+02  0.98487436154E+01  0.59301976393E+02  0.50000059026E+02 0.  0.
        -12    1    1    2    0    0 -0.28337448546E+01 -0.30194215353E+02 -0.98487436154E+01  0.31886023607E+02  0.00000000000E+00 0.  1.
         11    1    3    3    0    0 -0.16122282734E+02  0.21442225816E+02 -0.64185529883E+01  0.27584322925E+02  0.51100000000E-03 0. -1.
        -11    1    3    3    0    0  0.96369245104E+01  0.60367719413E+01  0.18539028832E+02  0.21748759040E+02  0.51100000000E-03 0.  1.
        -12    1    3    3    0    0  0.93191030787E+01  0.27152175963E+01 -0.22717322287E+01  0.99688944274E+01  0.00000000000E+00 0.  1.
</event>
<event>
 7    1  0.5761011E-013  0.5930195E+02  0.7816164E-02  0.1266605E+00
        -11   -1    0    0    0    0  0.00000000000E+00  0.00000000000E+00  0.45593999997E+02  0.45594000000E+02  0.51100000000E-03 0. -1.
         11   -1    0    0    0    0 -0.00000000000E+00 -0.00000000000E+00 -0.45593999997E+02  0.45594000000E+02  0.51100000000E-03 0.  1.
    9900012    2    1    2    0    0  0.28791381724E+02  0.96604030079E-01  0.13702825860E+02  0.59301946145E+02  0.50000003861E+02 0.  0.
        -12    1    1    2    0    0 -0.28791381724E+02 -0.96604030079E-01 -0.13702825860E+02  0.31886053855E+02  0.00000000000E+00 0.  1.
         11    1    3    3    0    0 -0.24858282642E+01 -0.15513077438E+02  0.44766747429E+01  0.16336325498E+02  0.51100000000E-03 0. -1.
        -11    1    3    3    0    0  0.13527056343E+02  0.19048737665E+02  0.18420091682E+01  0.23435627962E+02  0.51100000000E-03 0.  1.
         12    1    3    3    0    0  0.17750153646E+02 -0.34390561967E+01  0.73841419489E+01  0.19529992685E+02  0.00000000000E+00 0. -1.
</event>
<event>
 7    1  0.5761011E-013  0.5930198E+02  0.7816164E-02  0.1266605E+00
        -11   -1    0    0    0    0  0.00000000000E+00  0.00000000000E+00  0.45593999997E+02  0.45594000000E+02  0.51100000000E-03 0. -1.
         11   -1    0    0    0    0 -0.00000000000E+00 -0.00000000000E+00 -0.45593999997E+02  0.45594000000E+02  0.51100000000E-03 0.  1.
    9900012    2    1    2    0    0 -0.28728811477E+01  0.31755975102E+02  0.15090929339E+00  0.59301981522E+02  0.50000068380E+02 0.  0.
        -12    1    1    2    0    0  0.28728811477E+01 -0.31755975102E+02 -0.15090929339E+00  0.31886018478E+02  0.00000000000E+00 0.  1.
         11    1    3    3    0    0  0.23678351038E+00  0.51386360144E+01  0.39643146886E+01  0.64944158884E+01  0.51100000000E-03 0. -1.
        -11    1    3    3    0    0  0.82853066145E+00 -0.12826222445E+02  0.92231970851E+00  0.12886004779E+02  0.51100000000E-03 0.  1.
        -12    1    3    3    0    0 -0.39381953195E+01  0.39443561533E+02 -0.47357251038E+01  0.39921560854E+02  0.00000000000E+00 0.  1.
</event>
<event>
 7    1  0.5761011E-013  0.5930194E+02  0.7816164E-02  0.1266605E+00
        -11   -1    0    0    0    0  0.00000000000E+00  0.00000000000E+00  0.45593999997E+02  0.45594000000E+02  0.51100000000E-03 0.  1.
         11   -1    0    0    0    0 -0.00000000000E+00 -0.00000000000E+00 -0.45593999997E+02  0.45594000000E+02  0.51100000000E-03 0. -1.
    9900012    2    1    2    0    0  0.10132216392E+02  0.43902231370E+01 -0.29912958256E+02  0.59301938157E+02  0.49999989294E+02 0.  0.
        -12    1    1    2    0    0 -0.10132216392E+02 -0.43902231370E+01  0.29912958256E+02  0.31886061843E+02  0.00000000000E+00 0.  1.
         11    1    3    3    0    0 -0.16107558903E+02 -0.38042017004E+01 -0.12514094198E+02  0.20749167652E+02  0.51100000000E-03 0. -1.
        -11    1    3    3    0    0  0.21290227782E+02 -0.15821024510E+01 -0.17483551754E+02  0.27594409386E+02  0.51100000000E-03 0.  1.
        -12    1    3    3    0    0  0.49495475138E+01  0.97765272884E+01  0.84687695907E-01  0.10958361119E+02  0.00000000000E+00 0.  1.
</event>
<event>
 7    1  0.5761011E-013  0.5930194E+02  0.7816164E-02  0.1266605E+00
        -11   -1    0    0    0    0  0.00000000000E+00  0.00000000000E+00  0.45593999997E+02  0.45594000000E+02  0.51100000000E-03 0.  1.
         11   -1    0    0    0    0 -0.00000000000E+00 -0.00000000000E+00 -0.45593999997E+02  0.45594000000E+02  0.51100000000E-03 0. -1.
    9900012    2    1    2    0    0 -0.10685795470E+02 -0.13733179540E+02 -0.26719546086E+02  0.59301943672E+02  0.49999999351E+02 0.  0.
        -12    1    1    2    0    0  0.10685795470E+02  0.13733179540E+02  0.26719546086E+02  0.31886056328E+02  0.00000000000E+00 0.  1.
         11    1    3    3    0    0  0.14152201168E+02 -0.85680889937E+01 -0.53198912812E+01  0.17378095131E+02  0.51100000000E-03 0. -1.
        -11    1    3    3    0    0 -0.30019607982E+02 -0.64666943346E+01 -0.18249691414E+02  0.35721789373E+02  0.51100000000E-03 0.  1.
        -12    1    3    3    0    0  0.51816113452E+01  0.13016037881E+01 -0.31499633909E+01  0.62020591675E+01  0.00000000000E+00 0.  1.
</event>
<event>
 7    1  0.5761011E-013  0.5930196E+02  0.7816164E-02  0.1266605E+00
        -11   -1    0    0    0    0  0.00000000000E+00  0.00000000000E+00  0.45593999997E+02  0.45594000000E+02  0.51100000000E-03 0.  1.
         11   -1    0    0    0    0 -0.00000000000E+00 -0.00000000000E+00 -0.45593999997E+02  0.45594000000E+02  0.51100000000E-03 0. -1.
    9900012    2    1    2    0    0 -0.30612737186E+02 -0.59966095815E+01 -0.66046072519E+01  0.59301955381E+02  0.50000020705E+02 0.  0.
        -12    1    1    2    0    0  0.30612737186E+02  0.59966095815E+01  0.66046072519E+01  0.31886044619E+02  0.00000000000E+00 0.  1.
         11    1    3    3    0    0  0.44760427235E+01  0.13905214819E+02  0.46194768941E+01  0.15320885244E+02  0.51100000000E-03 0.  1.
        -11    1    3    3    0    0 -0.29089641506E+02 -0.12145650530E+02 -0.39454443105E+01  0.31769334283E+02  0.51100000000E-03 0. -1.
        -12    1    3    3    0    0 -0.59991384041E+01 -0.77561738704E+01 -0.72786398354E+01  0.12211735853E+02  0.00000000000E+00 0.  1.
</event>
<event>
 7    1  0.5761011E-013  0.5930196E+02  0.7816164E-02  0.1266605E+00
        -11   -1    0    0    0    0  0.00000000000E+00  0.00000000000E+00  0.45593999997E+02  0.45594000000E+02  0.51100000000E-03 0. -1.
         11   -1    0    0    0    0 -0.00000000000E+00 -0.00000000000E+00 -0.45593999997E+02  0.45594000000E+02  0.51100000000E-03 0.  1.
    9900012    2    1    2    0    0  0.12656875537E+02  0.26406491915E+02  0.12618252390E+02  0.59301959058E+02  0.50000027411E+02 0.  0.
        -12    1    1    2    0    0 -0.12656875537E+02 -0.26406491915E+02 -0.12618252390E+02  0.31886040942E+02  0.00000000000E+00 0.  1.
         11    1    3    3    0    0 -0.46151329292E+01  0.39225221281E+01 -0.12362312498E+02  0.13766350365E+02  0.51100000000E-03 0. -1.
        -11    1    3    3    0    0  0.50757808006E+01  0.25015503994E+02  0.15295222639E+02  0.29757063475E+02  0.51100000000E-03 0.  1.
        -12    1    3    3    0    0  0.12196227665E+02 -0.25315342073E+01  0.96853422487E+01  0.15778545217E+02  0.00000000000E+00 0.  1.
</event>
<event>
 7    1  0.5761011E-013  0.5930196E+02  0.7816164E-02  0.1266605E+00
        -11   -1    0    0    0    0  0.00000000000E+00  0.00000000000E+00  0.45593999997E+02  0.45594000000E+02  0.51100000000E-03 0.  1.
         11   -1    0    0    0    0 -0.00000000000E+00 -0.00000000000E+00 -0.45593999997E+02  0.45594000000E+02  0.51100000000E-03 0. -1.
    9900012    2    1    2    0    0  0.24444319727E+02  0.98664230012E+01 -0.17940143532E+02  0.59301955722E+02  0.50000021328E+02 0.  0.
        -12    1    1    2    0    0 -0.24444319727E+02 -0.98664230012E+01  0.17940143532E+02  0.31886044278E+02  0.00000000000E+00 0.  1.
         11    1    3    3    0    0  0.11672378864E+02 -0.96198594298E+01  0.68633593513E+01  0.16609991741E+02  0.51100000000E-03 0. -1.
        -11    1    3    3    0    0  0.14397569518E+02  0.19950534129E+02 -0.29081149263E+02  0.38092349137E+02  0.51100000000E-03 0.  1.
        -12    1    3    3    0    0 -0.16256286557E+01 -0.46425169804E+00  0.42776463795E+01  0.45996148440E+01  0.00000000000E+00 0.  1.
</event>
<event>
 7    1  0.5761011E-013  0.5930194E+02  0.7816164E-02  0.1266605E+00
        -11   -1    0    0    0    0  0.00000000000E+00  0.00000000000E+00  0.45593999997E+02  0.45594000000E+02  0.51100000000E-03 0. -1.
         11   -1    0    0    0    0 -0.00000000000E+00 -0.00000000000E+00 -0.45593999997E+02  0.45594000000E+02  0.51100000000E-03 0.  1.
    9900012    2    1    2    0    0  0.10817185699E+02  0.29538638199E+02 -0.52132905223E+01  0.59301936412E+02  0.49999986110E+02 0.  0.
        -12    1    1    2    0    0 -0.10817185699E+02 -0.29538638199E+02  0.52132905223E+01  0.31886063588E+02  0.00000000000E+00 0.  1.
         11    1    3    3    0    0  0.53746723835E+01  0.20167368185E+02 -0.12663551731E+02  0.24412607100E+02  0.51100000000E-03 0. -1.
        -11    1    3    3    0    0  0.13462651909E+02  0.11309334239E+02  0.15443243726E+02  0.23401662642E+02  0.51100000000E-03 0.  1.
        -12    1    3    3    0    0 -0.80201385933E+01 -0.19380642252E+01 -0.79929825171E+01  0.11487666670E+02  0.00000000000E+00 0.  1.
</event>
<event>
 7    1  0.5761011E-013  0.5930194E+02  0.7816164E-02  0.1266605E+00
        -11   -1    0    0    0    0  0.00000000000E+00  0.00000000000E+00  0.45593999997E+02  0.45594000000E+02  0.51100000000E-03 0.  1.
         11   -1    0    0    0    0 -0.00000000000E+00 -0.00000000000E+00 -0.45593999997E+02  0.45594000000E+02  0.51100000000E-03 0. -1.
    9900012    2    1    2    0    0  0.24126253520E+02  0.96385482473E+01 -0.18486302318E+02  0.59301935730E+02  0.49999984867E+02 0.  0.
        -12    1    1    2    0    0 -0.24126253520E+02 -0.96385482473E+01  0.18486302318E+02  0.31886064270E+02  0.00000000000E+00 0.  1.
         11    1    3    3    0    0  0.25749715189E+01  0.15889237408E+02 -0.21202125827E+02  0.26620076701E+02  0.51100000000E-03 0. -1.
        -11    1    3    3    0    0  0.45517667565E+01 -0.11707766727E+02  0.69174258852E+01  0.14340193983E+02  0.51100000000E-03 0.  1.
        -12    1    3    3    0    0  0.16999515245E+02  0.54570775658E+01 -0.42016023765E+01  0.18341665046E+02  0.00000000000E+00 0.  1.
</event>
<event>
 7    1  0.5761011E-013  0.5930192E+02  0.7816164E-02  0.1266605E+00
        -11   -1    0    0    0    0  0.00000000000E+00  0.00000000000E+00  0.45593999997E+02  0.45594000000E+02  0.51100000000E-03 0.  1.
         11   -1    0    0    0    0 -0.00000000000E+00 -0.00000000000E+00 -0.45593999997E+02  0.45594000000E+02  0.51100000000E-03 0. -1.
    9900012    2    1    2    0    0  0.15903454953E+02 -0.12848070242E+02 -0.24468939552E+02  0.59301924807E+02  0.49999964947E+02 0.  0.
        -12    1    1    2    0    0 -0.15903454953E+02  0.12848070242E+02  0.24468939552E+02  0.31886075193E+02  0.00000000000E+00 0.  1.
         11    1    3    3    0    0  0.14926414826E+01 -0.25722564965E+02 -0.80772259976E+01  0.27002220410E+02  0.51100000000E-03 0. -1.
        -11    1    3    3    0    0  0.15458959964E+02  0.11379211828E+02 -0.37895812815E+01  0.19565961043E+02  0.51100000000E-03 0.  1.
         12    1    3    3    0    0 -0.10481464936E+01  0.14952828946E+01 -0.12602132273E+02  0.12733743355E+02  0.00000000000E+00 0. -1.
</event>
<event>
 7    1  0.5761011E-013  0.5930195E+02  0.7816164E-02  0.1266605E+00
        -11   -1    0    0    0    0  0.00000000000E+00  0.00000000000E+00  0.45593999997E+02  0.45594000000E+02  0.51100000000E-03 0. -1.
         11   -1    0    0    0    0 -0.00000000000E+00 -0.00000000000E+00 -0.45593999997E+02  0.45594000000E+02  0.51100000000E-03 0.  1.
    9900012    2    1    2    0    0  0.22428691921E+02  0.20261623446E+02  0.10155812670E+02  0.59301950748E+02  0.50000012255E+02 0.  0.
        -12    1    1    2    0    0 -0.22428691921E+02 -0.20261623446E+02 -0.10155812670E+02  0.31886049252E+02  0.00000000000E+00 0.  1.
         11    1    3    3    0    0  0.68709230796E+01 -0.68597481998E+01  0.21001653170E+02  0.23137311111E+02  0.51100000000E-03 0. -1.
        -11    1    3    3    0    0  0.11205982799E+02  0.68672255680E+01 -0.76389164711E+01  0.15201509221E+02  0.51100000000E-03 0.  1.
        -12    1    3    3    0    0  0.43517860426E+01  0.20254146077E+02 -0.32069240281E+01  0.20963130415E+02  0.00000000000E+00 0.  1.
</event>
<event>
 7    1  0.5761011E-013  0.5930194E+02  0.7816164E-02  0.1266605E+00
        -11   -1    0    0    0    0  0.00000000000E+00  0.00000000000E+00  0.45593999997E+02  0.45594000000E+02  0.51100000000E-03 0.  1.
         11   -1    0    0    0    0 -0.00000000000E+00 -0.00000000000E+00 -0.45593999997E+02  0.45594000000E+02  0.51100000000E-03 0. -1.
    9900012    2    1    2    0    0  0.19150248385E+02 -0.14342943750E+02 -0.21077689893E+02  0.59301936276E+02  0.49999985862E+02 0.  0.
        -12    1    1    2    0    0 -0.19150248385E+02  0.14342943750E+02  0.21077689893E+02  0.31886063724E+02  0.00000000000E+00 0.  1.
         11    1    3    3    0    0  0.10158416474E+02 -0.12982488032E+02 -0.70264112027E+01  0.17919511026E+02  0.51100000000E-03 0. -1.
        -11    1    3    3    0    0 -0.76696671678E+01  0.39919911044E+01 -0.20878248267E+02  0.22597810478E+02  0.51100000000E-03 0.  1.
        -12    1    3    3    0    0  0.16661499078E+02 -0.53524468218E+01  0.68269695765E+01  0.18784614772E+02  0.00000000000E+00 0.  1.
</event>
<event>
 7    1  0.5761011E-013  0.5930194E+02  0.7816164E-02  0.1266605E+00
        -11   -1    0    0    0    0  0.00000000000E+00  0.00000000000E+00  0.45593999997E+02  0.45594000000E+02  0.51100000000E-03 0.  1.
         11   -1    0    0    0    0 -0.00000000000E+00 -0.00000000000E+00 -0.45593999997E+02  0.45594000000E+02  0.51100000000E-03 0. -1.
    9900012    2    1    2    0    0 -0.28632094503E+02 -0.11187494999E+02 -0.84713700853E+01  0.59301937353E+02  0.49999987827E+02 0.  0.
        -12    1    1    2    0    0  0.28632094503E+02  0.11187494999E+02  0.84713700853E+01  0.31886062647E+02  0.00000000000E+00 0.  1.
         11    1    3    3    0    0  0.68746286647E+01 -0.16637792049E+02  0.79051263921E+01  0.19661324144E+02  0.51100000000E-03 0. -1.
        -11    1    3    3    0    0 -0.11083269380E+02  0.32443343460E+01 -0.59820894841E+01  0.13005766427E+02  0.51100000000E-03 0.  1.
         12    1    3    3    0    0 -0.24423453788E+02  0.22059627041E+01 -0.10394406993E+02  0.26634846782E+02  0.00000000000E+00 0. -1.
</event>
<event>
 7    1  0.5761011E-013  0.5930193E+02  0.7816164E-02  0.1266605E+00
        -11   -1    0    0    0    0  0.00000000000E+00  0.00000000000E+00  0.45593999997E+02  0.45594000000E+02  0.51100000000E-03 0.  1.
         11   -1    0    0    0    0 -0.00000000000E+00 -0.00000000000E+00 -0.45593999997E+02  0.45594000000E+02  0.51100000000E-03 0. -1.
    9900012    2    1    2    0    0 -0.25239509119E+02 -0.88880304032E+01 -0.17340452304E+02  0.59301934217E+02  0.49999982108E+02 0.  0.
        -12    1    1    2    0    0  0.25239509119E+02  0.88880304032E+01  0.17340452304E+02  0.31886065783E+02  0.00000000000E+00 0.  1.
         11    1    3    3    0    0 -0.13584767326E+02  0.76197271699E+01 -0.24084844240E+02  0.28682501073E+02  0.51100000000E-03 0. -1.
        -11    1    3    3    0    0 -0.88648905773E+01 -0.78128300678E+01  0.14453449978E+02  0.18668926460E+02  0.51100000000E-03 0.  1.
         12    1    3    3    0    0 -0.27898512155E+01 -0.86949275053E+01 -0.77090580422E+01  0.11950506685E+02  0.00000000000E+00 0. -1.
</event>
<event>
 7    1  0.5761011E-013  0.5930194E+02  0.7816164E-02  0.1266605E+00
        -11   -1    0    0    0    0  0.00000000000E+00  0.00000000000E+00  0.45593999997E+02  0.45594000000E+02  0.51100000000E-03 0.  1.
         11   -1    0    0    0    0 -0.00000000000E+00 -0.00000000000E+00 -0.45593999997E+02  0.45594000000E+02  0.51100000000E-03 0. -1.
    9900012    2    1    2    0    0  0.30327566908E+02 -0.24832932104E+01 -0.95285392748E+01  0.59301935326E+02  0.49999984129E+02 0.  0.
        -12    1    1    2    0    0 -0.30327566908E+02  0.24832932104E+01  0.95285392748E+01  0.31886064674E+02  0.00000000000E+00 0.  1.
         11    1    3    3    0    0  0.22087519256E+02  0.33233400087E+01  0.32056052983E+01  0.22564995043E+02  0.51100000000E-03 0. -1.
        -11    1    3    3    0    0 -0.11605473792E+02  0.20987158156E+01 -0.94735147876E+01  0.15127429151E+02  0.51100000000E-03 0.  1.
        -12    1    3    3    0    0  0.19845521444E+02 -0.79053490347E+01 -0.32606297854E+01  0.21609511131E+02  0.00000000000E+00 0.  1.
</event>
<event>
 7    1  0.5761011E-013  0.5930194E+02  0.7816164E-02  0.1266605E+00
        -11   -1    0    0    0    0  0.00000000000E+00  0.00000000000E+00  0.45593999997E+02  0.45594000000E+02  0.51100000000E-03 0.  1.
         11   -1    0    0    0    0 -0.00000000000E+00 -0.00000000000E+00 -0.45593999997E+02  0.45594000000E+02  0.51100000000E-03 0. -1.
    9900012    2    1    2    0    0 -0.67596382806E+01  0.30680690686E+02  0.54519276664E+01  0.59301937121E+02  0.49999987404E+02 0.  0.
        -12    1    1    2    0    0  0.67596382806E+01 -0.30680690686E+02 -0.54519276664E+01  0.31886062879E+02  0.00000000000E+00 0.  1.
         11    1    3    3    0    0  0.12563807023E+02  0.21308653351E+02  0.98833762210E+01  0.26638113302E+02  0.51100000000E-03 0. -1.
        -11    1    3    3    0    0 -0.10872942089E+02  0.15968325822E+02  0.30955731628E+01  0.19565042108E+02  0.51100000000E-03 0.  1.
         12    1    3    3    0    0 -0.84505032137E+01 -0.65962884870E+01 -0.75270217173E+01  0.13098781711E+02  0.00000000000E+00 0. -1.
</event>
<event>
 7    1  0.5761011E-013  0.5930192E+02  0.7816164E-02  0.1266605E+00
        -11   -1    0    0    0    0  0.00000000000E+00  0.00000000000E+00  0.45593999997E+02  0.45594000000E+02  0.51100000000E-03 0.  1.
         11   -1    0    0    0    0 -0.00000000000E+00 -0.00000000000E+00 -0.45593999997E+02  0.45594000000E+02  0.51100000000E-03 0. -1.
    9900012    2    1    2    0    0  0.29702218130E+01  0.28432462016E+01 -0.31619867484E+02  0.59301917044E+02  0.49999950789E+02 0.  0.
        -12    1    1    2    0    0 -0.29702218130E+01 -0.28432462016E+01  0.31619867484E+02  0.31886082956E+02  0.00000000000E+00 0.  1.
         11    1    3    3    0    0 -0.15082765192E+02  0.24058904125E+01 -0.15035766248E+02  0.21432507586E+02  0.51100000000E-03 0. -1.
        -11    1    3    3    0    0  0.13390450041E+02 -0.77334545269E+01  0.33545161060E+01  0.15822871098E+02  0.51100000000E-03 0.  1.
        -12    1    3    3    0    0  0.46625369643E+01  0.81708103160E+01 -0.19938617342E+02  0.22046538360E+02  0.00000000000E+00 0.  1.
</event>
<event>
 7    1  0.5761011E-013  0.5930195E+02  0.7816164E-02  0.1266605E+00
        -11   -1    0    0    0    0  0.00000000000E+00  0.00000000000E+00  0.45593999997E+02  0.45594000000E+02  0.51100000000E-03 0. -1.
         11   -1    0    0    0    0 -0.00000000000E+00 -0.00000000000E+00 -0.45593999997E+02  0.45594000000E+02  0.51100000000E-03 0.  1.
    9900012    2    1    2    0    0 -0.83002053248E-01 -0.24588154811E+02  0.20301138228E+02  0.59301945686E+02  0.50000003024E+02 0.  0.
        -12    1    1    2    0    0  0.83002053248E-01  0.24588154811E+02 -0.20301138228E+02  0.31886054314E+02  0.00000000000E+00 0.  1.
         11    1    3    3    0    0  0.10129448798E+02 -0.17256701127E+02 -0.36217282556E+01  0.20335102226E+02  0.51100000000E-03 0. -1.
        -11    1    3    3    0    0 -0.17261174120E+02 -0.96525433762E+01  0.24543504275E+02  0.31519887817E+02  0.51100000000E-03 0.  1.
        -12    1    3    3    0    0  0.70487232685E+01  0.23210896917E+01 -0.62063779111E+00  0.74469556424E+01  0.00000000000E+00 0.  1.
</event>
<event>
 7    1  0.5761011E-013  0.5930193E+02  0.7816164E-02  0.1266605E+00
        -11   -1    0    0    0    0  0.00000000000E+00  0.00000000000E+00  0.45593999997E+02  0.45594000000E+02  0.51100000000E-03 0.  1.
         11   -1    0    0    0    0 -0.00000000000E+00 -0.00000000000E+00 -0.45593999997E+02  0.45594000000E+02  0.51100000000E-03 0. -1.
    9900012    2    1    2    0    0  0.12113403955E+02  0.11531020553E+02 -0.27148155258E+02  0.59301932129E+02  0.49999978299E+02 0.  0.
        -12    1    1    2    0    0 -0.12113403955E+02 -0.11531020553E+02  0.27148155258E+02  0.31886067871E+02  0.00000000000E+00 0.  1.
         11    1    3    3    0    0  0.16435255481E+01 -0.10794510946E+02 -0.12981545139E+02  0.16962993759E+02  0.51100000000E-03 0. -1.
        -11    1    3    3    0    0  0.17676929457E+02  0.22385026796E+02 -0.25088504182E+01  0.28633155438E+02  0.51100000000E-03 0.  1.
        -12    1    3    3    0    0 -0.72070510496E+01 -0.59495296990E-01 -0.11657759701E+02  0.13705782932E+02  0.00000000000E+00 0.  1.
</event>
<event>
 7    1  0.5761011E-013  0.5930197E+02  0.7816164E-02  0.1266605E+00
        -11   -1    0    0    0    0  0.00000000000E+00  0.00000000000E+00  0.45593999997E+02  0.45594000000E+02  0.51100000000E-03 0.  1.
         11   -1    0    0    0    0 -0.00000000000E+00 -0.00000000000E+00 -0.45593999997E+02  0.45594000000E+02  0.51100000000E-03 0. -1.
    9900012    2    1    2    0    0  0.32822636635E+01  0.77745305552E+01 -0.30749017079E+02  0.59301974355E+02  0.50000055309E+02 0.  0.
        -12    1    1    2    0    0 -0.32822636635E+01 -0.77745305552E+01  0.30749017079E+02  0.31886025645E+02  0.00000000000E+00 0.  1.
         11    1    3    3    0    0  0.25357144453E+02 -0.67020186225E+00 -0.95344257219E+01  0.27098694055E+02  0.51100000000E-03 0. -1.
        -11    1    3    3    0    0 -0.91304401423E+01  0.20260514197E+01 -0.54734262224E+01  0.10836430059E+02  0.51100000000E-03 0.  1.
         12    1    3    3    0    0 -0.12944440647E+02  0.64186809977E+01 -0.15741165135E+02  0.21366850241E+02  0.00000000000E+00 0. -1.
</event>
<event>
 7    1  0.5761011E-013  0.5930196E+02  0.7816164E-02  0.1266605E+00
        -11   -1    0    0    0    0  0.00000000000E+00  0.00000000000E+00  0.45593999997E+02  0.45594000000E+02  0.51100000000E-03 0.  1.
         11   -1    0    0    0    0 -0.00000000000E+00 -0.00000000000E+00 -0.45593999997E+02  0.45594000000E+02  0.51100000000E-03 0. -1.
    9900012    2    1    2    0    0 -0.11610413010E+02 -0.11774977534E+02 -0.27262936714E+02  0.59301960665E+02  0.50000030342E+02 0.  0.
        -12    1    1    2    0    0  0.11610413010E+02  0.11774977534E+02  0.27262936714E+02  0.31886039335E+02  0.00000000000E+00 0.  1.
         11    1    3    3    0    0 -0.23520748903E+02 -0.63939140391E+01 -0.15284532133E+02  0.28770204874E+02  0.51100000000E-03 0. -1.
        -11    1    3    3    0    0  0.10978465946E+02  0.23861404738E+01 -0.17612843687E+02  0.20890970392E+02  0.51100000000E-03 0.  1.
        -12    1    3    3    0    0  0.93186994644E+00 -0.77672039689E+01  0.56344391053E+01  0.96407853997E+01  0.00000000000E+00 0.  1.
</event>
<event>
 7    1  0.5761011E-013  0.5930197E+02  0.7816164E-02  0.1266605E+00
        -11   -1    0    0    0    0  0.00000000000E+00  0.00000000000E+00  0.45593999997E+02  0.45594000000E+02  0.51100000000E-03 0. -1.
         11   -1    0    0    0    0 -0.00000000000E+00 -0.00000000000E+00 -0.45593999997E+02  0.45594000000E+02  0.51100000000E-03 0.  1.
    9900012    2    1    2    0    0 -0.17335866580E+02 -0.56611296073E+01 -0.26156042082E+02  0.59301965504E+02  0.50000039168E+02 0.  0.
        -12    1    1    2    0    0  0.17335866580E+02  0.56611296073E+01  0.26156042082E+02  0.31886034496E+02  0.00000000000E+00 0.  1.
         11    1    3    3    0    0 -0.14894847374E+02 -0.78226860687E+01 -0.79377761862E+01  0.18602666117E+02  0.51100000000E-03 0. -1.
        -11    1    3    3    0    0 -0.15290110352E+01  0.16757486415E+02  0.63479083765E+00  0.16839067236E+02  0.51100000000E-03 0.  1.
        -12    1    3    3    0    0 -0.91200817051E+00 -0.14595929954E+02 -0.18853056733E+02  0.23860232151E+02  0.00000000000E+00 0.  1.
</event>
<event>
 7    1  0.5761011E-013  0.5930197E+02  0.7816164E-02  0.1266605E+00
        -11   -1    0    0    0    0  0.00000000000E+00  0.00000000000E+00  0.45593999997E+02  0.45594000000E+02  0.51100000000E-03 0.  1.
         11   -1    0    0    0    0 -0.00000000000E+00 -0.00000000000E+00 -0.45593999997E+02  0.45594000000E+02  0.51100000000E-03 0. -1.
    9900012    2    1    2    0    0  0.29761654295E+02  0.66589697431E+01 -0.93070370129E+01  0.59301970420E+02  0.50000048133E+02 0.  0.
        -12    1    1    2    0    0 -0.29761654295E+02 -0.66589697431E+01  0.93070370129E+01  0.31886029580E+02  0.00000000000E+00 0.  1.
         11    1    3    3    0    0  0.17076429739E+02 -0.14508272962E+02 -0.35283712263E+01  0.22683558820E+02  0.51100000000E-03 0. -1.
        -11    1    3    3    0    0  0.13117634230E+02  0.23443599790E+02  0.34670231793E+01  0.27086803962E+02  0.51100000000E-03 0.  1.
        -12    1    3    3    0    0 -0.43240967461E+00 -0.22763570847E+01 -0.92456889659E+01  0.95316076376E+01  0.00000000000E+00 0.  1.
</event>
<event>
 7    1  0.5761011E-013  0.5930194E+02  0.7816164E-02  0.1266605E+00
        -11   -1    0    0    0    0  0.00000000000E+00  0.00000000000E+00  0.45593999997E+02  0.45594000000E+02  0.51100000000E-03 0. -1.
         11   -1    0    0    0    0 -0.00000000000E+00 -0.00000000000E+00 -0.45593999997E+02  0.45594000000E+02  0.51100000000E-03 0.  1.
    9900012    2    1    2    0    0 -0.16577311270E+02 -0.34467771788E+01  0.27019122679E+02  0.59301944863E+02  0.50000001524E+02 0.  0.
        -12    1    1    2    0    0  0.16577311270E+02  0.34467771788E+01 -0.27019122679E+02  0.31886055137E+02  0.00000000000E+00 0.  1.
         11    1    3    3    0    0 -0.80962010095E+00 -0.38309467031E+01  0.24197993156E+02  0.24512741797E+02  0.51100000000E-03 0. -1.
        -11    1    3    3    0    0  0.63019154348E+01  0.20152648230E+01 -0.78120575756E+01  0.10237366570E+02  0.51100000000E-03 0.  1.
        -12    1    3    3    0    0 -0.22069606604E+02 -0.16310952987E+01  0.10633187098E+02  0.24551836497E+02  0.00000000000E+00 0.  1.
</event>
<event>
 7    1  0.5761011E-013  0.5930198E+02  0.7816164E-02  0.1266605E+00
        -11   -1    0    0    0    0  0.00000000000E+00  0.00000000000E+00  0.45593999997E+02  0.45594000000E+02  0.51100000000E-03 0.  1.
         11   -1    0    0    0    0 -0.00000000000E+00 -0.00000000000E+00 -0.45593999997E+02  0.45594000000E+02  0.51100000000E-03 0. -1.
    9900012    2    1    2    0    0 -0.27647480723E+02  0.41396839389E+01  0.15336168811E+02  0.59301980380E+02  0.50000066297E+02 0.  0.
        -12    1    1    2    0    0  0.27647480723E+02 -0.41396839389E+01 -0.15336168811E+02  0.31886019620E+02  0.00000000000E+00 0.  1.
         11    1    3    3    0    0  0.35319359950E+01 -0.11282427147E+02 -0.11409541559E+01  0.11877268661E+02  0.51100000000E-03 0. -1.
        -11    1    3    3    0    0 -0.20435383668E+02 -0.20850049358E+01  0.17316454334E+02  0.26866554342E+02  0.51100000000E-03 0.  1.
         12    1    3    3    0    0 -0.10744033050E+02  0.17507116022E+02 -0.83933136683E+00  0.20558157377E+02  0.00000000000E+00 0. -1.
</event>
<event>
 7    1  0.5761011E-013  0.5930191E+02  0.7816164E-02  0.1266605E+00
        -11   -1    0    0    0    0  0.00000000000E+00  0.00000000000E+00  0.45593999997E+02  0.45594000000E+02  0.51100000000E-03 0. -1.
         11   -1    0    0    0    0 -0.00000000000E+00 -0.00000000000E+00 -0.45593999997E+02  0.45594000000E+02  0.51100000000E-03 0.  1.
    9900012    2    1    2    0    0 -0.30384746644E+02 -0.96129701909E+01 -0.10394538227E+01  0.59301913869E+02  0.49999944998E+02 0.  0.
        -12    1    1    2    0    0  0.30384746644E+02  0.96129701909E+01  0.10394538227E+01  0.31886086131E+02  0.00000000000E+00 0.  1.
         11    1    3    3    0    0 -0.18850645169E+02  0.13210326533E+02  0.39442852635E+01  0.23354163160E+02  0.51100000000E-03 0.  1.
        -11    1    3    3    0    0  0.15745965930E+01 -0.81020271879E+01 -0.12392656266E+02  0.14889597999E+02  0.51100000000E-03 0. -1.
        -12    1    3    3    0    0 -0.13108698068E+02 -0.14721269536E+02  0.74089171797E+01  0.21058152710E+02  0.00000000000E+00 0.  1.
</event>
<event>
 7    1  0.5761011E-013  0.5930197E+02  0.7816164E-02  0.1266605E+00
        -11   -1    0    0    0    0  0.00000000000E+00  0.00000000000E+00  0.45593999997E+02  0.45594000000E+02  0.51100000000E-03 0.  1.
         11   -1    0    0    0    0 -0.00000000000E+00 -0.00000000000E+00 -0.45593999997E+02  0.45594000000E+02  0.51100000000E-03 0. -1.
    9900012    2    1    2    0    0  0.77915118804E+01 -0.72746646035E+01 -0.30051460413E+02  0.59301973665E+02  0.50000054052E+02 0.  0.
        -12    1    1    2    0    0 -0.77915118804E+01  0.72746646035E+01  0.30051460413E+02  0.31886026335E+02  0.00000000000E+00 0.  1.
         11    1    3    3    0    0  0.10425953484E+02  0.47324107594E+01 -0.25781115408E+02  0.28209256098E+02  0.51100000000E-03 0. -1.
        -11    1    3    3    0    0  0.31060304314E+01 -0.11485190739E+02  0.10101774647E+02  0.15607782759E+02  0.51100000000E-03 0.  1.
         12    1    3    3    0    0 -0.57404720352E+01 -0.52188462370E+00 -0.14372119652E+02  0.15484934809E+02  0.00000000000E+00 0. -1.
</event>
<event>
 7    1  0.5761011E-013  0.5930195E+02  0.7816164E-02  0.1266605E+00
        -11   -1    0    0    0    0  0.00000000000E+00  0.00000000000E+00  0.45593999997E+02  0.45594000000E+02  0.51100000000E-03 0. -1.
         11   -1    0    0    0    0 -0.00000000000E+00 -0.00000000000E+00 -0.45593999997E+02  0.45594000000E+02  0.51100000000E-03 0.  1.
    9900012    2    1    2    0    0 -0.71587872191E+01 -0.20467593706E+02  0.23378405788E+02  0.59301945309E+02  0.50000002336E+02 0.  0.
        -12    1    1    2    0    0  0.71587872191E+01  0.20467593706E+02 -0.23378405788E+02  0.31886054691E+02  0.00000000000E+00 0.  1.
         11    1    3    3    0    0 -0.16351537449E+02  0.22992418388E+01  0.13865248861E+02  0.21561642243E+02  0.51100000000E-03 0. -1.
        -11    1    3    3    0    0  0.58302656206E+01 -0.14824214855E+02 -0.82902519064E+01  0.17957661880E+02  0.51100000000E-03 0.  1.
         12    1    3    3    0    0  0.33624846094E+01 -0.79426206899E+01  0.17803408833E+02  0.19782641185E+02  0.00000000000E+00 0. -1.
</event>
<event>
 7    1  0.5761011E-013  0.5930183E+02  0.7816164E-02  0.1266605E+00
        -11   -1    0    0    0    0  0.00000000000E+00  0.00000000000E+00  0.45593999997E+02  0.45594000000E+02  0.51100000000E-03 0. -1.
         11   -1    0    0    0    0 -0.00000000000E+00 -0.00000000000E+00 -0.45593999997E+02  0.45594000000E+02  0.51100000000E-03 0.  1.
    9900012    2    1    2    0    0 -0.22270790994E+02  0.78246341874E+01  0.21436294388E+02  0.59301831388E+02  0.49999794572E+02 0.  0.
        -12    1    1    2    0    0  0.22270790994E+02 -0.78246341874E+01 -0.21436294388E+02  0.31886168612E+02  0.00000000000E+00 0.  1.
         11    1    3    3    0    0 -0.95957916960E+01  0.86233884127E+01 -0.59812888783E+01  0.14220332728E+02  0.51100000000E-03 0.  1.
        -11    1    3    3    0    0 -0.39664723882E+01  0.11297723520E+02  0.27696279503E+02  0.30173752808E+02  0.51100000000E-03 0. -1.
         12    1    3    3    0    0 -0.87085269098E+01 -0.12096477746E+02 -0.27869623660E+00  0.14907745852E+02  0.00000000000E+00 0. -1.
</event>
<event>
 7    1  0.5761011E-013  0.5930193E+02  0.7816164E-02  0.1266605E+00
        -11   -1    0    0    0    0  0.00000000000E+00  0.00000000000E+00  0.45593999997E+02  0.45594000000E+02  0.51100000000E-03 0.  1.
         11   -1    0    0    0    0 -0.00000000000E+00 -0.00000000000E+00 -0.45593999997E+02  0.45594000000E+02  0.51100000000E-03 0. -1.
    9900012    2    1    2    0    0  0.18310591697E+02  0.25973650662E+02 -0.26101843918E+01  0.59301931575E+02  0.49999977290E+02 0.  0.
        -12    1    1    2    0    0 -0.18310591697E+02 -0.25973650662E+02  0.26101843918E+01  0.31886068425E+02  0.00000000000E+00 0.  1.
         11    1    3    3    0    0  0.13138009420E+01  0.14680830944E+02 -0.18874872092E+02  0.23948145375E+02  0.51100000000E-03 0. -1.
        -11    1    3    3    0    0  0.13729742854E+02  0.60632658011E+00  0.19375024060E+02  0.23754263372E+02  0.51100000000E-03 0.  1.
         12    1    3    3    0    0  0.32670479017E+01  0.10686493138E+02 -0.31103363597E+01  0.11599522828E+02  0.00000000000E+00 0. -1.
</event>
